Title
81356
    1CHL1    C3    1   2.092   3.296  10.279 -0.1490  0.6989 -0.4613
    1CHL1    H3    2   2.168   3.377  10.281  0.7434 -0.1514  0.1861
    1CHL1    O3    3   2.076   3.243  10.409  0.0771 -0.4348  0.6885
    1CHL1   H3'    4   2.000   3.285  10.452 -1.9474 -0.5773 -2.5726
    1CHL1    C4    5   1.952   3.358  10.252 -0.5209  0.0704  0.8131
    1CHL1   H4A    6   1.867   3.289  10.266 -1.9010  1.6449  0.2875
    1CHL1   H4B    7   1.937   3.442  10.323 -3.1828  1.2039 -1.0064
    1CHL1    C5    8   1.937   3.412  10.118  0.3661 -0.6186  0.4055
    1CHL1    C6    9   1.908   3.543  10.097 -0.1541 -0.2284  0.4601
    1CHL1    H6   10   1.888   3.604  10.187  0.4494  1.0777 -0.2824
    1CHL1    C7   11   1.888   3.608   9.964  0.5356  0.6382  0.3243
    1CHL1   H7A   12   1.792   3.664   9.965  0.0881 -0.1433  1.4111
    1CHL1   H7B   13   1.960   3.690   9.939  1.9146 -1.2068 -2.0794
    1CHL1    C8   14   1.869   3.496   9.849 -0.5238 -0.0654  0.5958
    1CHL1    H8   15   1.767   3.459   9.870 -0.9678  0.9359  0.1847
    1CHL1   C14   16   1.888   3.563   9.716  0.1410  0.1998 -1.1028
    1CHL1   H14   17   1.992   3.600   9.703 -0.8458  4.4417  2.0632
    1CHL1   C15   18   1.796   3.687   9.689  0.2248  0.5831 -0.0636
    1CHL1  H15A   19   1.691   3.668   9.718  0.8530  0.0548  1.9763
    1CHL1  H15B   20   1.824   3.784   9.737  0.0866  0.4064  0.3693
    1CHL1   C16   21   1.808   3.698   9.534  0.4146 -0.0032  0.4875
    1CHL1  H16A   22   1.709   3.714   9.485  0.8318 -0.8673 -0.6879
    1CHL1  H16B   23   1.871   3.784   9.505 -0.5259  1.0864  1.6470
    1CHL1   C17   24   1.878   3.576   9.476  0.5463  0.3757 -0.3547
    1CHL1   H17   25   1.984   3.607   9.469  1.5517 -2.8798 -0.4923
    1CHL1   C13   26   1.870   3.471   9.594 -0.2296 -0.6340 -0.0492
    1CHL1   C18   27   1.725   3.414   9.587  0.1182 -0.3547 -0.5273
    1CHL1  H18A   28   1.726   3.320   9.528  0.0817 -2.1928  2.2864
    1CHL1  H18B   29   1.692   3.377   9.687 -0.0305  3.4796  0.9411
    1CHL1  H18C   30   1.649   3.486   9.548 -0.7095 -0.1768  1.3443
    1CHL1   C12   31   1.980   3.363   9.603  0.6740  0.8051  0.4486
    1CHL1  H12A   32   1.952   3.287   9.527  0.9938 -0.3027  1.4095
    1CHL1  H12B   33   2.078   3.415   9.595  0.0652  2.1504  1.5017
    1CHL1   C11   34   1.979   3.291   9.744 -0.0227 -0.0060  0.0623
    1CHL1  H11A   35   1.891   3.223   9.744  0.9616 -1.2932  0.6243
    1CHL1  H11B   36   2.074   3.235   9.736  0.3395  0.6332 -0.1865
    1CHL1    C9   37   1.974   3.389   9.865  0.5511  0.6421  0.5359
    1CHL1    H9   38   2.073   3.440   9.868  1.2622 -0.6429 -0.6698
    1CHL1   C10   39   1.971   3.313  10.000  0.6893 -0.2695  0.1897
    1CHL1   C19   40   1.853   3.210   9.999 -0.0948  0.5289  0.4825
    1CHL1  H19A   41   1.899   3.119   9.955 -1.5270 -0.0437  0.1700
    1CHL1  H19B   42   1.803   3.195  10.097  1.5485  0.8939  1.3946
    1CHL1  H19C   43   1.767   3.244   9.938 -0.3299 -0.1576  0.4231
    1CHL1    C1   44   2.107   3.244  10.036 -0.7798  0.1572  0.0702
    1CHL1   H1A   45   2.114   3.158   9.966  1.3270  0.9297 -0.6854
    1CHL1   H1B   46   2.188   3.315  10.010 -0.3210 -0.1196  0.7358
    1CHL1    C2   47   2.116   3.189  10.178 -0.3652  0.0894  0.1003
    1CHL1   H2A   48   2.216   3.140  10.184  0.0577  0.9127 -0.0889
    1CHL1   H2B   49   2.037   3.112  10.185  0.1191 -0.8702 -3.8036
    1CHL1   C20   50   1.838   3.527   9.340  0.3592 -0.2169  0.2421
    1CHL1   H20   51   1.730   3.499   9.341  0.8540 -2.2191  2.9315
    1CHL1   C21   52   1.914   3.405   9.289  0.4210  0.0273  0.0805
    1CHL1  H21A   53   1.901   3.391   9.179  0.4185 -0.7485  0.1771
    1CHL1  H21B   54   1.879   3.315   9.343 -0.2630 -0.3773 -1.0234
    1CHL1  H21C   55   2.019   3.428   9.319  0.1556  2.2492 -0.5973
    1CHL1   C22   56   1.862   3.628   9.225  0.4856 -0.2480  0.2851
    1CHL1  H22A   57   1.962   3.676   9.226 -0.1539  1.2207 -2.4422
    1CHL1  H22B   58   1.854   3.585   9.122 -2.8910  0.1390  0.3422
    1CHL1   C23   59   1.764   3.742   9.217 -0.2145 -0.1780 -0.4347
    1CHL1  H23A   60   1.666   3.693   9.237  0.8392 -1.8740  0.6402
    1CHL1  H23B   61   1.787   3.808   9.303  0.8653  1.5356 -1.9899
    1CHL1   C24   62   1.760   3.822   9.082 -0.1661  0.6717 -0.5713
    1CHL1  H24A   63   1.860   3.868   9.069  0.3108 -0.9794 -2.9984
    1CHL1  H24B   64   1.745   3.747   9.001  0.3126  1.5733 -1.5163
    1CHL1   C25   65   1.645   3.932   9.063  0.5215 -0.9099 -0.2587
    1CHL1   H25   66   1.546   3.884   9.078 -0.4211  0.9528 -0.4195
    1CHL1   C26   67   1.653   4.036   9.178 -0.5096 -0.4278 -0.1950
    1CHL1  H26A   68   1.589   4.126   9.165  0.2083  0.3409  1.4855
    1CHL1  H26B   69   1.631   3.999   9.281 -0.8987 -2.0079 -0.8415
    1CHL1  H26C   70   1.756   4.078   9.183 -0.5052 -0.3593 -0.8842
    1CHL1   C27   71   1.661   3.997   8.931 -1.5705 -0.3692 -0.0601
    1CHL1  H27A   72   1.657   3.924   8.847 -1.1521  0.5882 -0.9300
    1CHL1  H27B   73   1.582   4.071   8.908  0.0967  1.0733 -1.3416
    1CHL1  H27C   74   1.747   4.062   8.905 -1.6509 -0.6638 -1.0840
    2CHL1    C3   75   3.546   1.343  10.032  0.3488 -0.0623  0.7309
    2CHL1    H3   76   3.519   1.239  10.002  0.1260  0.2920 -0.3204
    2CHL1    O3   77   3.555   1.347  10.172 -0.5195  0.4256  0.1515
    2CHL1   H3'   78   3.469   1.355  10.214  0.7149  1.2950  2.6266
    2CHL1    C4   79   3.679   1.383   9.975 -0.5763  0.8054  0.6000
    2CHL1   H4A   80   3.709   1.482  10.016 -1.5670  0.9227  1.0486
    2CHL1   H4B   81   3.752   1.306  10.010 -0.7437  1.0558  1.5140
    2CHL1    C5   82   3.668   1.388   9.825 -0.0924  0.7857  1.0388
    2CHL1    C6   83   3.736   1.314   9.743 -0.5040 -0.3195  0.0069
    2CHL1    H6   84   3.817   1.249   9.781 -0.6482 -0.8587 -0.5906
    2CHL1    C7   85   3.740   1.319   9.592  0.4936  0.9105 -0.3058
    2CHL1   H7A   86   3.848   1.332   9.572  0.9373 -1.6863  0.1570
    2CHL1   H7B   87   3.713   1.235   9.523  0.8277 -0.9486  1.7686
    2CHL1    C8   88   3.662   1.439   9.540  0.2866  0.0832 -0.7034
    2CHL1    H8   89   3.714   1.535   9.558 -2.3735  1.4914 -0.3258
    2CHL1   C14   90   3.638   1.413   9.393  0.6525  0.3168  0.2959
    2CHL1   H14   91   3.581   1.318   9.391  2.0687 -0.5147 -1.0551
    2CHL1   C15   92   3.753   1.403   9.301  0.4266  0.1218  0.3963
    2CHL1  H15A   93   3.836   1.476   9.315  1.5440 -0.8801 -0.8723
    2CHL1  H15B   94   3.805   1.305   9.293 -0.1600 -0.1814  0.2819
    2CHL1   C16   95   3.688   1.420   9.160 -0.2346 -0.3248 -0.0847
    2CHL1  H16A   96   3.750   1.483   9.093  0.2729  0.2723  0.9416
    2CHL1  H16B   97   3.681   1.324   9.104  1.7432  0.1370 -1.1531
    2CHL1   C17   98   3.547   1.480   9.184  0.2428 -0.2233  0.1317
    2CHL1   H17   99   3.476   1.395   9.173 -1.1508  1.0673 -1.0367
    2CHL1   C13  100   3.543   1.520   9.327 -0.5612  0.7906 -0.6879
    2CHL1   C18  101   3.610   1.662   9.340 -0.3437 -0.0189  0.6305
    2CHL1  H18A  102   3.544   1.740   9.296  1.4789  0.3630 -1.5511
    2CHL1  H18B  103   3.622   1.693   9.446  0.6729 -1.3388  0.9133
    2CHL1  H18C  104   3.708   1.676   9.289 -2.1606 -1.4446 -3.4855
    2CHL1   C12  105   3.410   1.519   9.394 -0.3151  0.0729  0.6123
    2CHL1  H12A  106   3.338   1.584   9.339 -2.4069 -1.3593  1.5622
    2CHL1  H12B  107   3.371   1.417   9.374  0.8493 -0.5285  1.3323
    2CHL1   C11  108   3.422   1.535   9.548  0.7204  0.6837 -0.7190
    2CHL1  H11A  109   3.446   1.643   9.560  1.2174  0.3074  2.0173
    2CHL1  H11B  110   3.320   1.526   9.591  1.4355  2.5211  1.4048
    2CHL1    C9  111   3.524   1.441   9.614 -0.2166  0.0900  0.9035
    2CHL1    H9  112   3.475   1.343   9.600 -1.1657  0.7338 -0.3453
    2CHL1   C10  113   3.547   1.475   9.769  0.5831  0.9649  0.4303
    2CHL1   C19  114   3.580   1.628   9.790 -0.0468 -0.5393  0.3205
    2CHL1  H19A  115   3.627   1.657   9.886  0.1300 -0.5485  0.2372
    2CHL1  H19B  116   3.651   1.653   9.709  0.1323  0.6099  0.8260
    2CHL1  H19C  117   3.488   1.691   9.788  0.2835 -0.0851 -1.2648
    2CHL1    C1  118   3.416   1.446   9.843  0.6129 -0.4663 -0.2028
    2CHL1   H1A  119   3.349   1.534   9.831  1.9876  0.4554 -1.2837
    2CHL1   H1B  120   3.369   1.351   9.809  0.5158  0.0874 -1.6795
    2CHL1    C2  121   3.437   1.439   9.991  0.0923  0.0081  0.0374
    2CHL1   H2A  122   3.336   1.402  10.021 -0.4740  1.3018 -0.2103
    2CHL1   H2B  123   3.455   1.540  10.034  1.4138  0.3100 -1.2123
    2CHL1   C20  124   3.511   1.577   9.075  0.3827  0.5551 -0.0277
    2CHL1   H20  125   3.569   1.668   9.102  1.0568  0.0861  0.1216
    2CHL1   C21  126   3.357   1.618   9.091  0.5737 -0.5261 -0.0379
    2CHL1  H21A  127   3.353   1.695   9.170 -2.2287 -1.5885  0.9420
    2CHL1  H21B  128   3.289   1.533   9.114 -1.9158  0.8474 -2.0243
    2CHL1  H21C  129   3.325   1.660   8.993  0.5495 -0.5869 -0.0559
    2CHL1   C22  130   3.530   1.527   8.931 -0.1137 -0.4661  0.0755
    2CHL1  H22A  131   3.500   1.610   8.863  0.9380 -1.0167 -1.0833
    2CHL1  H22B  132   3.638   1.516   8.910 -0.6478 -2.8014 -1.7094
    2CHL1   C23  133   3.474   1.396   8.887 -0.1274 -0.6185  0.1772
    2CHL1  H23A  134   3.524   1.313   8.941 -0.1188 -0.7829 -0.0886
    2CHL1  H23B  135   3.363   1.392   8.901 -0.5961  2.1712 -2.1587
    2CHL1   C24  136   3.498   1.373   8.732  0.4870 -0.2600  0.1801
    2CHL1  H24A  137   3.466   1.463   8.676 -0.1595 -0.3597  0.3839
    2CHL1  H24B  138   3.607   1.355   8.724 -0.0740 -3.7775 -0.8290
    2CHL1   C25  139   3.424   1.244   8.675 -0.2397 -0.4064 -0.1016
    2CHL1   H25  140   3.458   1.231   8.570 -0.4449 -0.5358 -0.1517
    2CHL1   C26  141   3.444   1.115   8.756  0.1037 -0.0416  0.0855
    2CHL1  H26A  142   3.395   1.029   8.707 -0.0569 -0.3595  0.7973
    2CHL1  H26B  143   3.553   1.097   8.771  0.7395  2.2475 -1.5128
    2CHL1  H26C  144   3.406   1.138   8.858 -2.5986 -1.7678 -0.4940
    2CHL1   C27  145   3.268   1.252   8.664  0.0474  0.1586  0.0610
    2CHL1  H27A  146   3.221   1.287   8.758  2.6693  1.3592  0.9990
    2CHL1  H27B  147   3.248   1.320   8.579 -2.7204 -0.0425  0.5211
    2CHL1  H27C  148   3.219   1.156   8.640  1.8052 -0.5773 -0.7091
    3CHL1    C3  149   4.050   0.888  10.283  0.7130  0.3050  0.3660
    3CHL1    H3  150   4.161   0.880  10.281  0.8793  2.6508 -1.6905
    3CHL1    O3  151   4.017   0.885  10.418 -0.0185 -0.0770 -0.2916
    3CHL1   H3'  152   4.093   0.922  10.463  0.2845 -0.5014 -0.4575
    3CHL1    C4  153   4.012   1.030  10.231 -0.1152  0.8816  0.1309
    3CHL1   H4A  154   3.905   1.055  10.246 -0.4854 -1.4041  1.5542
    3CHL1   H4B  155   4.064   1.112  10.285 -0.9894  0.9076  0.9355
    3CHL1    C5  156   4.043   1.028  10.083 -0.6661  0.3727  0.9004
    3CHL1    C6  157   4.119   1.128  10.034 -0.0351  0.3619  0.2762
    3CHL1    H6  158   4.175   1.204  10.089  1.0325 -0.4037  0.2617
    3CHL1    C7  159   4.153   1.147   9.898  0.2068  0.2490 -0.5372
    3CHL1   H7A  160   4.126   1.251   9.868 -1.0836  0.1428  0.1913
    3CHL1   H7B  161   4.261   1.128   9.881  0.5164  0.2027  1.3989
    3CHL1    C8  162   4.083   1.048   9.803 -1.1024  0.2200 -0.1690
    3CHL1    H8  163   3.982   1.089   9.781 -1.3515 -0.0846  0.3953
    3CHL1   C14  164   4.162   1.025   9.674 -0.5129  0.3646 -0.2292
    3CHL1   H14  165   4.255   0.970   9.699 -1.4557 -0.7890  0.8594
    3CHL1   C15  166   4.218   1.156   9.611  0.3717  0.3074  0.7287
    3CHL1  H15A  167   4.142   1.237   9.620 -0.2849 -0.0003 -1.6792
    3CHL1  H15B  168   4.316   1.172   9.660  1.0434 -3.1746  0.6676
    3CHL1   C16  169   4.226   1.120   9.464 -0.3451  0.4931  0.0686
    3CHL1  H16A  170   4.151   1.178   9.407  0.8066  2.8979  0.9321
    3CHL1  H16B  171   4.325   1.152   9.426 -1.4407  0.8840 -2.5403
    3CHL1   C17  172   4.186   0.970   9.450  0.9743  0.0084  0.2681
    3CHL1   H17  173   4.275   0.913   9.483  0.6245 -0.7353 -0.0715
    3CHL1   C13  174   4.084   0.949   9.568 -0.2530  0.2246  0.3694
    3CHL1   C18  175   3.953   1.011   9.521  0.8804  0.1688  0.2801
    3CHL1  H18A  176   3.882   1.021   9.606  1.5801  0.8919  0.7861
    3CHL1  H18B  177   3.966   1.111   9.474  1.2594  0.3464  0.7533
    3CHL1  H18C  178   3.900   0.946   9.449  3.6062 -0.3232 -1.3334
    3CHL1   C12  179   4.074   0.807   9.628 -0.5409  0.2571 -0.6385
    3CHL1  H12A  180   4.026   0.732   9.562  0.3131 -0.3308 -0.6056
    3CHL1  H12B  181   4.175   0.761   9.643 -0.3370  0.4571 -1.3568
    3CHL1   C11  182   3.998   0.806   9.757  0.0047 -0.5627  0.3539
    3CHL1  H11A  183   3.896   0.836   9.724  1.0254  1.8421 -0.7467
    3CHL1  H11B  184   3.993   0.702   9.796  4.1755 -0.8156  0.4033
    3CHL1    C9  185   4.059   0.906   9.859 -0.3851 -0.3526  0.3430
    3CHL1    H9  186   4.161   0.871   9.884  0.1225  0.4437 -0.5887
    3CHL1   C10  187   3.990   0.910  10.000  0.2656 -0.5224 -0.4986
    3CHL1   C19  188   3.842   0.913   9.979 -0.1101 -1.4485 -0.4733
    3CHL1  H19A  189   3.791   0.831   9.924 -3.9458 -0.4760  1.4803
    3CHL1  H19B  190   3.784   0.925  10.073  1.2711  3.0888 -0.0562
    3CHL1  H19C  191   3.820   1.008   9.925 -0.0169 -0.6274  0.8908
    3CHL1    C1  192   4.009   0.774  10.066 -0.6284  0.8821 -0.4912
    3CHL1   H1A  193   3.949   0.696  10.015 -0.8955  2.4758 -2.7063
    3CHL1   H1B  194   4.115   0.741  10.062 -0.4274  1.1325  2.3977
    3CHL1    C2  195   3.974   0.781  10.214 -0.1473  0.4583 -0.0813
    3CHL1   H2A  196   4.006   0.682  10.254 -1.2904 -0.5695 -1.6378
    3CHL1   H2B  197   3.867   0.779  10.246  0.2993  0.3693  1.4358
    3CHL1   C20  198   4.150   0.921   9.307  0.6082 -0.4542 -0.5294
    3CHL1   H20  199   4.051   0.961   9.278 -0.1723 -1.3604  0.8687
    3CHL1   C21  200   4.138   0.764   9.307 -0.3758 -0.2345 -0.5082
    3CHL1  H21A  201   4.132   0.722   9.204  0.0278  0.2429 -0.7253
    3CHL1  H21B  202   4.044   0.732   9.358 -0.2031  0.8408  0.5173
    3CHL1  H21C  203   4.229   0.729   9.359 -0.5368  2.6043  1.8039
    3CHL1   C22  204   4.255   0.981   9.204  0.5839  0.0032 -0.2639
    3CHL1  H22A  205   4.237   1.087   9.177 -0.6846 -0.3870 -1.0025
    3CHL1  H22B  206   4.350   0.981   9.261  1.5583  1.5295 -1.8541
    3CHL1   C23  207   4.293   0.900   9.082  0.3628 -0.1282 -0.6995
    3CHL1  H23A  208   4.350   0.810   9.113 -0.4306 -0.9517 -1.5922
    3CHL1  H23B  209   4.200   0.867   9.030 -0.1610 -0.0340  0.1704
    3CHL1   C24  210   4.382   0.973   8.983 -0.7336  0.6061 -0.0158
    3CHL1  H24A  211   4.316   1.047   8.932 -0.9983  0.1219 -0.3773
    3CHL1  H24B  212   4.466   1.034   9.022 -0.4157  1.1183 -1.4510
    3CHL1   C25  213   4.452   0.877   8.886  0.4998 -0.0703 -0.6241
    3CHL1   H25  214   4.372   0.813   8.842 -1.7419  2.2041  0.0256
    3CHL1   C26  215   4.508   0.950   8.760  0.3597  0.9875  0.4839
    3CHL1  H26A  216   4.424   1.013   8.724 -0.3260  0.8810  1.8750
    3CHL1  H26B  217   4.604   1.003   8.774  0.2981  1.3669 -0.4728
    3CHL1  H26C  218   4.523   0.873   8.680  0.0121  0.0219  1.3370
    3CHL1   C27  219   4.563   0.785   8.940 -0.7412  0.4477  0.0380
    3CHL1  H27A  220   4.645   0.856   8.965 -1.0294  0.1644  1.8893
    3CHL1  H27B  221   4.529   0.719   9.023  1.1558 -1.5476 -0.7170
    3CHL1  H27C  222   4.603   0.723   8.857  1.1694 -1.7616  2.5276
    4CHL1    C3  223   3.277   2.763  10.513  0.9962 -0.3933  0.5486
    4CHL1    H3  224   3.361   2.831  10.488 -0.0971 -0.0066 -2.3088
    4CHL1    O3  225   3.285   2.730  10.652 -0.1544  0.2991  0.1123
    4CHL1   H3'  226   3.356   2.664  10.648  1.5046  2.0872 -1.1745
    4CHL1    C4  227   3.149   2.851  10.482  0.9172  0.2621 -0.4404
    4CHL1   H4A  228   3.063   2.796  10.526  1.1739  0.5509  0.4330
    4CHL1   H4B  229   3.148   2.946  10.539 -2.0349  0.2953 -0.4365
    4CHL1    C5  230   3.130   2.876  10.334 -0.2523 -0.0573 -0.1010
    4CHL1    C6  231   3.117   3.000  10.293  0.7176  0.8863  0.1193
    4CHL1    H6  232   3.120   3.083  10.365  2.1027 -0.8725  2.1442
    4CHL1    C7  233   3.095   3.042  10.148  0.0508 -0.1373 -0.2184
    4CHL1   H7A  234   3.025   3.128  10.151 -0.9154 -0.7928 -2.7787
    4CHL1   H7B  235   3.193   3.083  10.112 -1.1550  1.3978 -1.8364
    4CHL1    C8  236   3.049   2.925  10.059  0.5563 -0.3449  0.0195
    4CHL1    H8  237   2.941   2.906  10.081 -0.2220  2.3021 -1.3068
    4CHL1   C14  238   3.074   2.961   9.910  0.7310 -0.5711  0.4921
    4CHL1   H14  239   3.184   2.977   9.915  0.6630  0.2421 -0.6052
    4CHL1   C15  240   3.012   3.087   9.852 -1.2546 -0.3390 -0.4441
    4CHL1  H15A  241   2.901   3.088   9.855 -1.2693 -0.9525 -0.7260
    4CHL1  H15B  242   3.042   3.184   9.897 -0.4792 -2.5038  4.0006
    4CHL1   C16  243   3.056   3.087   9.700  0.1834  0.3119 -0.3721
    4CHL1  H16A  244   2.967   3.131   9.651  0.1434 -1.7944 -2.2782
    4CHL1  H16B  245   3.149   3.146   9.685  0.1474  0.2417 -0.8940
    4CHL1   C17  246   3.083   2.932   9.667  0.4104  0.0205  0.1304
    4CHL1   H17  247   3.192   2.917   9.656  0.6144  1.4578  0.1118
    4CHL1   C13  248   3.053   2.853   9.806  0.0116  0.9040 -0.2165
    4CHL1   C18  249   2.900   2.823   9.816 -0.1553 -0.2111  0.8345
    4CHL1  H18A  250   2.861   2.798   9.918 -0.9531  2.3497  1.1914
    4CHL1  H18B  251   2.835   2.900   9.772  0.8180 -1.0250 -2.1325
    4CHL1  H18C  252   2.882   2.732   9.755 -3.6911  0.1070  1.3225
    4CHL1   C12  253   3.140   2.728   9.837  0.7178 -0.4423 -0.0107
    4CHL1  H12A  254   3.131   2.639   9.771  1.0873 -0.5645  0.1023
    4CHL1  H12B  255   3.244   2.764   9.819  0.5812  0.4496  0.9694
    4CHL1   C11  256   3.131   2.682   9.981 -0.3421 -0.6289  0.5497
    4CHL1  H11A  257   3.036   2.625   9.992 -0.4533 -0.1188  2.2979
    4CHL1  H11B  258   3.208   2.604   9.998 -1.0409 -1.4097  0.2162
    4CHL1    C9  259   3.143   2.802  10.086  0.1510 -0.8437  0.1992
    4CHL1    H9  260   3.249   2.833  10.074 -0.7730  2.2699 -0.3293
    4CHL1   C10  261   3.137   2.752  10.235  1.0730 -0.2969  0.4380
    4CHL1   C19  262   3.008   2.668  10.256 -0.2880  0.0346 -0.2261
    4CHL1  H19A  263   2.992   2.631  10.359 -2.5826  0.8156 -0.2809
    4CHL1  H19B  264   2.912   2.714  10.224  0.2201  0.3939 -1.2771
    4CHL1  H19C  265   3.018   2.579  10.190 -1.0480  0.8204 -1.4202
    4CHL1    C1  266   3.269   2.687  10.279 -0.4357  0.0294 -0.8189
    4CHL1   H1A  267   3.305   2.608  10.210 -2.6095 -1.1730 -0.6159
    4CHL1   H1B  268   3.348   2.762  10.255 -1.6559  1.0858 -1.5726
    4CHL1    C2  269   3.273   2.635  10.424  0.0810 -0.1706  0.3269
    4CHL1   H2A  270   3.360   2.570  10.446  0.9017  1.1842  1.1656
    4CHL1   H2B  271   3.176   2.585  10.446  1.8424 -3.9188  0.0185
    4CHL1   C20  272   3.013   2.895   9.542  0.3933  0.1754 -0.2252
    4CHL1   H20  273   2.904   2.914   9.551  0.2421 -0.8784  0.2789
    4CHL1   C21  274   3.023   2.741   9.514 -0.0013  0.3239 -0.0800
    4CHL1  H21A  275   3.131   2.717   9.516 -0.3454 -1.1398  1.7111
    4CHL1  H21B  276   2.979   2.715   9.415  0.1838  0.9832 -0.3377
    4CHL1  H21C  277   2.979   2.675   9.591  2.3788 -0.7961  0.3623
    4CHL1   C22  278   3.063   2.977   9.414  0.9822  0.6390  0.9775
    4CHL1  H22A  279   3.058   3.085   9.437  0.4276  0.1373  3.3640
    4CHL1  H22B  280   3.169   2.952   9.393  0.1757  0.0947 -2.8637
    4CHL1   C23  281   2.982   2.952   9.283 -0.3244 -0.0761 -0.4459
    4CHL1  H23A  282   3.018   2.860   9.231  0.1870  0.7069 -1.4814
    4CHL1  H23B  283   2.872   2.944   9.301 -0.2237  0.2939  0.3781
    4CHL1   C24  284   3.012   3.052   9.172  0.3599 -0.0799 -0.8274
    4CHL1  H24A  285   2.965   3.150   9.195 -1.3075 -1.0021 -0.2625
    4CHL1  H24B  286   3.121   3.054   9.147  0.5118  0.5183 -0.1152
    4CHL1   C25  287   2.935   3.004   9.042  0.4229 -0.8743 -0.7400
    4CHL1   H25  288   2.829   2.988   9.071  0.7095 -0.2468  0.6806
    4CHL1   C26  289   2.946   3.108   8.928 -0.8770  0.3057 -0.2228
    4CHL1  H26A  290   2.887   3.077   8.839 -0.7701 -0.3198 -0.0742
    4CHL1  H26B  291   2.913   3.210   8.958 -1.0820  0.3615 -0.6263
    4CHL1  H26C  292   3.054   3.117   8.901 -0.2546  0.0963  2.1520
    4CHL1   C27  293   2.978   2.870   8.981  0.3905  0.5457 -0.4188
    4CHL1  H27A  294   3.074   2.859   9.036  0.7067  2.3771 -0.5810
    4CHL1  H27B  295   2.908   2.790   9.011 -0.3181  0.3746 -2.4455
    4CHL1  H27C  296   3.013   2.878   8.876 -1.5288  0.4836 -1.0688
    5CHL1    C3  297   4.519   0.820  10.301  0.3101  0.6684  0.2381
    5CHL1    H3  298   4.408   0.814  10.305  0.4161 -2.3985  0.2126
    5CHL1    O3  299   4.558   0.793  10.436 -0.1891 -0.1520  0.0989
    5CHL1   H3'  300   4.647   0.762  10.418 -1.7422 -3.7208 -2.0167
    5CHL1    C4  301   4.587   0.715  10.210 -0.6436 -0.7763 -0.1892
    5CHL1   H4A  302   4.696   0.709  10.230 -0.9002  0.0058  1.5177
    5CHL1   H4B  303   4.544   0.614  10.225  0.1838 -1.5070 -2.4038
    5CHL1    C5  304   4.579   0.748  10.060 -0.8564  0.4194  0.3643
    5CHL1    C6  305   4.531   0.660   9.969 -0.1492  0.0913 -0.1623
    5CHL1    H6  306   4.497   0.560   9.997  1.6638  0.2495  2.7661
    5CHL1    C7  307   4.543   0.682   9.814 -0.5990 -0.3907  0.1686
    5CHL1   H7A  308   4.584   0.597   9.756 -0.7336 -1.1983  1.2504
    5CHL1   H7B  309   4.438   0.694   9.781 -0.9147  1.2510  1.6704
    5CHL1    C8  310   4.626   0.808   9.779 -0.0846  0.3031 -0.1463
    5CHL1    H8  311   4.735   0.787   9.785  0.0656  0.6706 -1.5539
    5CHL1   C14  312   4.596   0.861   9.637 -0.9322 -0.4490 -0.0769
    5CHL1   H14  313   4.489   0.892   9.640 -0.6146  0.8571 -1.6447
    5CHL1   C15  314   4.607   0.758   9.520 -0.0124 -0.7873 -0.5753
    5CHL1  H15A  315   4.685   0.681   9.540 -0.9097 -1.4439  0.4966
    5CHL1  H15B  316   4.512   0.712   9.486 -0.3981 -0.2322 -0.2476
    5CHL1   C16  317   4.658   0.844   9.404 -0.3039 -0.3681 -0.3594
    5CHL1  H16A  318   4.758   0.803   9.380  1.0818  3.1330 -0.8058
    5CHL1  H16B  319   4.598   0.836   9.310  1.2156  0.4619 -1.4238
    5CHL1   C17  320   4.646   0.992   9.443  0.5454 -0.0395 -0.8341
    5CHL1   H17  321   4.540   1.021   9.426  0.8591  1.4527 -0.3189
    5CHL1   C13  322   4.682   0.986   9.598 -0.0984 -1.0112 -0.0690
    5CHL1   C18  323   4.828   0.944   9.618  0.0138 -0.6004  0.0785
    5CHL1  H18A  324   4.851   0.852   9.559 -1.1126 -0.9331  0.1472
    5CHL1  H18B  325   4.899   1.022   9.583  0.2272  0.4079  2.6424
    5CHL1  H18C  326   4.842   0.926   9.726 -1.1490 -1.0449  0.1575
    5CHL1   C12  327   4.637   1.100   9.687  0.5811 -0.1118 -0.0180
    5CHL1  H12A  328   4.704   1.187   9.669  0.7397 -0.6985 -2.4321
    5CHL1  H12B  329   4.537   1.146   9.668  1.2991  2.0815  1.2924
    5CHL1   C11  330   4.658   1.059   9.840 -0.0313 -0.8293  0.3603
    5CHL1  H11A  331   4.767   1.049   9.856  0.5229  0.6320 -2.1273
    5CHL1  H11B  332   4.618   1.140   9.905  4.3470  0.0586  2.0700
    5CHL1    C9  333   4.593   0.922   9.883 -0.2847 -0.6121  0.6823
    5CHL1    H9  334   4.482   0.926   9.882 -0.4509 -3.8956  1.4722
    5CHL1   C10  335   4.628   0.888  10.031 -0.0757  0.6267 -0.6211
    5CHL1   C19  336   4.786   0.885  10.043  0.3602 -0.6106  0.2069
    5CHL1  H19A  337   4.838   0.855   9.949  1.0954  2.2082 -0.3309
    5CHL1  H19B  338   4.811   0.993  10.053  0.9341 -0.6545 -0.6523
    5CHL1  H19C  339   4.832   0.832  10.129 -0.2027 -1.1860  0.1633
    5CHL1    C1  340   4.557   0.992  10.116 -0.2353 -0.2348  0.3435
    5CHL1   H1A  341   4.619   1.085  10.117 -0.4992 -0.0600  1.3778
    5CHL1   H1B  342   4.452   1.011  10.087 -0.1947 -2.0275 -1.0185
    5CHL1    C2  343   4.570   0.954  10.266 -0.4223  0.9727  0.3386
    5CHL1   H2A  344   4.514   1.026  10.329 -1.8227 -0.0320  0.2433
    5CHL1   H2B  345   4.679   0.965  10.283 -0.2200  0.0122 -0.2637
    5CHL1   C20  346   4.732   1.080   9.355 -0.2217 -0.0699  0.1184
    5CHL1   H20  347   4.838   1.052   9.373  0.2243  1.8449  0.6213
    5CHL1   C21  348   4.712   1.221   9.412  0.6677  0.3700 -0.0200
    5CHL1  H21A  349   4.758   1.304   9.354  1.8666  1.0581  1.8783
    5CHL1  H21B  350   4.759   1.247   9.509  1.2489  1.0745 -0.4783
    5CHL1  H21C  351   4.604   1.243   9.424  0.6407  0.0627  0.2870
    5CHL1   C22  352   4.713   1.064   9.199  0.5659  0.5592  0.2830
    5CHL1  H22A  353   4.693   0.960   9.167  0.7098  1.0071 -1.2993
    5CHL1  H22B  354   4.619   1.120   9.176 -1.3349 -1.8731  1.9143
    5CHL1   C23  355   4.830   1.125   9.123  0.3776  0.5945  0.4075
    5CHL1  H23A  356   4.843   1.236   9.126 -3.3539  1.1124 -0.3624
    5CHL1  H23B  357   4.924   1.097   9.175  0.0190  1.8422  1.7469
    5CHL1   C24  358   4.838   1.086   8.977 -0.1198  0.0753  0.6766
    5CHL1  H24A  359   4.828   0.975   8.967  1.3199 -0.1120  1.1843
    5CHL1  H24B  360   4.751   1.128   8.923 -1.8954  0.0009  3.4199
    5CHL1   C25  361   4.974   1.124   8.914  0.0568  0.5568  1.0036
    5CHL1   H25  362   5.006   1.222   8.953 -1.4042  0.8395  1.5456
    5CHL1   C26  363   5.081   1.025   8.936  0.5373 -0.2805  0.2749
    5CHL1  H26A  364   5.041   0.922   8.950 -1.4436  0.1116 -2.2113
    5CHL1  H26B  365   5.147   1.037   8.848  0.2498 -1.1861 -0.0758
    5CHL1  H26C  366   5.136   1.040   9.032 -2.8199 -1.3199  2.4516
    5CHL1   C27  367   4.950   1.131   8.759 -0.7617  0.4022  0.2428
    5CHL1  H27A  368   5.048   1.121   8.707 -1.0614 -1.9412  0.0640
    5CHL1  H27B  369   4.892   1.042   8.726 -0.7594  0.0309  1.2403
    5CHL1  H27C  370   4.883   1.217   8.736 -2.6094 -0.5356  1.9440
    6CHL1    C3  371   2.014   4.941  10.344 -0.1647 -0.1014 -0.0426
    6CHL1    H3  372   1.904   4.933  10.338 -0.0701  0.0037 -2.2662
    6CHL1    O3  373   2.052   4.959  10.478  0.2946  0.3942  0.2582
    6CHL1   H3'  374   2.093   4.880  10.516 -0.0777  0.4283  0.7327
    6CHL1    C4  375   2.090   4.827  10.278 -0.0659 -0.4061 -0.0984
    6CHL1   H4A  376   2.197   4.834  10.307 -0.8874  1.5257  2.6883
    6CHL1   H4B  377   2.071   4.731  10.330 -0.4217  0.6511  1.7610
    6CHL1    C5  378   2.068   4.831  10.124 -0.5343  0.3603 -0.3950
    6CHL1    C6  379   2.033   4.712  10.057  0.5990  0.1987 -0.8276
    6CHL1    H6  380   2.019   4.621  10.118 -1.3861  2.0195  1.4970
    6CHL1    C7  381   2.024   4.706   9.902 -0.5945  0.2527 -0.0134
    6CHL1   H7A  382   2.071   4.616   9.857 -1.8185 -1.1051  1.3614
    6CHL1   H7B  383   1.916   4.692   9.879 -0.2506 -0.4754 -1.2216
    6CHL1    C8  384   2.078   4.834   9.829 -0.2097  0.5225 -0.5422
    6CHL1    H8  385   2.189   4.821   9.831 -0.1937 -0.5849 -4.5514
    6CHL1   C14  386   2.027   4.843   9.684 -0.3396 -0.6077 -0.0091
    6CHL1   H14  387   1.920   4.870   9.691 -0.6000 -2.0295  1.7170
    6CHL1   C15  388   2.035   4.707   9.605  0.0067  0.2058 -0.6707
    6CHL1  H15A  389   2.137   4.670   9.625 -0.3198 -0.4545 -0.2323
    6CHL1  H15B  390   1.963   4.634   9.647 -0.8240  1.3928  0.0012
    6CHL1   C16  391   2.025   4.758   9.458  0.6464  0.4828  0.0682
    6CHL1  H16A  392   2.110   4.715   9.401 -1.6425 -1.5783 -1.9229
    6CHL1  H16B  393   1.928   4.721   9.419  1.3019 -0.5284 -0.6233
    6CHL1   C17  394   2.037   4.914   9.456  0.5294  0.5661  0.4734
    6CHL1   H17  395   1.927   4.931   9.459 -0.2385 -3.1973 -2.2806
    6CHL1   C13  396   2.100   4.952   9.596 -0.2052 -0.4580 -0.3583
    6CHL1   C18  397   2.247   4.930   9.582 -0.3056 -0.0093  0.0525
    6CHL1  H18A  398   2.291   5.017   9.530  0.3452  0.8286  1.9653
    6CHL1  H18B  399   2.305   4.927   9.676  0.6838 -0.6926 -0.5787
    6CHL1  H18C  400   2.282   4.835   9.537  1.8494 -0.5580  2.7527
    6CHL1   C12  401   2.061   5.088   9.658  1.1595  0.2149 -0.0060
    6CHL1  H12A  402   2.118   5.170   9.610  2.5789 -1.8130 -1.8183
    6CHL1  H12B  403   1.952   5.108   9.645  0.4759 -0.1087  4.3227
    6CHL1   C11  404   2.095   5.094   9.808 -0.0047 -0.5288  0.3424
    6CHL1  H11A  405   2.206   5.097   9.810 -0.0249 -0.0571  3.0515
    6CHL1  H11B  406   2.051   5.187   9.850  0.5863  0.7636 -1.8744
    6CHL1    C9  407   2.042   4.965   9.897 -0.4210  0.0694 -0.1623
    6CHL1    H9  408   1.931   4.975   9.897 -0.3320  1.2504  1.7698
    6CHL1   C10  409   2.087   4.966  10.048  0.4888 -1.0388  0.0946
    6CHL1   C19  410   2.243   4.987  10.061 -0.0949 -0.1936  0.2261
    6CHL1  H19A  411   2.290   5.074  10.010  0.2387 -0.4072  0.1633
    6CHL1  H19B  412   2.277   4.993  10.167  1.5804  1.7043 -0.3767
    6CHL1  H19C  413   2.299   4.904  10.013 -0.4684 -1.0806  1.2985
    6CHL1    C1  414   2.005   5.073  10.132 -0.0896  0.0912  1.1686
    6CHL1   H1A  415   2.029   5.177  10.099 -0.3201  0.0231  0.7913
    6CHL1   H1B  416   1.894   5.070  10.124 -0.0502  1.1670  0.1496
    6CHL1    C2  417   2.046   5.079  10.285  0.1354  0.2228 -1.6180
    6CHL1   H2A  418   1.977   5.157  10.324  0.2110 -1.0039  1.0688
    6CHL1   H2B  419   2.153   5.106  10.301 -0.4118  0.7478  1.5222
    6CHL1   C20  420   2.106   4.965   9.324 -0.3804 -0.7055 -0.4278
    6CHL1   H20  421   2.213   4.935   9.328  0.6712  2.7854 -0.9111
    6CHL1   C21  422   2.096   5.118   9.327 -0.1561 -0.6759 -0.0926
    6CHL1  H21A  423   1.988   5.143   9.334 -0.5983 -2.3752 -0.4966
    6CHL1  H21B  424   2.124   5.167   9.231  3.3077 -1.0609  0.6596
    6CHL1  H21C  425   2.158   5.164   9.406 -0.3555 -1.4501  0.5225
    6CHL1   C22  426   2.041   4.904   9.194 -1.1502 -0.5867 -0.1742
    6CHL1  H22A  427   2.023   4.795   9.205  0.6403 -0.9118 -0.3048
    6CHL1  H22B  428   1.962   4.975   9.162 -0.2655  1.4170  1.8851
    6CHL1   C23  429   2.140   4.907   9.076 -0.1568 -0.1348  0.2842
    6CHL1  H23A  430   2.162   5.011   9.044  0.0010  0.1443  1.2671
    6CHL1  H23B  431   2.238   4.875   9.117  0.7399  1.5275 -0.5085
    6CHL1   C24  432   2.112   4.829   8.947  0.4957  0.6654  0.1418
    6CHL1  H24A  433   2.193   4.846   8.874 -0.1613  0.0169 -0.7518
    6CHL1  H24B  434   2.120   4.720   8.968 -2.0464 -0.4401 -4.1135
    6CHL1   C25  435   1.978   4.861   8.878  0.0864  0.6560 -0.7570
    6CHL1   H25  436   1.883   4.844   8.935  0.3304  0.0609 -0.5184
    6CHL1   C26  437   1.978   4.998   8.809  0.3321  0.1382  0.3943
    6CHL1  H26A  438   1.890   5.004   8.742  0.1224  0.2805  0.6784
    6CHL1  H26B  439   1.987   5.075   8.889 -0.9192  1.2596 -0.5191
    6CHL1  H26C  440   2.071   4.998   8.748 -0.3393  1.1902 -0.6495
    6CHL1   C27  441   1.948   4.762   8.760  0.0386 -0.1154 -0.4248
    6CHL1  H27A  442   2.036   4.780   8.695 -2.1196 -1.7923 -3.8957
    6CHL1  H27B  443   1.955   4.660   8.803 -0.9005 -0.3241 -0.7635
    6CHL1  H27C  444   1.860   4.788   8.697 -0.4481 -3.2255 -1.0998
    7CHL1    C3  445   5.757   1.555  10.372 -0.8660 -0.0842 -0.1585
    7CHL1    H3  446   5.845   1.487  10.369 -0.4859  0.3909  0.1717
    7CHL1    O3  447   5.735   1.590  10.505 -0.3552  0.6810 -1.0778
    7CHL1   H3'  448   5.663   1.653  10.500 -2.1122 -1.2288 -0.4296
    7CHL1    C4  449   5.802   1.688  10.305 -0.3115 -0.4148 -0.0317
    7CHL1   H4A  450   5.718   1.760  10.315  1.2287  1.8912 -2.9239
    7CHL1   H4B  451   5.896   1.723  10.352  0.4799 -0.5378 -1.4762
    7CHL1    C5  452   5.825   1.671  10.153  0.5365  0.0867  0.5751
    7CHL1    C6  453   5.941   1.701  10.090  0.5139  0.0025  0.5958
    7CHL1    H6  454   6.024   1.744  10.148  0.9978 -0.6827  0.4214
    7CHL1    C7  455   5.952   1.703   9.934  0.0850  0.1564  0.2970
    7CHL1   H7A  456   5.986   1.797   9.884  2.2659 -0.3979  0.6720
    7CHL1   H7B  457   6.035   1.630   9.922 -0.4609 -0.5947  1.1188
    7CHL1    C8  458   5.829   1.652   9.851 -0.2319  0.6924  0.0153
    7CHL1    H8  459   5.768   1.744   9.837 -0.7571  0.0993 -1.7302
    7CHL1   C14  460   5.866   1.578   9.726 -0.3313 -0.2957  0.0222
    7CHL1   H14  461   5.916   1.484   9.758 -2.0973 -1.5532 -0.7924
    7CHL1   C15  462   5.971   1.647   9.640  0.8500  0.3320  0.3646
    7CHL1  H15A  463   5.948   1.755   9.626 -1.2417 -0.2957 -1.3069
    7CHL1  H15B  464   6.065   1.613   9.688  1.9764  3.1896  0.2663
    7CHL1   C16  465   5.948   1.578   9.506  0.1680 -0.4570  0.7730
    7CHL1  H16A  466   5.931   1.654   9.427 -0.6436 -1.8522 -0.4211
    7CHL1  H16B  467   6.030   1.510   9.472  0.2123 -1.3332  2.5738
    7CHL1   C17  468   5.823   1.484   9.514  0.0190 -0.1519  0.6576
    7CHL1   H17  469   5.861   1.380   9.529 -0.2980 -0.3844 -0.0775
    7CHL1   C13  470   5.749   1.538   9.640 -0.7373  0.6028  0.7893
    7CHL1   C18  471   5.665   1.664   9.607 -0.3617 -0.9248 -0.3648
    7CHL1  H18A  472   5.579   1.646   9.539 -0.5770 -3.6626  0.5808
    7CHL1  H18B  473   5.623   1.700   9.703  0.1088  1.3994 -1.0137
    7CHL1  H18C  474   5.724   1.748   9.564 -0.2876 -0.5320  0.5024
    7CHL1   C12  475   5.662   1.438   9.721  0.6775  0.8890 -0.1518
    7CHL1  H12A  476   5.569   1.406   9.670  1.6208 -0.0119 -1.3365
    7CHL1  H12B  477   5.716   1.344   9.740 -3.3239 -1.3214  0.8571
    7CHL1   C11  478   5.626   1.483   9.865 -0.1638 -0.6610  0.0728
    7CHL1  H11A  479   5.542   1.554   9.847  1.1396  0.2776 -2.4320
    7CHL1  H11B  480   5.595   1.394   9.924 -1.8591  0.0556  0.2886
    7CHL1    C9  481   5.741   1.550   9.939 -0.8102  0.7912 -0.4964
    7CHL1    H9  482   5.815   1.468   9.954 -2.4662 -0.6952 -0.2900
    7CHL1   C10  483   5.704   1.605  10.076 -0.3265 -0.0703  0.2892
    7CHL1   C19  484   5.607   1.725  10.058  0.4501  0.4364 -0.2286
    7CHL1  H19A  485   5.659   1.821  10.034  1.3386 -0.3168 -1.4187
    7CHL1  H19B  486   5.532   1.702   9.979 -0.4429 -0.9060  0.9864
    7CHL1  H19C  487   5.550   1.740  10.152 -0.6721 -2.1403 -0.4447
    7CHL1    C1  488   5.647   1.487  10.155 -0.1496  0.7190 -0.6043
    7CHL1   H1A  489   5.549   1.472  10.107 -2.2489 -0.2358  3.6923
    7CHL1   H1B  490   5.720   1.405  10.135 -2.6138 -1.6844 -0.0040
    7CHL1    C2  491   5.629   1.511  10.306 -0.3036 -0.4035 -0.2611
    7CHL1   H2A  492   5.576   1.422  10.347 -0.6895  0.7579  1.8244
    7CHL1   H2B  493   5.551   1.590  10.313 -1.8780 -2.0012  0.9785
    7CHL1   C20  494   5.750   1.478   9.378 -0.3666  0.7833 -0.3236
    7CHL1   H20  495   5.714   1.581   9.356  0.0167  0.8374 -0.7138
    7CHL1   C21  496   5.632   1.379   9.369 -0.5716  0.5168  0.0862
    7CHL1  H21A  497   5.662   1.272   9.376 -0.5401  0.3211 -2.4107
    7CHL1  H21B  498   5.590   1.386   9.266  0.0734  1.4474 -0.1283
    7CHL1  H21C  499   5.551   1.399   9.442  1.5138  1.8405  2.1393
    7CHL1   C22  500   5.849   1.450   9.264 -0.4555 -0.1129  0.5272
    7CHL1  H22A  501   5.947   1.503   9.272 -0.5232  0.5829 -2.3804
    7CHL1  H22B  502   5.873   1.342   9.258 -1.9566 -0.3163 -3.5100
    7CHL1   C23  503   5.798   1.505   9.121  0.1900  0.2566  0.0750
    7CHL1  H23A  504   5.706   1.447   9.102 -1.4613  1.3632  4.0991
    7CHL1  H23B  505   5.764   1.610   9.133 -0.0997  0.1773 -0.0680
    7CHL1   C24  506   5.892   1.480   9.002 -0.4292 -0.4509  0.3626
    7CHL1  H24A  507   5.986   1.537   9.015  0.4576 -1.5905 -0.9939
    7CHL1  H24B  508   5.915   1.372   8.996  1.1807 -0.1468  0.9685
    7CHL1   C25  509   5.821   1.518   8.860 -0.5629 -0.5468 -0.1477
    7CHL1   H25  510   5.721   1.471   8.857  0.1086 -1.9637 -1.7541
    7CHL1   C26  511   5.812   1.674   8.854 -0.0002  0.4032 -0.4562
    7CHL1  H26A  512   5.907   1.718   8.893  0.7815 -0.1487 -1.6999
    7CHL1  H26B  513   5.780   1.700   8.751  0.3393 -0.7379 -0.8681
    7CHL1  H26C  514   5.733   1.688   8.931  0.0905  1.5536 -0.5747
    7CHL1   C27  515   5.897   1.462   8.733  0.3031 -0.5881  0.2531
    7CHL1  H27A  516   5.842   1.471   8.637 -0.6183 -0.5755  0.7778
    7CHL1  H27B  517   5.992   1.520   8.727  0.5333 -1.0423 -0.5300
    7CHL1  H27C  518   5.916   1.353   8.747 -1.6651 -1.1798 -1.4950
    8CHL1    C3  519   5.250   3.222  10.263 -0.2833  0.1491  1.1541
    8CHL1    H3  520   5.174   3.141  10.255 -0.2173  0.2202 -0.5639
    8CHL1    O3  521   5.282   3.248  10.402  0.1812 -0.0198  0.3625
    8CHL1   H3'  522   5.207   3.222  10.455  0.7152 -1.6554  0.3339
    8CHL1    C4  523   5.383   3.174  10.194  0.8660 -0.3638  0.1094
    8CHL1   H4A  524   5.467   3.246  10.202  2.5003 -2.2246 -0.1278
    8CHL1   H4B  525   5.406   3.082  10.251 -0.0253  0.5629  2.0332
    8CHL1    C5  526   5.352   3.144  10.052  0.0492 -0.6420  0.6011
    8CHL1    C6  527   5.377   3.023  10.002 -0.8093 -0.2519 -0.3742
    8CHL1    H6  528   5.415   2.938  10.061 -0.3478 -0.2740 -0.7042
    8CHL1    C7  529   5.346   2.973   9.867  0.1912 -1.3934 -0.0320
    8CHL1   H7A  530   5.421   2.901   9.828 -0.2662 -1.4233 -0.8747
    8CHL1   H7B  531   5.249   2.920   9.855 -0.0183 -1.5129  2.1193
    8CHL1    C8  532   5.345   3.096   9.768 -0.4211 -0.1436  0.1584
    8CHL1    H8  533   5.448   3.135   9.752 -1.7746  2.4768 -2.5377
    8CHL1   C14  534   5.297   3.049   9.630 -1.3463 -0.3557  0.1508
    8CHL1   H14  535   5.187   3.031   9.636 -1.6316  0.7328 -1.3605
    8CHL1   C15  536   5.349   2.918   9.573  0.2323  0.3794  0.2348
    8CHL1  H15A  537   5.457   2.910   9.595  0.0286 -0.3522  0.9614
    8CHL1  H15B  538   5.299   2.828   9.615  2.4591 -1.6457 -1.3355
    8CHL1   C16  539   5.316   2.928   9.423 -0.1723 -0.5250  0.7816
    8CHL1  H16A  540   5.409   2.918   9.362 -0.6181 -0.7679  0.1415
    8CHL1  H16B  541   5.244   2.848   9.396 -0.0769 -0.9898  1.8791
    8CHL1   C17  542   5.252   3.070   9.400  0.1304  0.5204 -0.4419
    8CHL1   H17  543   5.141   3.064   9.406  0.1984  0.2298  0.5679
    8CHL1   C13  544   5.291   3.158   9.521 -0.1889 -0.1904 -0.3609
    8CHL1   C18  545   5.444   3.196   9.498 -0.2004  0.0677 -0.6316
    8CHL1  H18A  546   5.457   3.249   9.402  0.7532 -1.2408 -1.2385
    8CHL1  H18B  547   5.477   3.256   9.585 -2.6007 -2.4062  2.1350
    8CHL1  H18C  548   5.498   3.099   9.503 -0.2858 -0.0929 -2.6294
    8CHL1   C12  549   5.195   3.270   9.575 -0.1239  0.3592  0.9284
    8CHL1  H12A  550   5.200   3.357   9.506  0.5628  1.6669  2.5700
    8CHL1  H12B  551   5.093   3.228   9.582 -0.0325  0.3563  2.3422
    8CHL1   C11  552   5.248   3.325   9.711  0.6718 -0.2295 -0.4969
    8CHL1  H11A  553   5.348   3.372   9.697  0.4756  0.3903  0.1919
    8CHL1  H11B  554   5.184   3.409   9.742 -0.7192 -0.9426 -1.3838
    8CHL1    C9  555   5.260   3.216   9.821 -0.6514  1.3549 -0.4793
    8CHL1    H9  556   5.156   3.177   9.825  0.0327 -0.4728 -0.0306
    8CHL1   C10  557   5.301   3.259   9.958 -0.0741  0.6564 -0.1303
    8CHL1   C19  558   5.404   3.368   9.951  0.0126  0.4018 -0.3250
    8CHL1  H19A  559   5.359   3.457   9.902 -0.0588  0.6250  0.1451
    8CHL1  H19B  560   5.424   3.401  10.055 -0.8831  0.6089 -0.2146
    8CHL1  H19C  561   5.496   3.344   9.893 -0.7820  0.3673 -1.5987
    8CHL1    C1  562   5.174   3.303  10.032  0.4269 -0.5365  0.4417
    8CHL1   H1A  563   5.126   3.387   9.977  0.7767  0.4864  1.6963
    8CHL1   H1B  564   5.103   3.217  10.036 -0.4104  0.1116 -0.1841
    8CHL1    C2  565   5.196   3.339  10.178 -0.6368  0.4173 -0.1077
    8CHL1   H2A  566   5.102   3.360  10.234 -0.8109  4.6156 -1.7481
    8CHL1   H2B  567   5.264   3.426  10.191  2.2300 -1.2552 -3.2609
    8CHL1   C20  568   5.268   3.121   9.248  0.0553 -0.1896 -0.7290
    8CHL1   H20  569   5.375   3.150   9.239  0.1524 -0.2450  0.2435
    8CHL1   C21  570   5.172   3.242   9.223  0.0722  0.2409 -0.1543
    8CHL1  H21A  571   5.212   3.324   9.287  1.4174 -0.1628 -0.4573
    8CHL1  H21B  572   5.065   3.215   9.236  0.7761 -1.9663  1.4048
    8CHL1  H21C  573   5.177   3.273   9.116  0.8293 -4.4624 -1.5697
    8CHL1   C22  574   5.236   3.016   9.143 -0.6519  0.5424  0.1493
    8CHL1  H22A  575   5.295   2.926   9.174 -0.6578  0.4929  0.0165
    8CHL1  H22B  576   5.128   2.999   9.161  0.0795 -2.8925  1.7086
    8CHL1   C23  577   5.282   3.047   8.998  0.5664 -0.2968  0.5359
    8CHL1  H23A  578   5.231   3.137   8.957  1.6561  0.0895 -0.0052
    8CHL1  H23B  579   5.390   3.073   9.001  0.1758  1.2673  1.4281
    8CHL1   C24  580   5.249   2.917   8.925  0.1484 -0.1588 -0.0829
    8CHL1  H24A  581   5.307   2.836   8.976 -1.6016  0.1383  2.4354
    8CHL1  H24B  582   5.142   2.888   8.930 -0.5392  2.2855 -0.0985
    8CHL1   C25  583   5.277   2.930   8.765  0.0624 -0.1733 -0.5115
    8CHL1   H25  584   5.204   3.007   8.731  2.5884  1.8951 -1.4186
    8CHL1   C26  585   5.425   2.961   8.723 -0.4913 -0.0704 -0.3107
    8CHL1  H26A  586   5.480   3.052   8.757  2.9075 -1.9538 -0.6166
    8CHL1  H26B  587   5.492   2.876   8.749 -0.0478  0.7161  1.2257
    8CHL1  H26C  588   5.433   2.964   8.613  2.7497  0.2601 -0.1245
    8CHL1   C27  589   5.238   2.804   8.691  0.1264 -0.5266 -0.6482
    8CHL1  H27A  590   5.130   2.789   8.713 -0.1383  0.8956 -0.8883
    8CHL1  H27B  591   5.262   2.804   8.583 -2.0405  2.8437 -1.2078
    8CHL1  H27C  592   5.303   2.719   8.718 -0.1395 -0.4819  0.1427
    9CHL1    C3  593   1.617   6.600  10.136 -0.4948  0.4522  0.3510
    9CHL1    H3  594   1.563   6.502  10.138 -0.3574  0.3778  0.4555
    9CHL1    O3  595   1.613   6.648  10.271  0.0596  0.0736  0.0742
    9CHL1   H3'  596   1.669   6.587  10.319 -2.7679 -2.3956  0.4074
    9CHL1    C4  597   1.762   6.579  10.088 -0.5183 -0.6288  0.7196
    9CHL1   H4A  598   1.832   6.663  10.109  0.2933 -1.4227  1.1871
    9CHL1   H4B  599   1.795   6.496  10.153 -1.1850 -2.9728 -1.8477
    9CHL1    C5  600   1.777   6.547   9.942 -0.0862 -0.7094 -0.2794
    9CHL1    C6  601   1.847   6.437   9.904  0.5588 -0.4677  0.7944
    9CHL1    H6  602   1.893   6.373   9.981  1.4258  0.0525  0.7178
    9CHL1    C7  603   1.894   6.405   9.768 -0.1091  0.2416  0.1873
    9CHL1   H7A  604   2.002   6.384   9.749 -0.5714  1.3868 -4.3753
    9CHL1   H7B  605   1.839   6.311   9.743  2.1478 -1.1076  0.0667
    9CHL1    C8  606   1.851   6.516   9.666 -0.9788  0.1066 -0.1331
    9CHL1    H8  607   1.932   6.592   9.664 -2.0505  1.3091  0.5842
    9CHL1   C14  608   1.848   6.457   9.523 -1.2296  0.2307  0.1019
    9CHL1   H14  609   1.771   6.377   9.524 -0.4233 -0.5418  0.8147
    9CHL1   C15  610   1.973   6.370   9.476  0.2962 -0.3782  0.2988
    9CHL1  H15A  611   2.063   6.404   9.532  1.5786 -1.2283 -1.2151
    9CHL1  H15B  612   1.965   6.267   9.518 -0.6441 -1.6913 -2.9404
    9CHL1   C16  613   1.964   6.384   9.327 -0.0944  0.3260  0.4710
    9CHL1  H16A  614   2.055   6.428   9.280 -0.4800  2.3112  1.5449
    9CHL1  H16B  615   1.954   6.281   9.286  2.0319  0.6213 -0.8433
    9CHL1   C17  616   1.841   6.472   9.288  0.3195 -0.4549 -0.4169
    9CHL1   H17  617   1.751   6.406   9.293  0.2983 -0.3113  1.8187
    9CHL1   C13  618   1.814   6.565   9.414 -0.5894  0.3646 -0.1436
    9CHL1   C18  619   1.915   6.676   9.408 -0.6102  0.3487  0.2017
    9CHL1  H18A  620   1.903   6.739   9.499  1.1453 -0.7310  1.2103
    9CHL1  H18B  621   2.023   6.653   9.406 -0.7288 -0.2283  0.3174
    9CHL1  H18C  622   1.880   6.750   9.333 -0.1001 -0.8886 -1.2695
    9CHL1   C12  623   1.670   6.612   9.438 -0.1749 -0.7851 -0.3764
    9CHL1  H12A  624   1.634   6.689   9.367 -0.9645 -1.4404 -0.6941
    9CHL1  H12B  625   1.610   6.519   9.424  0.6788 -1.1747 -1.5911
    9CHL1   C11  626   1.656   6.670   9.581 -0.1932  0.5895  0.4370
    9CHL1  H11A  627   1.710   6.767   9.584 -2.7421  2.0079  2.3216
    9CHL1  H11B  628   1.553   6.698   9.612 -0.4134  0.3294 -0.0511
    9CHL1    C9  629   1.713   6.577   9.694  0.2639  0.6342 -0.0332
    9CHL1    H9  630   1.647   6.487   9.691  1.6332 -0.4173  0.6772
    9CHL1   C10  631   1.706   6.638   9.835 -0.0837 -0.2097 -0.5793
    9CHL1   C19  632   1.770   6.780   9.847  0.0729 -0.4791  0.0065
    9CHL1  H19A  633   1.864   6.772   9.789 -0.5143  0.6405 -1.1447
    9CHL1  H19B  634   1.705   6.855   9.795  1.2366  0.6176  0.0983
    9CHL1  H19C  635   1.810   6.811   9.945  3.4716  0.5092 -1.6340
    9CHL1    C1  636   1.556   6.648   9.889  0.1379  0.4634 -0.0808
    9CHL1   H1A  637   1.502   6.720   9.824 -0.5610  1.8388  2.0061
    9CHL1   H1B  638   1.525   6.541   9.884 -0.5003  0.6315  0.3218
    9CHL1    C2  639   1.531   6.681  10.037 -0.5335  0.5349  0.0885
    9CHL1   H2A  640   1.427   6.658  10.067 -0.7310  1.6992  0.3327
    9CHL1   H2B  641   1.549   6.791  10.042  2.0360  0.1703 -0.1852
    9CHL1   C20  642   1.847   6.531   9.148  0.5728  0.4803 -0.2517
    9CHL1   H20  643   1.937   6.595   9.141  0.0961  1.2318  0.4648
    9CHL1   C21  644   1.714   6.602   9.120 -0.2622 -0.3999 -0.2578
    9CHL1  H21A  645   1.621   6.565   9.168  1.2274 -2.2146  1.3158
    9CHL1  H21B  646   1.698   6.602   9.010 -2.9900  1.5462  0.0863
    9CHL1  H21C  647   1.727   6.710   9.143 -0.5649  0.2232 -2.8342
    9CHL1   C22  648   1.870   6.420   9.033  0.3405 -0.0941  1.0948
    9CHL1  H22A  649   1.931   6.338   9.077 -2.8926 -1.5913  2.9712
    9CHL1  H22B  650   1.778   6.367   9.001  0.7285 -0.9350  1.3825
    9CHL1   C23  651   1.933   6.478   8.903 -0.5963 -0.2517 -0.1787
    9CHL1  H23A  652   1.872   6.556   8.852  0.5488 -0.1636 -1.4645
    9CHL1  H23B  653   2.025   6.533   8.935 -1.0054  0.2282  0.1827
    9CHL1   C24  654   1.967   6.379   8.794  0.6064 -0.3717  0.2323
    9CHL1  H24A  655   2.046   6.322   8.847 -1.9809 -1.7931  2.6681
    9CHL1  H24B  656   1.883   6.307   8.782  1.4729 -1.4093  0.2648
    9CHL1   C25  657   2.010   6.427   8.656 -0.1948 -0.0687  0.7350
    9CHL1   H25  658   2.031   6.328   8.611  3.1308  1.0216 -0.3015
    9CHL1   C26  659   1.899   6.510   8.582  0.2349  0.7590  0.4878
    9CHL1  H26A  660   1.938   6.546   8.484  0.6781 -3.3174 -0.9499
    9CHL1  H26B  661   1.812   6.448   8.551  1.5249 -0.0205 -1.6657
    9CHL1  H26C  662   1.856   6.593   8.643  1.5438  1.9284 -0.1582
    9CHL1   C27  663   2.137   6.506   8.669 -0.9249 -0.0442  0.6026
    9CHL1  H27A  664   2.212   6.447   8.724  2.9111  3.1877 -0.8603
    9CHL1  H27B  665   2.187   6.523   8.571 -2.2378 -0.7550 -0.1990
    9CHL1  H27C  666   2.130   6.606   8.717 -1.7416 -0.8483  2.1740
   10CHL1    C3  667   0.402   3.897  10.090  0.3443 -0.6365 -0.0175
   10CHL1    H3  668   0.363   3.794  10.082  2.6306 -1.5066 -0.0686
   10CHL1    O3  669   0.448   3.918  10.219 -0.1897  0.0741 -0.1315
   10CHL1   H3'  670   0.539   3.888  10.215 -0.6512 -1.2497 -0.9775
   10CHL1    C4  671   0.521   3.926  10.001  0.5774 -0.1669 -0.2489
   10CHL1   H4A  672   0.555   4.032  10.005 -1.3418  0.4718 -0.6447
   10CHL1   H4B  673   0.609   3.867  10.035  0.2043 -0.1717  0.7315
   10CHL1    C5  674   0.483   3.888   9.861 -1.3005  0.3776  0.3011
   10CHL1    C6  675   0.541   3.788   9.797 -0.5421 -0.7043 -0.1065
   10CHL1    H6  676   0.630   3.741   9.842 -0.7823 -2.4088 -1.3661
   10CHL1    C7  677   0.517   3.751   9.661 -0.3675  0.7057  1.1663
   10CHL1   H7A  678   0.612   3.760   9.604 -0.3125  2.7614  1.5486
   10CHL1   H7B  679   0.473   3.650   9.647 -2.9114  2.2474 -2.7563
   10CHL1    C8  680   0.419   3.847   9.591  0.4673  0.0973  1.2642
   10CHL1    H8  681   0.482   3.936   9.570 -1.0279  0.4425 -2.0629
   10CHL1   C14  682   0.363   3.775   9.472  0.4166 -0.2641 -0.3569
   10CHL1   H14  683   0.307   3.688   9.511 -0.7181  0.5155 -0.2291
   10CHL1   C15  684   0.457   3.722   9.364  0.3338  0.4274 -0.4479
   10CHL1  H15A  685   0.542   3.791   9.344  0.2932  0.4728 -0.4666
   10CHL1  H15B  686   0.500   3.622   9.385 -1.9150 -0.6145 -0.6307
   10CHL1   C16  687   0.368   3.690   9.238 -0.1747  0.1072 -0.3396
   10CHL1  H16A  688   0.417   3.708   9.140 -2.4512 -0.0919 -1.5540
   10CHL1  H16B  689   0.343   3.582   9.236  0.3946 -0.0483  0.5218
   10CHL1   C17  690   0.238   3.770   9.266 -0.4809 -0.4376 -0.7330
   10CHL1   H17  691   0.164   3.697   9.307 -2.7490  1.8388 -0.6590
   10CHL1   C13  692   0.266   3.862   9.388  0.3497  0.1095 -0.3489
   10CHL1   C18  693   0.339   3.996   9.348  0.2684  0.5356  0.4810
   10CHL1  H18A  694   0.431   3.979   9.288 -1.2817 -1.1269 -1.4808
   10CHL1  H18B  695   0.262   4.059   9.298 -1.4561 -2.4022 -0.6257
   10CHL1  H18C  696   0.374   4.051   9.438  3.0658  1.8157 -1.2941
   10CHL1   C12  697   0.141   3.891   9.472 -0.0715  0.1596 -0.2505
   10CHL1  H12A  698   0.076   3.948   9.402 -0.7615  1.1168  1.1638
   10CHL1  H12B  699   0.091   3.792   9.487 -0.0656 -0.3180 -2.9974
   10CHL1   C11  700   0.179   3.955   9.606 -0.1650  0.1412  0.1013
   10CHL1  H11A  701   0.205   4.061   9.587  1.1531 -0.4859 -1.7386
   10CHL1  H11B  702   0.095   3.949   9.679  0.7945 -2.4259  1.0596
   10CHL1    C9  703   0.300   3.888   9.679  0.1476  0.2336 -0.1190
   10CHL1    H9  704   0.255   3.791   9.709 -0.5481 -0.3396 -2.8836
   10CHL1   C10  705   0.346   3.952   9.810 -0.7107  0.3144  0.5477
   10CHL1   C19  706   0.385   4.095   9.774  0.1237  0.4706 -0.0616
   10CHL1  H19A  707   0.452   4.108   9.686 -0.7386 -2.0090 -1.1297
   10CHL1  H19B  708   0.298   4.158   9.744 -0.9380 -0.6903  0.5647
   10CHL1  H19C  709   0.432   4.150   9.858  0.8291 -0.8020  0.3746
   10CHL1    C1  710   0.237   3.949   9.912  0.9187 -0.4708  0.0203
   10CHL1   H1A  711   0.151   4.018   9.896  1.6903  1.0329  2.0564
   10CHL1   H1B  712   0.191   3.850   9.929 -0.4142 -0.2025 -1.9181
   10CHL1    C2  713   0.282   3.982  10.055 -0.2101  0.9959 -0.6120
   10CHL1   H2A  714   0.197   3.968  10.126  0.6034  2.9394  0.7919
   10CHL1   H2B  715   0.318   4.087  10.065  0.4372  0.6374  0.9204
   10CHL1   C20  716   0.182   3.832   9.142 -0.7458 -0.4314  0.0786
   10CHL1   H20  717   0.106   3.908   9.169 -0.9196 -0.5942  0.0423
   10CHL1   C21  718   0.090   3.721   9.088  0.7453  0.1441 -0.0817
   10CHL1  H21A  719   0.020   3.683   9.165  0.8663 -0.8878 -0.4725
   10CHL1  H21B  720   0.149   3.630   9.066 -0.2762 -1.0226  1.8697
   10CHL1  H21C  721   0.028   3.747   8.999  0.9471 -1.6584 -0.7793
   10CHL1   C22  722   0.277   3.887   9.032 -0.8999  0.1750 -0.1291
   10CHL1  H22A  723   0.364   3.942   9.075 -1.7643  2.5089 -1.2924
   10CHL1  H22B  724   0.307   3.799   8.971  1.0161 -1.5684  3.1676
   10CHL1   C23  725   0.199   3.985   8.951  0.7086  0.7388 -0.7861
   10CHL1  H23A  726   0.114   3.925   8.911  1.5079 -1.0060  0.0505
   10CHL1  H23B  727   0.161   4.063   9.020  1.2822 -0.4084  0.8622
   10CHL1   C24  728   0.278   4.055   8.843 -0.5191 -0.0743  0.5031
   10CHL1  H24A  729   0.349   4.126   8.891 -0.2911 -1.2372  1.9430
   10CHL1  H24B  730   0.346   3.982   8.795 -1.5750 -0.6168 -0.1829
   10CHL1   C25  731   0.194   4.122   8.732 -0.2371 -0.5414 -0.3540
   10CHL1   H25  732   0.114   4.050   8.701 -0.6670 -0.2595  0.1009
   10CHL1   C26  733   0.123   4.248   8.769  0.2183  0.0078 -0.1386
   10CHL1  H26A  734   0.046   4.279   8.695 -0.0829 -0.1622  0.1026
   10CHL1  H26B  735   0.078   4.237   8.869 -0.1166 -2.7975 -0.5580
   10CHL1  H26C  736   0.195   4.332   8.771 -0.1816  0.3275  0.7875
   10CHL1   C27  737   0.277   4.162   8.604 -0.0040 -0.0750 -0.6099
   10CHL1  H27A  738   0.212   4.219   8.534  0.5052  0.4949 -0.6300
   10CHL1  H27B  739   0.363   4.231   8.622  1.3452 -1.3355 -2.0837
   10CHL1  H27C  740   0.331   4.074   8.565 -0.1219 -0.1774 -0.5394
   11CHL1    C3  741   3.323   6.690  10.010  0.0608 -0.5336  0.4604
   11CHL1    H3  742   3.425   6.728  10.034  1.4879 -3.8125 -0.1167
   11CHL1    O3  743   3.258   6.688  10.132 -0.6053 -0.2308 -0.6211
   11CHL1   H3'  744   3.316   6.635  10.186  1.7122  0.8878 -1.9550
   11CHL1    C4  745   3.256   6.795   9.921  0.6840 -0.0764 -0.3097
   11CHL1   H4A  746   3.150   6.773   9.897  0.9228  1.0045 -2.4889
   11CHL1   H4B  747   3.261   6.887   9.982  0.9974 -0.3276  0.0477
   11CHL1    C5  748   3.320   6.810   9.791 -0.3976 -0.5101 -0.1463
   11CHL1    C6  749   3.365   6.929   9.738  0.7080  0.5660  0.5574
   11CHL1    H6  750   3.333   7.021   9.789  1.6993  1.5490 -0.5642
   11CHL1    C7  751   3.434   6.939   9.607 -0.4099 -1.2069  0.8208
   11CHL1   H7A  752   3.420   7.035   9.552  0.8920 -1.0903  0.6827
   11CHL1   H7B  753   3.543   6.940   9.629  0.1944  0.5948 -1.9350
   11CHL1    C8  754   3.388   6.815   9.515 -0.3258 -0.0142 -0.3683
   11CHL1    H8  755   3.278   6.826   9.505 -0.4550  0.0187  0.9779
   11CHL1   C14  756   3.448   6.832   9.379 -0.1687  0.2396  0.2250
   11CHL1   H14  757   3.558   6.836   9.396  0.1178 -2.4163 -0.8445
   11CHL1   C15  758   3.423   6.963   9.299 -0.0272  0.4542  0.0930
   11CHL1  H15A  759   3.316   6.984   9.275 -0.6688 -4.6847 -2.2465
   11CHL1  H15B  760   3.474   7.050   9.346 -0.7255  0.8510  0.1227
   11CHL1   C16  761   3.503   6.923   9.178  0.2109 -0.7767  0.8646
   11CHL1  H16A  762   3.445   6.957   9.089 -0.6334 -0.0544  1.6810
   11CHL1  H16B  763   3.608   6.958   9.172  0.0446 -0.4095  0.0402
   11CHL1   C17  764   3.511   6.770   9.171  0.1718  0.5088  0.4021
   11CHL1   H17  765   3.613   6.745   9.209 -0.0961 -1.1063  0.0818
   11CHL1   C13  766   3.422   6.717   9.280  0.4183  0.4384 -0.3519
   11CHL1   C18  767   3.271   6.718   9.245  0.5117 -0.1645  0.0628
   11CHL1  H18A  768   3.226   6.817   9.221  0.8353 -0.0649 -0.1311
   11CHL1  H18B  769   3.256   6.668   9.147  3.5547  2.5560 -1.8948
   11CHL1  H18C  770   3.209   6.672   9.325  1.0423 -0.2279  0.4395
   11CHL1   C12  771   3.463   6.589   9.345  0.1829 -0.6165 -0.7044
   11CHL1  H12A  772   3.437   6.496   9.291 -3.5063 -0.0511 -0.0234
   11CHL1  H12B  773   3.573   6.592   9.364 -0.1961 -1.7353  1.8427
   11CHL1   C11  774   3.397   6.562   9.486 -0.9637  0.0309  0.1695
   11CHL1  H11A  775   3.291   6.534   9.471 -0.9079 -1.0418  1.5970
   11CHL1  H11B  776   3.436   6.471   9.538  0.4191  1.4827  1.7287
   11CHL1    C9  777   3.411   6.683   9.586  0.1601  0.9130  1.0855
   11CHL1    H9  778   3.519   6.675   9.608  0.9249  1.3674 -2.2722
   11CHL1   C10  779   3.335   6.676   9.716 -0.1826  0.3643  0.6216
   11CHL1   C19  780   3.184   6.640   9.683  0.3550  0.2593  0.0495
   11CHL1  H19A  781   3.191   6.540   9.637  0.9179  0.7131 -0.8577
   11CHL1  H19B  782   3.115   6.621   9.768 -1.3600 -3.6977 -2.0984
   11CHL1  H19C  783   3.136   6.717   9.619 -1.3239  0.5767  1.6494
   11CHL1    C1  784   3.403   6.567   9.808 -0.7181  0.0902 -0.4364
   11CHL1   H1A  785   3.414   6.466   9.761 -1.3149  0.1218 -0.6423
   11CHL1   H1B  786   3.504   6.606   9.835 -0.1981 -1.9474  0.6809
   11CHL1    C2  787   3.330   6.553   9.945 -0.2151 -0.5155  0.2579
   11CHL1   H2A  788   3.386   6.481  10.010  0.5439 -0.8588 -0.7673
   11CHL1   H2B  789   3.226   6.516   9.932 -0.4289 -0.2788  1.2223
   11CHL1   C20  790   3.500   6.709   9.034 -0.2759  0.1892 -0.3170
   11CHL1   H20  791   3.393   6.708   9.004 -0.1744 -1.3296 -0.7037
   11CHL1   C21  792   3.538   6.557   9.034  0.0867 -0.1190  0.3577
   11CHL1  H21A  793   3.637   6.543   9.081  1.5054 -0.1304 -2.5406
   11CHL1  H21B  794   3.549   6.526   8.928  1.1232  1.0060  0.1280
   11CHL1  H21C  795   3.464   6.499   9.093  2.4643 -0.8976  2.6432
   11CHL1   C22  796   3.582   6.776   8.925  0.3995 -0.2667  1.0728
   11CHL1  H22A  797   3.610   6.875   8.966 -1.1256  0.1394  1.1324
   11CHL1  H22B  798   3.679   6.724   8.910  0.8145  1.0724 -1.2845
   11CHL1   C23  799   3.509   6.803   8.787 -0.2112 -0.0672 -0.2282
   11CHL1  H23A  800   3.402   6.832   8.801 -0.0347  0.2232  0.5698
   11CHL1  H23B  801   3.564   6.894   8.756  0.1229 -0.5537 -1.0552
   11CHL1   C24  802   3.521   6.702   8.682 -0.3389 -0.3496 -0.3842
   11CHL1  H24A  803   3.615   6.645   8.698 -1.1047 -1.7738 -0.8744
   11CHL1  H24B  804   3.436   6.633   8.703 -0.1293  0.0068  1.7653
   11CHL1   C25  805   3.500   6.748   8.534  0.0102 -0.0463  0.3797
   11CHL1   H25  806   3.588   6.804   8.496  0.3459 -2.8233 -3.1912
   11CHL1   C26  807   3.489   6.634   8.431 -0.2259 -0.0057 -0.1869
   11CHL1  H26A  808   3.393   6.580   8.437 -1.2211  1.7982  0.6713
   11CHL1  H26B  809   3.508   6.677   8.330  0.5859  0.7363  0.2739
   11CHL1  H26C  810   3.577   6.570   8.451  0.8084  1.8304  1.3330
   11CHL1   C27  811   3.380   6.841   8.522  0.8974  0.2982  0.0037
   11CHL1  H27A  812   3.363   6.857   8.414 -4.6245 -1.3123  0.4889
   11CHL1  H27B  813   3.290   6.797   8.571 -0.5315  1.1259 -1.8030
   11CHL1  H27C  814   3.401   6.945   8.554 -0.5967  0.2249  1.2756
   12CHL1    C3  815   6.008   3.381  10.442  0.2671  0.6745  0.0601
   12CHL1    H3  816   5.972   3.466  10.382  1.0151  1.1994  0.3495
   12CHL1    O3  817   6.017   3.427  10.577  0.3139  0.2168 -0.2073
   12CHL1   H3'  818   6.074   3.360  10.617 -0.2740 -1.4536 -2.0827
   12CHL1    C4  819   5.926   3.253  10.435 -0.0107  0.9451  0.2046
   12CHL1   H4A  820   5.961   3.172  10.503  3.1043 -0.4151 -2.9107
   12CHL1   H4B  821   5.827   3.271  10.483 -0.9675 -0.1985 -1.2862
   12CHL1    C5  822   5.914   3.200  10.294  1.1611  0.4933 -0.4016
   12CHL1    C6  823   5.794   3.200  10.234 -0.2725  0.7264  0.2879
   12CHL1    H6  824   5.708   3.233  10.295  0.1498  0.0797  1.2368
   12CHL1    C7  825   5.764   3.160  10.092 -0.3810  0.6041 -0.6892
   12CHL1   H7A  826   5.670   3.101  10.094  0.1601 -0.2377  0.7734
   12CHL1   H7B  827   5.741   3.249  10.030 -1.5594 -0.2441 -1.4849
   12CHL1    C8  828   5.886   3.081  10.025 -0.7230  0.4140 -0.2556
   12CHL1    H8  829   5.884   2.976  10.061  1.0336  1.0094  1.7241
   12CHL1   C14  830   5.872   3.077   9.873  0.0642 -0.3566  0.1846
   12CHL1   H14  831   5.866   3.181   9.836 -1.5197 -0.8249 -0.9395
   12CHL1   C15  832   5.738   3.030   9.828  0.2607  0.9903 -0.2822
   12CHL1  H15A  833   5.695   2.948   9.889  0.8653  0.4609 -0.5622
   12CHL1  H15B  834   5.660   3.109   9.818  0.5826  1.3790  0.2432
   12CHL1   C16  835   5.765   2.965   9.689  0.2974 -0.1440 -0.1734
   12CHL1  H16A  836   5.745   2.857   9.709  2.1195 -0.4596  0.0655
   12CHL1  H16B  837   5.706   3.003   9.603 -0.6164 -0.1163  0.4599
   12CHL1   C17  838   5.923   2.981   9.662  0.4836 -0.1806  1.1730
   12CHL1   H17  839   5.929   3.078   9.608 -2.7766 -1.1907 -1.1683
   12CHL1   C13  840   5.980   2.998   9.805 -0.2448  0.0656 -0.4741
   12CHL1   C18  841   6.006   2.856   9.866  0.1499  0.1897 -0.3543
   12CHL1  H18A  842   6.102   2.818   9.824 -0.3189 -0.9382 -0.4236
   12CHL1  H18B  843   6.004   2.858   9.977  0.4130  1.8193 -0.3695
   12CHL1  H18C  844   5.924   2.787   9.837  2.4131 -1.9007 -2.0560
   12CHL1   C12  845   6.105   3.090   9.820 -0.2826 -0.2897 -0.7209
   12CHL1  H12A  846   6.190   3.035   9.775  0.1244 -1.5969  1.5388
   12CHL1  H12B  847   6.082   3.182   9.762 -3.2139  0.2022  1.1293
   12CHL1   C11  848   6.137   3.118   9.972  0.3536  0.3554  0.3198
   12CHL1  H11A  849   6.210   3.046  10.015  0.0070  0.2165  0.6673
   12CHL1  H11B  850   6.196   3.212   9.979 -0.1808  0.9474 -2.5647
   12CHL1    C9  851   6.016   3.153  10.058  1.5139 -0.4701 -0.1522
   12CHL1    H9  852   5.996   3.260  10.033 -1.4387 -0.6541  1.1677
   12CHL1   C10  853   6.042   3.175  10.213  0.4875 -0.1985  0.4311
   12CHL1   C19  854   6.091   3.045  10.277  0.2457 -0.8027  0.1139
   12CHL1  H19A  855   6.097   3.063  10.386 -0.4981  0.4210 -0.0386
   12CHL1  H19B  856   6.026   2.957  10.261  0.3600 -1.2137  1.8060
   12CHL1  H19C  857   6.192   3.008  10.248  0.3875  0.9520 -1.7175
   12CHL1    C1  858   6.133   3.304  10.242 -0.8034  0.4403 -0.1577
   12CHL1   H1A  859   6.227   3.289  10.184 -0.2921 -1.3155  1.1021
   12CHL1   H1B  860   6.078   3.392  10.201  0.0776  1.3441  0.5885
   12CHL1    C2  861   6.148   3.348  10.387 -0.2559 -0.0814  0.1616
   12CHL1   H2A  862   6.195   3.448  10.385  1.9895 -1.1227 -0.2953
   12CHL1   H2B  863   6.200   3.268  10.445  1.6889  1.4507  0.5637
   12CHL1   C20  864   5.970   2.873   9.570  0.2945  0.3521  0.0842
   12CHL1   H20  865   5.947   2.781   9.628 -0.3606  1.2647  1.2955
   12CHL1   C21  866   6.119   2.879   9.541 -0.1921  0.2968 -0.0158
   12CHL1  H21A  867   6.136   2.798   9.467  0.2823  0.8054 -0.4714
   12CHL1  H21B  868   6.183   2.869   9.631  1.9791  2.4296 -1.2581
   12CHL1  H21C  869   6.150   2.975   9.495 -0.6054  0.5823  0.2966
   12CHL1   C22  870   5.885   2.860   9.435 -0.5583  0.3380 -0.5447
   12CHL1  H22A  871   5.934   2.782   9.372 -1.1719  1.1197 -2.0263
   12CHL1  H22B  872   5.782   2.827   9.462 -1.4279  3.5277  0.2070
   12CHL1   C23  873   5.881   2.985   9.339 -0.0577 -0.1243 -0.6516
   12CHL1  H23A  874   5.826   3.072   9.381 -1.6866 -1.4239 -0.0855
   12CHL1  H23B  875   5.988   3.018   9.337 -0.4576  1.2663 -0.0613
   12CHL1   C24  876   5.832   2.949   9.203 -0.6636  0.3690  0.1224
   12CHL1  H24A  877   5.851   2.842   9.182 -1.1313  0.6143 -1.6029
   12CHL1  H24B  878   5.723   2.971   9.202 -1.1281 -1.8649  0.4010
   12CHL1   C25  879   5.897   3.034   9.095 -0.7626  0.5718 -0.1370
   12CHL1   H25  880   5.918   3.135   9.136  1.9052 -0.0240  0.0567
   12CHL1   C26  881   6.035   2.981   9.063  0.0197  0.1549 -0.2805
   12CHL1  H26A  882   6.072   3.031   8.971  1.2571  0.2211  0.2364
   12CHL1  H26B  883   6.107   3.001   9.145 -0.7803  3.1724 -0.2670
   12CHL1  H26C  884   6.034   2.873   9.034 -2.2840 -0.2679  1.2562
   12CHL1   C27  885   5.807   3.050   8.974  0.0848 -0.2888 -0.2945
   12CHL1  H27A  886   5.709   3.093   9.007  0.5080 -1.1803  2.2641
   12CHL1  H27B  887   5.865   3.127   8.918 -1.5649  0.7715 -0.5855
   12CHL1  H27C  888   5.799   2.958   8.913 -0.0446 -0.7687  0.4435
   13CHL1    C3  889   4.796   5.083   9.952  0.1999  0.2184  0.0243
   13CHL1    H3  890   4.818   5.188   9.927 -1.5153 -0.2166 -3.7193
   13CHL1    O3  891   4.792   5.065  10.094 -0.2310 -0.8659 -0.2455
   13CHL1   H3'  892   4.712   5.109  10.123  0.1361  0.1038 -0.6898
   13CHL1    C4  893   4.653   5.051   9.896  0.6684  0.1744  0.2405
   13CHL1   H4A  894   4.630   4.953   9.942  1.4450 -0.4091 -0.6162
   13CHL1   H4B  895   4.577   5.124   9.933  0.8712  0.6084 -0.1989
   13CHL1    C5  896   4.653   5.069   9.744 -0.2719 -0.3304 -0.1395
   13CHL1    C6  897   4.565   5.156   9.691 -0.0245 -0.5858 -0.3102
   13CHL1    H6  898   4.501   5.216   9.758 -0.1884  1.5282 -2.2969
   13CHL1    C7  899   4.545   5.186   9.544  0.6035 -0.5012 -0.8447
   13CHL1   H7A  900   4.436   5.177   9.523 -0.1094  0.9317  1.9879
   13CHL1   H7B  901   4.579   5.290   9.525  0.7394 -0.5993 -1.1321
   13CHL1    C8  902   4.617   5.069   9.458  0.6174  0.5428  0.3542
   13CHL1    H8  903   4.560   4.973   9.459  1.1459  0.1934 -1.1662
   13CHL1   C14  904   4.634   5.113   9.312  0.2634  0.4254 -0.4022
   13CHL1   H14  905   4.692   5.208   9.312 -3.5032  2.8117 -0.5151
   13CHL1   C15  906   4.500   5.156   9.244  0.2825 -0.2009  0.1210
   13CHL1  H15A  907   4.427   5.072   9.248 -0.0300 -0.1628 -3.2326
   13CHL1  H15B  908   4.447   5.242   9.291 -1.1940 -1.6614  1.2097
   13CHL1   C16  909   4.539   5.163   9.095 -0.0076  0.2565  0.2853
   13CHL1  H16A  910   4.461   5.120   9.028 -2.8653  2.4857  2.0783
   13CHL1  H16B  911   4.545   5.273   9.083  0.5907  0.2862  0.8400
   13CHL1   C17  912   4.678   5.098   9.084  0.4441  0.1738  0.2608
   13CHL1   H17  913   4.759   5.174   9.086  0.6243 -0.0501  1.7692
   13CHL1   C13  914   4.706   5.019   9.217  0.9240  0.3469 -0.1534
   13CHL1   C18  915   4.623   4.885   9.209  0.2386 -0.2440 -0.2590
   13CHL1  H18A  916   4.681   4.833   9.130  2.2257  0.0485  0.9896
   13CHL1  H18B  917   4.618   4.821   9.299  1.8431  0.5485  0.4096
   13CHL1  H18C  918   4.515   4.896   9.182  0.3743  0.4440 -0.5476
   13CHL1   C12  919   4.849   5.020   9.268 -0.9903 -1.0976 -0.6941
   13CHL1  H12A  920   4.915   4.948   9.215  1.0298 -0.0220  0.3047
   13CHL1  H12B  921   4.889   5.123   9.260  1.7887 -1.8774  2.2644
   13CHL1   C11  922   4.853   4.966   9.415  0.2158 -0.3670  0.7059
   13CHL1  H11A  923   4.825   4.859   9.413  2.4824 -1.0030  0.8882
   13CHL1  H11B  924   4.956   4.969   9.457 -0.1530 -0.3451  1.6144
   13CHL1    C9  925   4.756   5.043   9.513 -0.4261 -0.8540 -0.1269
   13CHL1    H9  926   4.808   5.140   9.531  0.3729 -1.5947  1.7039
   13CHL1   C10  927   4.752   4.986   9.658  0.1036 -0.1483  0.6178
   13CHL1   C19  928   4.726   4.835   9.657 -0.5136  0.0740 -0.0451
   13CHL1  H19A  929   4.633   4.801   9.608 -0.7445  0.0847  0.3855
   13CHL1  H19B  930   4.812   4.784   9.608  1.0077  0.6048  2.0325
   13CHL1  H19C  931   4.712   4.784   9.755  0.7519  0.1359  0.1811
   13CHL1    C1  932   4.891   5.006   9.729  0.1735  0.2236  0.8800
   13CHL1   H1A  933   4.964   4.937   9.683 -1.4204 -2.6607  2.5158
   13CHL1   H1B  934   4.937   5.102   9.698  0.1015  0.6877  2.1802
   13CHL1    C2  935   4.899   4.997   9.880  0.1748 -0.4917  0.7271
   13CHL1   H2A  936   4.998   5.040   9.906  0.7001 -0.5806 -1.0787
   13CHL1   H2B  937   4.895   4.891   9.915  1.6841 -0.9129 -0.3341
   13CHL1   C20  938   4.693   5.024   8.953  0.5660  0.1461 -0.3864
   13CHL1   H20  939   4.620   4.940   8.954 -0.0790  0.7017  1.9659
   13CHL1   C21  940   4.832   4.954   8.940  0.6759 -0.5593  0.3192
   13CHL1  H21A  941   4.829   4.868   9.011 -0.9600  0.2473  1.2533
   13CHL1  H21B  942   4.915   5.027   8.955  0.6194 -0.0304 -1.7724
   13CHL1  H21C  943   4.836   4.912   8.837  2.0327 -1.0790  0.5743
   13CHL1   C22  944   4.667   5.114   8.831  0.1650 -0.6035  0.0770
   13CHL1  H22A  945   4.563   5.154   8.835 -0.1712 -1.4396 -0.2500
   13CHL1  H22B  946   4.741   5.197   8.835 -0.4848 -0.0799  3.1844
   13CHL1   C23  947   4.670   5.047   8.693 -0.0594 -0.3107  0.1730
   13CHL1  H23A  948   4.774   5.014   8.672  0.1212 -0.4065  1.1846
   13CHL1  H23B  949   4.599   4.962   8.690 -0.2419 -0.1038 -1.6874
   13CHL1   C24  950   4.657   5.149   8.572 -0.4004 -0.9436 -0.2548
   13CHL1  H24A  951   4.548   5.171   8.578 -0.0870  0.3779  1.0283
   13CHL1  H24B  952   4.714   5.239   8.606 -0.5860 -0.9635  0.1000
   13CHL1   C25  953   4.681   5.091   8.433  0.4664 -1.0055 -0.1348
   13CHL1   H25  954   4.790   5.098   8.413 -0.1295  1.3447 -2.8281
   13CHL1   C26  955   4.628   4.947   8.408 -0.4083 -0.3421 -0.3292
   13CHL1  H26A  956   4.664   4.921   8.306  1.2999  0.0690  0.1450
   13CHL1  H26B  957   4.664   4.879   8.488 -2.6981 -1.0601  0.1136
   13CHL1  H26C  958   4.517   4.947   8.418 -0.4325 -2.4186 -0.4138
   13CHL1   C27  959   4.613   5.183   8.334 -0.3007 -0.0740 -0.4617
   13CHL1  H27A  960   4.614   5.138   8.233 -0.6613 -0.9738 -0.0733
   13CHL1  H27B  961   4.509   5.206   8.364 -0.1889  0.5108 -0.5240
   13CHL1  H27C  962   4.675   5.274   8.317 -3.2434  1.7193 -2.0491
   14CHL1    C3  963   5.123   1.235  10.317  0.0316  0.0559 -0.0905
   14CHL1    H3  964   5.229   1.203  10.308  0.9560  2.7481  0.5922
   14CHL1    O3  965   5.084   1.213  10.450 -0.0090 -0.1698  0.5246
   14CHL1   H3'  966   4.989   1.224  10.460 -0.2273  0.2500 -1.7784
   14CHL1    C4  967   5.115   1.388  10.287  0.4608 -0.4134 -0.0911
   14CHL1   H4A  968   5.017   1.430  10.318  0.3746 -0.6591 -0.0301
   14CHL1   H4B  969   5.179   1.444  10.358  2.3392 -3.0896  0.4148
   14CHL1    C5  970   5.140   1.414  10.137  0.2331  0.0462  0.5977
   14CHL1    C6  971   5.229   1.505  10.099  0.4657  0.6399  0.3438
   14CHL1    H6  972   5.278   1.575  10.168  2.8149 -1.4790  0.8849
   14CHL1    C7  973   5.253   1.538   9.951  0.0265  0.3729 -0.0058
   14CHL1   H7A  974   5.285   1.645   9.945 -0.5047  0.4432 -2.2709
   14CHL1   H7B  975   5.348   1.487   9.924  1.9438  4.2966 -1.0324
   14CHL1    C8  976   5.141   1.503   9.855  0.6861  0.0032  0.1715
   14CHL1    H8  977   5.051   1.564   9.876  0.2230 -0.1052 -1.3831
   14CHL1   C14  978   5.179   1.522   9.707  0.5555 -0.7935 -0.2107
   14CHL1   H14  979   5.281   1.478   9.698  0.5466 -1.2083  1.5086
   14CHL1   C15  980   5.207   1.663   9.650 -0.6609  0.1257 -0.5734
   14CHL1  H15A  981   5.126   1.723   9.697  0.3234  1.2751 -0.3332
   14CHL1  H15B  982   5.310   1.692   9.680  0.0911 -1.4118 -1.6324
   14CHL1   C16  983   5.201   1.639   9.498  0.0190 -0.1773  0.0956
   14CHL1  H16A  984   5.122   1.707   9.461 -0.0720  0.8761  2.2134
   14CHL1  H16B  985   5.297   1.667   9.450 -0.9882 -0.6390 -2.2815
   14CHL1   C17  986   5.169   1.485   9.472 -0.8128 -0.6846  0.8989
   14CHL1   H17  987   5.263   1.427   9.478 -1.0061 -1.0307  0.6098
   14CHL1   C13  988   5.094   1.449   9.604  0.5477  0.3065  0.0520
   14CHL1   C18  989   4.956   1.512   9.592 -0.9018  0.6578 -0.0067
   14CHL1  H18A  990   4.959   1.601   9.526 -1.0685  1.6724  1.3295
   14CHL1  H18B  991   4.889   1.437   9.545  1.7619 -1.2595 -0.8796
   14CHL1  H18C  992   4.897   1.534   9.684 -0.1718  0.1984  0.5870
   14CHL1   C12  993   5.080   1.297   9.639 -0.3794  0.1738  0.9193
   14CHL1  H12A  994   5.000   1.248   9.579  2.2800 -1.3485 -1.5061
   14CHL1  H12B  995   5.180   1.251   9.625 -0.3857  1.0376 -2.3030
   14CHL1   C11  996   5.024   1.281   9.780 -0.6531  0.0919  0.6615
   14CHL1  H11A  997   4.919   1.318   9.789 -1.1127 -1.2011  0.6870
   14CHL1  H11B  998   5.019   1.172   9.797  0.3821  0.1737  1.5849
   14CHL1    C9  999   5.115   1.353   9.882  0.5001  0.0524 -0.1614
   14CHL1    H9 1000   5.212   1.301   9.872  0.2407 -0.4573 -0.0383
   14CHL1   C10 1001   5.058   1.330  10.031 -0.7309 -0.2679  0.0145
   14CHL1   C19 1002   4.901   1.369  10.039 -0.0549  0.3131  0.3253
   14CHL1  H19A 1003   4.862   1.453   9.979  2.3650 -0.4634 -2.4592
   14CHL1  H19B 1004   4.831   1.282  10.035 -0.1179  0.1983  2.9987
   14CHL1  H19C 1005   4.892   1.384  10.149  0.0586  0.2542  0.3448
   14CHL1    C1 1006   5.082   1.182  10.080  0.0834  0.1550 -0.6680
   14CHL1   H1A 1007   5.024   1.121  10.008  2.3208 -2.8331 -0.0168
   14CHL1   H1B 1008   5.191   1.161  10.076  0.1960  0.7880 -0.9860
   14CHL1    C2 1009   5.045   1.147  10.221  0.0239  0.0920 -0.2641
   14CHL1   H2A 1010   5.053   1.037  10.239  2.0127  0.4980  1.5342
   14CHL1   H2B 1011   4.936   1.159  10.238  0.1851  0.3368  0.6193
   14CHL1   C20 1012   5.116   1.463   9.335  0.1575 -0.2806 -0.0149
   14CHL1   H20 1013   5.016   1.512   9.334  0.3559  0.1373  0.7942
   14CHL1   C21 1014   5.094   1.312   9.314  0.1431  0.1601 -0.1049
   14CHL1  H21A 1015   5.021   1.261   9.381  0.3310 -2.6914 -1.9671
   14CHL1  H21B 1016   5.190   1.256   9.313 -0.7478 -1.4107 -0.1669
   14CHL1  H21C 1017   5.054   1.291   9.213 -0.5864  0.7016  0.0731
   14CHL1   C22 1018   5.192   1.538   9.219 -0.8124 -0.8353 -0.0504
   14CHL1  H22A 1019   5.187   1.648   9.233  1.2340 -1.0912  3.5147
   14CHL1  H22B 1020   5.300   1.513   9.218 -0.5353  0.3563 -0.4461
   14CHL1   C23 1021   5.145   1.517   9.073 -0.0624 -0.8435 -0.2359
   14CHL1  H23A 1022   5.149   1.409   9.046  3.4928 -0.6628 -0.6695
   14CHL1  H23B 1023   5.044   1.563   9.062  0.7093  1.1523  0.7555
   14CHL1   C24 1024   5.229   1.594   8.968 -0.2070 -0.3358 -0.2364
   14CHL1  H24A 1025   5.249   1.699   8.997  0.1830 -0.0550 -1.5274
   14CHL1  H24B 1026   5.329   1.546   8.961  0.1317  0.2796  0.2791
   14CHL1   C25 1027   5.162   1.603   8.833  0.3698  0.1842 -0.2026
   14CHL1   H25 1028   5.073   1.666   8.850 -0.5629 -1.4817  1.2296
   14CHL1   C26 1029   5.254   1.682   8.738  0.2058 -0.0883  0.2545
   14CHL1  H26A 1030   5.356   1.637   8.735  0.0167 -0.5330  0.5279
   14CHL1  H26B 1031   5.225   1.693   8.631  0.6884 -1.7382 -0.0694
   14CHL1  H26C 1032   5.270   1.782   8.784  0.6046 -0.5646  1.1657
   14CHL1   C27 1033   5.124   1.464   8.771  0.9374  0.5249 -0.2067
   14CHL1  H27A 1034   5.089   1.481   8.667 -2.1647  0.9627  0.8384
   14CHL1  H27B 1035   5.213   1.398   8.778 -0.8446 -2.0609 -1.0030
   14CHL1  H27C 1036   5.041   1.415   8.827 -0.0360  2.1895 -0.1629
   15CHL1    C3 1037   5.057   6.543  10.058 -0.1264 -0.0142  0.2155
   15CHL1    H3 1038   5.118   6.450  10.059 -1.3290 -0.8171  0.3924
   15CHL1    O3 1039   5.023   6.576  10.189  0.0329 -0.0139  0.4618
   15CHL1   H3' 1040   5.101   6.579  10.245  0.6223 -0.9058 -0.3050
   15CHL1    C4 1041   5.129   6.668  10.004 -0.0851  0.6240 -0.1175
   15CHL1   H4A 1042   5.062   6.752  10.034 -0.7604 -0.3155  1.0546
   15CHL1   H4B 1043   5.227   6.672  10.056  0.6852 -0.7605 -1.4247
   15CHL1    C5 1044   5.146   6.663   9.851 -0.0492  0.2016 -0.7653
   15CHL1    C6 1045   5.266   6.685   9.791 -0.4102 -0.5460  0.1692
   15CHL1    H6 1046   5.354   6.720   9.847 -1.0240  0.4144  0.5522
   15CHL1    C7 1047   5.285   6.695   9.640  0.1932 -0.1991 -0.0003
   15CHL1   H7A 1048   5.332   6.795   9.623  0.4113  0.1401  2.4372
   15CHL1   H7B 1049   5.360   6.622   9.602  0.6827  1.7547 -3.0530
   15CHL1    C8 1050   5.161   6.683   9.547 -0.1602 -0.1145 -0.3568
   15CHL1    H8 1051   5.107   6.780   9.551 -0.6664 -0.3804 -0.7313
   15CHL1   C14 1052   5.211   6.643   9.414  0.6427  0.3111 -0.0948
   15CHL1   H14 1053   5.257   6.543   9.423  0.2147  0.0875 -0.3830
   15CHL1   C15 1054   5.321   6.732   9.341  0.3623  0.1030 -0.4064
   15CHL1  H15A 1055   5.281   6.834   9.358  2.7823  0.7600  1.7879
   15CHL1  H15B 1056   5.421   6.723   9.389  0.6438 -0.4991 -1.1060
   15CHL1   C16 1057   5.316   6.692   9.199  0.5142  0.0610  0.9759
   15CHL1  H16A 1058   5.299   6.787   9.144 -1.7890 -0.8896 -0.0169
   15CHL1  H16B 1059   5.404   6.634   9.163  0.8434 -0.1081  2.0507
   15CHL1   C17 1060   5.184   6.601   9.184 -0.3121  0.1449  0.4821
   15CHL1   H17 1061   5.211   6.495   9.199 -4.4926 -1.2242 -0.9849
   15CHL1   C13 1062   5.101   6.618   9.315  0.6398 -0.3683  0.1437
   15CHL1   C18 1063   5.019   6.748   9.295  0.0174 -0.7072  0.4353
   15CHL1  H18A 1064   5.081   6.832   9.258 -0.5700  0.0233  1.0997
   15CHL1  H18B 1065   4.922   6.733   9.243 -0.7009  2.1779  0.8254
   15CHL1  H18C 1066   4.995   6.786   9.397  1.7301  0.6273  0.3703
   15CHL1   C12 1067   5.010   6.505   9.368 -0.1973 -0.1979  0.3626
   15CHL1  H12A 1068   4.924   6.482   9.302  0.7400  0.2588 -1.0492
   15CHL1  H12B 1069   5.064   6.408   9.361 -1.4818 -0.7523 -2.8006
   15CHL1   C11 1070   4.951   6.539   9.503  0.2987 -0.5511 -0.1298
   15CHL1  H11A 1071   4.877   6.621   9.504  0.8601 -0.0395  1.0927
   15CHL1  H11B 1072   4.900   6.448   9.541  0.7296 -0.7912 -0.1182
   15CHL1    C9 1073   5.071   6.572   9.605 -0.2503 -0.5323  0.0807
   15CHL1    H9 1074   5.131   6.479   9.606  1.4474  0.5318  1.3218
   15CHL1   C10 1075   5.029   6.610   9.762 -0.5866 -0.8686  0.5159
   15CHL1   C19 1076   4.913   6.718   9.765 -0.0298 -0.0175  0.4786
   15CHL1  H19A 1077   4.820   6.677   9.720  1.1236  0.7233 -2.6946
   15CHL1  H19B 1078   4.899   6.751   9.870 -0.1969  2.8369 -0.3911
   15CHL1  H19C 1079   4.935   6.799   9.692 -1.2062  0.5337  0.7166
   15CHL1    C1 1080   4.966   6.482   9.825 -0.3269 -0.2551  0.1464
   15CHL1   H1A 1081   4.876   6.457   9.766 -0.3933 -0.7518  0.4496
   15CHL1   H1B 1082   5.044   6.402   9.819 -0.5158 -0.5011  0.9059
   15CHL1    C2 1083   4.934   6.503   9.976  0.3057  0.3520 -0.2721
   15CHL1   H2A 1084   4.887   6.410  10.014 -0.1134  0.6993  0.0737
   15CHL1   H2B 1085   4.849   6.575   9.983 -1.3207 -1.5275 -0.4189
   15CHL1   C20 1086   5.111   6.618   9.052  0.1174  0.0933 -0.2365
   15CHL1   H20 1087   5.054   6.713   9.049  0.5714  0.3279 -2.4744
   15CHL1   C21 1088   5.014   6.498   9.033 -0.3360  0.1993  0.4025
   15CHL1  H21A 1089   5.056   6.398   9.057  1.4680  0.6389 -0.7556
   15CHL1  H21B 1090   4.963   6.498   8.934  1.4450 -1.0771 -0.5390
   15CHL1  H21C 1091   4.930   6.502   9.106 -0.8194 -0.5860 -0.0982
   15CHL1   C22 1092   5.213   6.617   8.935  0.3846 -0.3315  0.5680
   15CHL1  H22A 1093   5.275   6.709   8.929 -0.2664  0.0487 -0.5772
   15CHL1  H22B 1094   5.273   6.524   8.925  0.5740 -0.0481 -1.1638
   15CHL1   C23 1095   5.145   6.634   8.796 -0.1127 -0.0672 -0.5474
   15CHL1  H23A 1096   5.091   6.541   8.768 -0.3931 -0.0938  0.0760
   15CHL1  H23B 1097   5.064   6.709   8.807  1.1292  0.8757  2.6302
   15CHL1   C24 1098   5.242   6.661   8.685 -0.2410  0.0693  0.4603
   15CHL1  H24A 1099   5.294   6.757   8.707  3.1055 -1.4733 -0.4101
   15CHL1  H24B 1100   5.319   6.581   8.692 -0.6735 -0.5149 -1.2014
   15CHL1   C25 1101   5.167   6.665   8.548 -0.6130 -0.1906 -0.0106
   15CHL1   H25 1102   5.096   6.580   8.543  0.1341 -0.9210  1.2527
   15CHL1   C26 1103   5.084   6.787   8.535 -0.0309  0.4319  0.3923
   15CHL1  H26A 1104   5.034   6.804   8.438 -2.5958 -1.1693  1.3973
   15CHL1  H26B 1105   4.996   6.786   8.602  0.0332 -0.0476  0.4701
   15CHL1  H26C 1106   5.143   6.877   8.564  0.5331  0.4581 -0.7780
   15CHL1   C27 1107   5.260   6.653   8.425 -0.5686 -0.3733  0.1275
   15CHL1  H27A 1108   5.197   6.652   8.333  0.0308  0.2014 -0.2925
   15CHL1  H27B 1109   5.330   6.738   8.412  0.0753 -1.3991 -3.4622
   15CHL1  H27C 1110   5.309   6.554   8.428 -0.8235 -0.7141 -4.2472
   16CHL1    C3 1111   5.822   0.898  10.351  0.0532 -0.3868  0.2265
   16CHL1    H3 1112   5.718   0.923  10.322 -0.5837 -2.2561  0.8122
   16CHL1    O3 1113   5.842   0.864  10.486 -0.0363 -0.1245 -0.1200
   16CHL1   H3' 1114   5.933   0.838  10.498 -0.5916 -2.6326 -1.0223
   16CHL1    C4 1115   5.859   0.766  10.264 -0.1740 -1.1503 -0.2607
   16CHL1   H4A 1116   5.963   0.738  10.289 -0.2008 -1.9761 -1.0758
   16CHL1   H4B 1117   5.786   0.689  10.296 -2.4880  1.0557 -0.0502
   16CHL1    C5 1118   5.850   0.800  10.109 -0.5118 -0.3290 -0.7235
   16CHL1    C6 1119   5.772   0.724  10.032 -0.0339  0.2514 -0.2516
   16CHL1    H6 1120   5.716   0.637  10.067 -1.3739  1.4023  0.4736
   16CHL1    C7 1121   5.760   0.756   9.889  0.4557 -0.2008 -0.3094
   16CHL1   H7A 1122   5.767   0.664   9.827  2.4183 -2.0346  2.4841
   16CHL1   H7B 1123   5.667   0.814   9.876  1.8598  2.6554  2.0138
   16CHL1    C8 1124   5.867   0.846   9.827 -0.5598 -0.1029  0.7377
   16CHL1    H8 1125   5.960   0.785   9.825 -0.6293 -0.1792 -0.6595
   16CHL1   C14 1126   5.836   0.890   9.677  0.4196 -0.7348 -0.4534
   16CHL1   H14 1127   5.744   0.952   9.669 -0.0784 -1.7802 -3.5575
   16CHL1   C15 1128   5.801   0.778   9.573 -0.2111  0.1182 -0.2888
   16CHL1  H15A 1129   5.847   0.680   9.600 -1.5768 -0.1933  0.9939
   16CHL1  H15B 1130   5.690   0.773   9.566 -0.4054  1.6024  1.5079
   16CHL1   C16 1131   5.853   0.832   9.437 -0.0921  0.1545 -0.4734
   16CHL1  H16A 1132   5.939   0.766   9.414  0.2294  0.1720  0.6515
   16CHL1  H16B 1133   5.774   0.822   9.359 -1.2313 -0.9705  0.7924
   16CHL1   C17 1134   5.905   0.978   9.468 -0.7232  0.1890  0.1624
   16CHL1   H17 1135   5.818   1.047   9.466 -0.6007  0.3063 -2.0968
   16CHL1   C13 1136   5.951   0.971   9.618 -0.6290 -0.5035 -0.2978
   16CHL1   C18 1137   6.083   0.885   9.626 -0.7060 -0.4445 -0.6438
   16CHL1  H18A 1138   6.066   0.790   9.570 -0.6781  0.5059 -2.3091
   16CHL1  H18B 1139   6.161   0.944   9.573 -0.6514  1.5619  1.5890
   16CHL1  H18C 1140   6.118   0.862   9.729  1.7089 -1.6378 -1.6758
   16CHL1   C12 1141   5.957   1.102   9.705 -0.2666  0.5783 -0.0347
   16CHL1  H12A 1142   6.040   1.163   9.662 -0.4591  0.2075 -0.9496
   16CHL1  H12B 1143   5.857   1.150   9.695 -0.6474  0.0555  1.1649
   16CHL1   C11 1144   5.983   1.082   9.853 -0.0831 -0.1079 -0.3457
   16CHL1  H11A 1145   6.090   1.053   9.851 -0.3157 -0.9477 -1.4392
   16CHL1  H11B 1146   5.978   1.177   9.910 -1.7358 -0.1636 -0.3824
   16CHL1    C9 1147   5.895   0.967   9.914  0.3139  0.5677 -0.7132
   16CHL1    H9 1148   5.796   1.016   9.923  0.0943  0.2565 -1.4081
   16CHL1   C10 1149   5.930   0.920  10.064 -0.0600  0.2223  0.2133
   16CHL1   C19 1150   6.076   0.881  10.073  0.0565  0.3432  0.5926
   16CHL1  H19A 1151   6.142   0.967  10.049 -0.3409  0.1878 -1.1668
   16CHL1  H19B 1152   6.108   0.849  10.174  1.0183  0.5734  0.3674
   16CHL1  H19C 1153   6.097   0.795  10.005  0.5204  1.0793 -0.2017
   16CHL1    C1 1154   5.899   1.038  10.159  0.1132 -0.0494 -0.3091
   16CHL1   H1A 1155   5.967   1.116  10.119  1.9864  0.4403  3.5816
   16CHL1   H1B 1156   5.798   1.082  10.139  0.5280  1.2624  0.4490
   16CHL1    C2 1157   5.915   1.009  10.312  0.6404  0.6485 -0.9665
   16CHL1   H2A 1158   5.891   1.105  10.363 -1.4029  0.8687 -2.2897
   16CHL1   H2B 1159   6.022   0.984  10.326 -0.0910 -0.6017  2.9464
   16CHL1   C20 1160   6.005   1.029   9.365  0.0861  0.4264 -0.4617
   16CHL1   H20 1161   6.097   0.967   9.356  0.1571  0.6920 -1.7937
   16CHL1   C21 1162   6.057   1.167   9.398 -0.5170  0.5164 -0.1919
   16CHL1  H21A 1163   6.126   1.175   9.485 -0.1869 -2.5995 -0.1202
   16CHL1  H21B 1164   5.976   1.228   9.444 -1.7321 -0.5574 -0.8906
   16CHL1  H21C 1165   6.103   1.206   9.305 -0.4756  0.0098 -0.3869
   16CHL1   C22 1166   5.949   1.034   9.215  0.2098  0.0544  0.5782
   16CHL1  H22A 1167   5.912   0.930   9.201  1.2651 -0.3187  0.5830
   16CHL1  H22B 1168   5.865   1.102   9.191 -0.6728 -1.2533 -0.1071
   16CHL1   C23 1169   6.050   1.053   9.108  0.5127 -0.0543  0.2654
   16CHL1  H23A 1170   6.087   1.157   9.117  1.2856 -0.3676  0.8383
   16CHL1  H23B 1171   6.131   0.979   9.126  2.1669  1.6012 -0.2977
   16CHL1   C24 1172   5.988   1.035   8.970  0.2218 -0.9455 -0.1251
   16CHL1  H24A 1173   5.936   0.937   8.967 -0.1702 -0.6958 -2.0449
   16CHL1  H24B 1174   5.920   1.122   8.954  0.2364 -0.8017  0.5625
   16CHL1   C25 1175   6.086   1.019   8.856 -0.3750 -0.8309 -0.9094
   16CHL1   H25 1176   6.149   0.930   8.879 -1.0149 -1.1084 -0.1995
   16CHL1   C26 1177   6.015   0.991   8.721 -0.4176  0.0640  0.6975
   16CHL1  H26A 1178   5.947   1.073   8.691 -0.2307 -0.0241  0.0055
   16CHL1  H26B 1179   6.077   0.971   8.630 -0.6157 -2.9567  1.1716
   16CHL1  H26C 1180   5.962   0.894   8.736  2.2309 -1.5442 -0.0055
   16CHL1   C27 1181   6.169   1.150   8.845  0.7772 -0.3880 -0.3608
   16CHL1  H27A 1182   6.220   1.151   8.746  2.1172  2.8814  0.3017
   16CHL1  H27B 1183   6.104   1.240   8.838 -0.6400 -1.3458  0.2258
   16CHL1  H27C 1184   6.238   1.151   8.931  0.8757 -0.4554 -0.4398
   17CHL1    C3 1185   1.227   4.405  10.500  0.0703 -0.3358  0.4046
   17CHL1    H3 1186   1.286   4.499  10.499 -1.8386  0.9206  1.9798
   17CHL1    O3 1187   1.206   4.356  10.634  0.1793 -0.2984  0.0454
   17CHL1   H3' 1188   1.168   4.270  10.612 -3.0369  1.0566  0.0128
   17CHL1    C4 1189   1.083   4.438  10.442 -0.2993  0.4232 -0.1434
   17CHL1   H4A 1190   1.025   4.343  10.451 -1.2102  0.7857 -1.9305
   17CHL1   H4B 1191   1.035   4.513  10.508 -0.1445  0.6279 -0.2661
   17CHL1    C5 1192   1.068   4.468  10.291  0.3725  0.4593  0.3197
   17CHL1    C6 1193   1.013   4.585  10.249 -0.8066 -0.5388  0.4218
   17CHL1    H6 1194   0.959   4.658  10.312  0.0516  0.9770 -0.5680
   17CHL1    C7 1195   1.020   4.635  10.106 -0.1008  0.5586 -0.1145
   17CHL1   H7A 1196   0.929   4.690  10.076  0.1210  0.9668 -0.0453
   17CHL1   H7B 1197   1.094   4.717  10.103 -1.0702  1.4527  0.3760
   17CHL1    C8 1198   1.057   4.521  10.011  0.1534  0.0606 -0.6072
   17CHL1    H8 1199   0.971   4.450  10.007 -1.3224  1.8528 -0.9944
   17CHL1   C14 1200   1.080   4.566   9.871 -0.1662  0.0233  0.6430
   17CHL1   H14 1201   1.165   4.637   9.884 -1.3770  1.8490 -1.1847
   17CHL1   C15 1202   0.976   4.641   9.799 -0.0614  0.2365 -0.3883
   17CHL1  H15A 1203   0.879   4.588   9.810  0.8217 -1.7479 -1.9440
   17CHL1  H15B 1204   0.965   4.747   9.830  1.5175 -0.0379  1.1918
   17CHL1   C16 1205   1.014   4.636   9.649  0.5113  0.6186 -0.0697
   17CHL1  H16A 1206   0.928   4.612   9.583  1.7973  1.6463 -2.1580
   17CHL1  H16B 1207   1.044   4.739   9.622  1.7059  0.6519  1.3046
   17CHL1   C17 1208   1.125   4.526   9.640  0.0281  0.3700 -0.4601
   17CHL1   H17 1209   1.223   4.575   9.626  0.8108 -1.1724 -0.5250
   17CHL1   C13 1210   1.121   4.453   9.779 -0.0641  0.9459  0.3699
   17CHL1   C18 1211   1.019   4.340   9.774 -0.0906  0.2279  0.1616
   17CHL1  H18A 1212   0.930   4.356   9.710  0.5299  0.2411 -0.7188
   17CHL1  H18B 1213   1.056   4.250   9.720  0.5540  0.5195  0.1008
   17CHL1  H18C 1214   0.983   4.326   9.878 -2.5878  2.6015 -0.3237
   17CHL1   C12 1215   1.259   4.401   9.824 -0.0924 -0.4767  0.1041
   17CHL1  H12A 1216   1.295   4.317   9.761 -0.8145 -0.3609 -0.4736
   17CHL1  H12B 1217   1.329   4.487   9.816 -1.2143  0.5817  1.4773
   17CHL1   C11 1218   1.256   4.350   9.964 -0.0809 -0.4266 -0.1540
   17CHL1  H11A 1219   1.216   4.247   9.976 -0.5120  0.0747  3.0323
   17CHL1  H11B 1220   1.359   4.337  10.005 -0.1488 -0.9173 -0.1342
   17CHL1    C9 1221   1.180   4.444  10.066  0.5228  0.4314 -0.6588
   17CHL1    H9 1222   1.258   4.517  10.097  2.0017  0.1191 -3.5578
   17CHL1   C10 1223   1.157   4.375  10.205 -0.6186 -0.6363  0.0121
   17CHL1   C19 1224   1.066   4.250  10.184  0.4224  0.1892 -0.7197
   17CHL1  H19A 1225   0.975   4.274  10.126 -0.6705 -0.9313  0.4781
   17CHL1  H19B 1226   1.126   4.171  10.133  0.3610 -1.5908  1.8575
   17CHL1  H19C 1227   1.028   4.207  10.280  2.8885  1.4809  0.8911
   17CHL1    C1 1228   1.294   4.335  10.263  0.4384  0.0521 -0.6422
   17CHL1   H1A 1229   1.329   4.245  10.207  0.0588 -1.5496  1.6449
   17CHL1   H1B 1230   1.364   4.421  10.253 -0.6849  1.2163  1.1927
   17CHL1    C2 1231   1.295   4.301  10.414 -0.1023  1.2250 -0.2338
   17CHL1   H2A 1232   1.402   4.295  10.444  0.0786  0.2620 -1.0495
   17CHL1   H2B 1233   1.243   4.205  10.434  1.2994  0.1354 -1.7427
   17CHL1   C20 1234   1.106   4.440   9.509  0.5226  0.2244 -0.8379
   17CHL1   H20 1235   1.005   4.396   9.498  0.2258  0.8403 -0.6231
   17CHL1   C21 1236   1.219   4.334   9.497  0.1892 -0.5061 -0.0477
   17CHL1  H21A 1237   1.221   4.263   9.582  0.6335 -0.9693 -0.4409
   17CHL1  H21B 1238   1.312   4.381   9.460 -0.4296 -0.2445 -1.2984
   17CHL1  H21C 1239   1.183   4.279   9.407  1.8475  1.5024 -2.0017
   17CHL1   C22 1240   1.109   4.537   9.383 -0.1594 -0.3732 -1.2285
   17CHL1  H22A 1241   1.031   4.615   9.391  0.8811  0.7564 -2.0135
   17CHL1  H22B 1242   1.208   4.587   9.384 -0.5028  0.3447 -2.3720
   17CHL1   C23 1243   1.088   4.465   9.252  0.2240  0.5909 -0.5079
   17CHL1  H23A 1244   1.166   4.387   9.239  2.5772  2.8318 -0.1681
   17CHL1  H23B 1245   0.983   4.429   9.259  0.4232 -0.3434 -2.1549
   17CHL1   C24 1246   1.098   4.566   9.138  0.5209  0.7398  0.2693
   17CHL1  H24A 1247   1.042   4.660   9.162 -0.9496 -0.5891  2.2396
   17CHL1  H24B 1248   1.202   4.601   9.122  1.3845 -1.6317  0.5014
   17CHL1   C25 1249   1.058   4.512   9.004 -0.8014 -0.2042 -0.0638
   17CHL1   H25 1250   1.097   4.408   8.994 -1.4799 -0.6242  1.5881
   17CHL1   C26 1251   0.905   4.500   8.976 -0.4663  0.0029  0.7238
   17CHL1  H26A 1252   0.851   4.597   8.975 -0.5035 -0.0228  0.0234
   17CHL1  H26B 1253   0.901   4.443   8.881  1.2007 -0.7234  1.0662
   17CHL1  H26C 1254   0.863   4.435   9.056 -0.7313  3.1287  3.2179
   17CHL1   C27 1255   1.133   4.595   8.896  0.7654 -0.1384 -0.4514
   17CHL1  H27A 1256   1.088   4.693   8.873 -1.1364 -1.2182 -1.4315
   17CHL1  H27B 1257   1.244   4.601   8.899  0.9303 -2.8821  1.0345
   17CHL1  H27C 1258   1.111   4.540   8.802  1.7434 -0.9696 -0.2169
   18CHL1    C3 1259   0.021   3.579  10.210  0.1178 -0.0215  0.4725
   18CHL1    H3 1260  -0.085   3.548  10.197  0.7153 -1.9188 -0.0134
   18CHL1    O3 1261   0.020   3.649  10.339 -0.1279 -0.2715 -0.3098
   18CHL1   H3' 1262   0.072   3.729  10.327 -0.5993 -0.1885 -1.7867
   18CHL1    C4 1263   0.125   3.467  10.205 -0.3261 -0.2388  0.3070
   18CHL1   H4A 1264   0.221   3.504  10.247 -0.2876 -1.7399  1.5888
   18CHL1   H4B 1265   0.095   3.395  10.284 -0.4335 -2.2235 -1.5239
   18CHL1    C5 1266   0.137   3.408  10.063 -1.1061 -0.4088 -0.5686
   18CHL1    C6 1267   0.114   3.279  10.047 -0.1478 -1.2879  0.0742
   18CHL1    H6 1268   0.087   3.221  10.136  0.0277 -0.3349  0.7674
   18CHL1    C7 1269   0.110   3.202   9.918 -0.2322 -0.6016 -0.2365
   18CHL1   H7A 1270   0.176   3.113   9.927  1.0651  0.6936  4.7758
   18CHL1   H7B 1271   0.005   3.184   9.886 -0.8832  1.4568  0.7117
   18CHL1    C8 1272   0.174   3.289   9.802  0.1629 -0.5130 -0.3367
   18CHL1    H8 1273   0.284   3.288   9.815  0.0417  0.6150  0.9371
   18CHL1   C14 1274   0.138   3.234   9.665 -0.5022 -0.0931 -0.2087
   18CHL1   H14 1275   0.027   3.246   9.661 -0.3279  1.2927 -1.2404
   18CHL1   C15 1276   0.179   3.089   9.634 -0.7467  0.4869 -0.2105
   18CHL1  H15A 1277   0.281   3.062   9.670  0.0282  1.8870 -1.2895
   18CHL1  H15B 1278   0.109   3.025   9.692  0.5989 -1.9149 -1.1557
   18CHL1   C16 1279   0.155   3.073   9.490  0.4468 -0.1341 -0.3444
   18CHL1  H16A 1280   0.252   3.053   9.440 -0.3918  1.3109 -2.6509
   18CHL1  H16B 1281   0.084   2.991   9.467  0.6963 -0.1858 -0.9490
   18CHL1   C17 1282   0.110   3.210   9.435 -0.6262 -0.5314  0.2206
   18CHL1   H17 1283   0.000   3.219   9.450 -0.4944  0.6324  0.5612
   18CHL1   C13 1284   0.180   3.310   9.543  0.4702  0.3227  0.1885
   18CHL1   C18 1285   0.333   3.304   9.536 -0.5142 -0.6872  0.8584
   18CHL1  H18A 1286   0.378   3.375   9.463 -2.5402  0.5785  0.8014
   18CHL1  H18B 1287   0.376   3.332   9.634  2.1592  3.3636 -1.3424
   18CHL1  H18C 1288   0.369   3.202   9.507 -2.8042 -1.1549 -0.4895
   18CHL1   C12 1289   0.127   3.451   9.552  0.4851 -0.1674 -0.6711
   18CHL1  H12A 1290   0.165   3.510   9.466 -0.1103  0.3450 -0.5915
   18CHL1  H12B 1291   0.017   3.440   9.542  0.6067 -0.1570 -2.1272
   18CHL1   C11 1292   0.155   3.519   9.686 -0.2702  0.4337 -0.4431
   18CHL1  H11A 1293   0.260   3.552   9.674 -0.6756  0.8071 -3.3058
   18CHL1  H11B 1294   0.092   3.609   9.693  0.2950  0.7685  0.4017
   18CHL1    C9 1295   0.119   3.429   9.810  0.1294  0.6261 -0.0511
   18CHL1    H9 1296   0.009   3.415   9.812  0.3245 -0.8298  1.8914
   18CHL1   C10 1297   0.148   3.502   9.947  0.5169  0.0430 -0.1321
   18CHL1   C19 1298   0.292   3.551   9.948  0.1171  0.9889  0.4750
   18CHL1  H19A 1299   0.358   3.462   9.942  2.0887  2.4187  0.3757
   18CHL1  H19B 1300   0.324   3.615   9.863  0.7296  1.6506  1.1892
   18CHL1  H19C 1301   0.318   3.601  10.044  1.1038 -0.6030  1.0506
   18CHL1    C1 1302   0.048   3.615   9.964 -0.4953  0.4196  0.4931
   18CHL1   H1A 1303   0.069   3.692   9.887 -1.4822  2.2153  1.9852
   18CHL1   H1B 1304  -0.053   3.578   9.936 -0.9062  1.6286  0.3429
   18CHL1    C2 1305   0.037   3.680  10.102 -0.1121 -0.3465  0.0896
   18CHL1   H2A 1306  -0.041   3.759  10.111  0.7120  0.4920 -0.1289
   18CHL1   H2B 1307   0.139   3.721  10.113 -0.1892  0.0781 -0.6916
   18CHL1   C20 1308   0.151   3.226   9.286 -0.5173  0.3522 -0.0991
   18CHL1   H20 1309   0.262   3.230   9.281 -0.4661 -0.8505 -0.0655
   18CHL1   C21 1310   0.120   3.362   9.225 -0.4060 -0.0185  0.0439
   18CHL1  H21A 1311   0.019   3.387   9.263 -0.7444 -1.1372 -0.0962
   18CHL1  H21B 1312   0.132   3.364   9.115 -0.1787  2.3555  0.0872
   18CHL1  H21C 1313   0.197   3.435   9.258 -0.9221  0.6783 -0.2891
   18CHL1   C22 1314   0.107   3.106   9.190 -0.2425 -0.3748  0.6532
   18CHL1  H22A 1315   0.144   3.012   9.236 -0.6946 -0.7486  0.2531
   18CHL1  H22B 1316  -0.003   3.112   9.177 -0.1905 -0.3027  0.2429
   18CHL1   C23 1317   0.174   3.109   9.049  0.4790 -1.0462 -0.4637
   18CHL1  H23A 1318   0.117   3.186   8.993  1.7149 -1.1975 -1.9512
   18CHL1  H23B 1319   0.279   3.146   9.057  0.5405 -1.0973 -1.0387
   18CHL1   C24 1320   0.145   2.983   8.973 -0.2794  0.7170  0.7942
   18CHL1  H24A 1321   0.207   2.896   9.005 -0.3555  0.2366 -0.3341
   18CHL1  H24B 1322   0.040   2.954   8.995  1.1566 -4.3333  1.6742
   18CHL1   C25 1323   0.157   2.997   8.819  0.0211  0.2828  0.5391
   18CHL1   H25 1324   0.141   2.897   8.774 -1.1245  0.1402  1.2278
   18CHL1   C26 1325   0.039   3.081   8.764 -0.5538  0.2351  0.0787
   18CHL1  H26A 1326   0.038   3.090   8.653 -2.6934  0.0879  0.0693
   18CHL1  H26B 1327  -0.057   3.028   8.782  0.1218 -0.9874  0.1686
   18CHL1  H26C 1328   0.043   3.184   8.804 -1.1629 -0.0148  0.7812
   18CHL1   C27 1329   0.293   3.061   8.774  0.2207  0.1228  0.7089
   18CHL1  H27A 1330   0.373   3.029   8.844  2.0404 -0.8103 -1.7542
   18CHL1  H27B 1331   0.330   3.044   8.671  0.3662  2.4715  0.3300
   18CHL1  H27C 1332   0.285   3.171   8.789 -0.4610  0.1995 -0.1462
   19CHL1    C3 1333   4.676   5.981  10.064  0.5139  0.6229  0.1967
   19CHL1    H3 1334   4.670   5.871  10.050  0.2229  0.8927 -1.8900
   19CHL1    O3 1335   4.676   6.010  10.206  0.2674 -0.0299 -0.1957
   19CHL1   H3' 1336   4.740   5.945  10.236  0.4508 -0.6171 -1.8306
   19CHL1    C4 1337   4.813   6.018  10.006  0.4784  0.3231 -0.0142
   19CHL1   H4A 1338   4.828   6.123  10.039  0.9201  0.2926 -0.1173
   19CHL1   H4B 1339   4.893   5.966  10.062 -1.0756 -0.3529  1.6526
   19CHL1    C5 1340   4.810   5.986   9.856 -0.2108 -0.4983  0.5046
   19CHL1    C6 1341   4.904   5.909   9.796 -0.0297  0.2108  0.3963
   19CHL1    H6 1342   4.980   5.870   9.865  0.7550  1.2366  0.1206
   19CHL1    C7 1343   4.917   5.871   9.653  0.6116 -0.1175 -0.2667
   19CHL1   H7A 1344   5.025   5.872   9.628  1.0777  1.9611  1.6589
   19CHL1   H7B 1345   4.872   5.771   9.633 -0.8340 -0.1574  2.8744
   19CHL1    C8 1346   4.834   5.977   9.567 -0.1916  0.9320 -0.0512
   19CHL1    H8 1347   4.886   6.075   9.562  2.2469 -0.1415  2.5391
   19CHL1   C14 1348   4.813   5.930   9.426 -0.6112  0.1812  0.0395
   19CHL1   H14 1349   4.749   5.839   9.421 -0.4183 -0.0257  1.3185
   19CHL1   C15 1350   4.941   5.885   9.343  0.3744 -0.2569 -0.0878
   19CHL1  H15A 1351   5.017   5.963   9.365 -1.4204  1.8582 -1.1692
   19CHL1  H15B 1352   4.984   5.788   9.378 -0.5433 -0.1806  1.3232
   19CHL1   C16 1353   4.896   5.875   9.196  0.0644  0.6933 -0.2596
   19CHL1  H16A 1354   4.962   5.948   9.144 -0.5029  1.7988  0.5574
   19CHL1  H16B 1355   4.909   5.773   9.153  0.3058 -0.4533  2.4240
   19CHL1   C17 1356   4.751   5.933   9.198  0.1199  1.1705 -0.7541
   19CHL1   H17 1357   4.685   5.846   9.218 -1.7176  2.6003 -0.4885
   19CHL1   C13 1358   4.740   6.027   9.332 -0.6015 -0.4921  0.7286
   19CHL1   C18 1359   4.808   6.170   9.301 -0.7271 -0.1976 -0.1318
   19CHL1  H18A 1360   4.840   6.224   9.392  1.7079  0.6041 -1.4005
   19CHL1  H18B 1361   4.900   6.141   9.246 -1.3497 -2.6736  0.1006
   19CHL1  H18C 1362   4.742   6.239   9.243  0.0993 -0.3866 -1.3031
   19CHL1   C12 1363   4.604   6.060   9.394  0.2519 -0.4458 -0.2403
   19CHL1  H12A 1364   4.539   6.134   9.342  1.7671  2.5532  1.9838
   19CHL1  H12B 1365   4.546   5.965   9.391 -0.0511 -0.2604 -0.3502
   19CHL1   C11 1366   4.620   6.109   9.538 -0.2074 -0.3716 -0.8894
   19CHL1  H11A 1367   4.660   6.212   9.528  0.2293 -0.5124 -0.6310
   19CHL1  H11B 1368   4.517   6.121   9.576 -2.2439 -2.0277 -5.5121
   19CHL1    C9 1369   4.698   6.011   9.634 -1.1649  0.2359 -0.0015
   19CHL1    H9 1370   4.637   5.919   9.630  2.1545 -2.0309 -1.1947
   19CHL1   C10 1371   4.708   6.067   9.776 -0.0355 -0.1432 -0.6365
   19CHL1   C19 1372   4.757   6.211   9.768 -0.2285 -0.5038 -0.5417
   19CHL1  H19A 1373   4.842   6.226   9.698 -0.4265  1.0630 -0.4623
   19CHL1  H19B 1374   4.677   6.285   9.746  2.3528  2.4638 -0.1516
   19CHL1  H19C 1375   4.797   6.242   9.866 -1.7958 -0.0669 -0.0324
   19CHL1    C1 1376   4.570   6.053   9.835 -0.2670 -0.8669  0.3340
   19CHL1   H1A 1377   4.515   6.140   9.794  1.1877 -1.0763 -2.2259
   19CHL1   H1B 1378   4.520   5.966   9.789 -2.1384  1.5776 -2.4560
   19CHL1    C2 1379   4.564   6.055   9.991 -0.5381  0.7580 -0.1160
   19CHL1   H2A 1380   4.461   6.023  10.019 -0.0257  0.0368  1.0091
   19CHL1   H2B 1381   4.564   6.163  10.018  1.1062  1.1351 -1.5438
   19CHL1   C20 1382   4.710   6.000   9.070 -0.2974 -0.0883  0.0411
   19CHL1   H20 1383   4.745   6.105   9.069  1.6581 -0.6896  1.7844
   19CHL1   C21 1384   4.559   6.009   9.078 -0.0105 -0.2307 -0.5215
   19CHL1  H21A 1385   4.529   6.064   8.986  1.0940  0.4348 -0.4844
   19CHL1  H21B 1386   4.511   6.065   9.160  0.2686 -0.9617  0.1480
   19CHL1  H21C 1387   4.507   5.910   9.073  0.0815 -0.3240  0.3763
   19CHL1   C22 1388   4.764   5.946   8.937 -0.4751  0.5132  0.1484
   19CHL1  H22A 1389   4.874   5.960   8.932 -0.3076 -1.0199 -0.8715
   19CHL1  H22B 1390   4.738   5.838   8.934 -0.0236  0.3929  0.5040
   19CHL1   C23 1391   4.701   6.006   8.813  0.1171  0.7109 -0.0728
   19CHL1  H23A 1392   4.743   5.946   8.729 -0.9673  1.3743 -1.1097
   19CHL1  H23B 1393   4.594   5.975   8.816 -0.4819  2.6383 -0.8913
   19CHL1   C24 1394   4.723   6.155   8.794  0.0514  0.4958  0.4911
   19CHL1  H24A 1395   4.673   6.203   8.881 -1.1434 -0.4172  0.3318
   19CHL1  H24B 1396   4.831   6.176   8.803  0.3764 -1.7023  2.0414
   19CHL1   C25 1397   4.680   6.216   8.658  0.0025 -0.2932  0.6576
   19CHL1   H25 1398   4.733   6.164   8.575 -0.2156 -1.3148  1.1428
   19CHL1   C26 1399   4.534   6.212   8.646  0.3565 -0.1656  0.6892
   19CHL1  H26A 1400   4.469   6.250   8.728  1.6369  2.6636  0.4332
   19CHL1  H26B 1401   4.489   6.260   8.556 -0.1689 -5.1715 -1.9039
   19CHL1  H26C 1402   4.505   6.105   8.645  2.2357 -0.7000  2.0238
   19CHL1   C27 1403   4.733   6.361   8.664 -0.2766 -0.0392  0.1729
   19CHL1  H27A 1404   4.673   6.399   8.749 -1.0130  1.5410 -1.0117
   19CHL1  H27B 1405   4.840   6.364   8.695 -0.3034  1.3770  0.1579
   19CHL1  H27C 1406   4.719   6.406   8.563  1.5917 -0.6137 -0.3748
   20CHL1    C3 1407   0.164   0.565  10.478  0.5952  0.3911  0.4589
   20CHL1    H3 1408   0.144   0.673  10.460 -2.4672 -0.5208 -2.1269
   20CHL1    O3 1409   0.145   0.521  10.608 -0.1228 -0.2776  0.1249
   20CHL1   H3' 1410   0.213   0.569  10.657 -0.1871 -0.6839  0.6192
   20CHL1    C4 1411   0.073   0.479  10.400  0.1894  0.2720 -0.1836
   20CHL1   H4A 1412   0.083   0.371  10.423  0.9930  0.8147  2.1543
   20CHL1   H4B 1413  -0.033   0.499  10.424 -0.9794 -0.4002 -4.3147
   20CHL1    C5 1414   0.095   0.499  10.251 -0.8397 -0.4677  0.3155
   20CHL1    C6 1415  -0.010   0.528  10.165 -0.3972  0.0260  0.0261
   20CHL1    H6 1416  -0.109   0.530  10.213  0.9423  0.6889  2.8240
   20CHL1    C7 1417   0.001   0.528  10.020 -0.4792  0.7293  0.1328
   20CHL1   H7A 1418  -0.086   0.474   9.977  1.8986 -1.2227 -2.4104
   20CHL1   H7B 1419  -0.012   0.632   9.981 -1.9842  0.7610  0.6663
   20CHL1    C8 1420   0.135   0.462   9.968 -0.3504  0.0669  0.3043
   20CHL1    H8 1421   0.117   0.353   9.974 -2.3401  0.3132 -0.8374
   20CHL1   C14 1422   0.162   0.516   9.826 -0.3312  0.1598  0.1140
   20CHL1   H14 1423   0.186   0.624   9.838  0.2302  0.2390 -1.5447
   20CHL1   C15 1424   0.047   0.520   9.723 -0.8114 -0.0098 -0.4088
   20CHL1  H15A 1425  -0.021   0.433   9.737 -1.5408  0.4971 -0.7561
   20CHL1  H15B 1426  -0.012   0.612   9.740  1.1006  0.9558  1.2322
   20CHL1   C16 1427   0.112   0.509   9.587  0.5256  0.4518 -0.2416
   20CHL1  H16A 1428   0.087   0.408   9.547  0.3360  0.3665  0.0907
   20CHL1  H16B 1429   0.057   0.585   9.528 -1.1957 -1.6526 -1.4309
   20CHL1   C17 1430   0.263   0.527   9.613 -0.2654  0.1740 -0.3653
   20CHL1   H17 1431   0.280   0.635   9.636  0.6459  0.5099 -2.4997
   20CHL1   C13 1432   0.282   0.454   9.755 -1.0573  0.3446  0.4692
   20CHL1   C18 1433   0.262   0.297   9.747 -0.4242 -0.4582 -0.5977
   20CHL1  H18A 1434   0.277   0.256   9.848  2.1001 -0.9709 -1.1590
   20CHL1  H18B 1435   0.166   0.273   9.695 -0.7826 -0.2141 -0.0529
   20CHL1  H18C 1436   0.328   0.241   9.678  0.8986 -1.5638  1.5281
   20CHL1   C12 1437   0.401   0.489   9.842 -0.0863  1.1529  0.5067
   20CHL1  H12A 1438   0.498   0.449   9.806 -0.5854  0.9368 -0.6086
   20CHL1  H12B 1439   0.398   0.600   9.842 -2.4222  1.1112 -0.6551
   20CHL1   C11 1440   0.388   0.448   9.990  0.2215  0.3970 -0.0059
   20CHL1  H11A 1441   0.372   0.338   9.996  4.0476 -0.2049  0.6579
   20CHL1  H11B 1442   0.475   0.481  10.051 -0.2931 -0.0891  1.0074
   20CHL1    C9 1443   0.262   0.506  10.053  0.4449 -0.0515 -0.1827
   20CHL1    H9 1444   0.260   0.616  10.046  0.4306 -0.0356  0.0883
   20CHL1   C10 1445   0.236   0.478  10.203  1.2305 -0.5465  0.8658
   20CHL1   C19 1446   0.257   0.324  10.230  0.1605 -0.2946  0.0597
   20CHL1  H19A 1447   0.239   0.281  10.331  2.6558  0.6363  0.9528
   20CHL1  H19B 1448   0.200   0.270  10.152 -2.0608  2.3396 -0.1966
   20CHL1  H19C 1449   0.364   0.312  10.203  0.5227  2.7053 -0.0243
   20CHL1    C1 1450   0.328   0.554  10.295 -0.1645 -0.2960  0.2096
   20CHL1   H1A 1451   0.431   0.524  10.265 -0.0658  0.0470  0.2015
   20CHL1   H1B 1452   0.320   0.662  10.267  1.3474 -0.5400 -1.2452
   20CHL1    C2 1453   0.311   0.542  10.444  0.3497  0.0803  0.3959
   20CHL1   H2A 1454   0.390   0.596  10.501  0.8862  0.0848 -0.3395
   20CHL1   H2B 1455   0.343   0.439  10.470  3.5905  0.6582 -1.0565
   20CHL1   C20 1456   0.354   0.475   9.507  0.0729  0.5221  0.1411
   20CHL1   H20 1457   0.324   0.369   9.498  0.2814  0.4542  0.2543
   20CHL1   C21 1458   0.506   0.490   9.534  0.4625 -0.3526 -0.9728
   20CHL1  H21A 1459   0.520   0.588   9.584  0.1520  0.1762 -1.9062
   20CHL1  H21B 1460   0.566   0.483   9.440  1.4079  0.2387 -0.4214
   20CHL1  H21C 1461   0.548   0.417   9.607 -1.8823 -0.3701  0.3943
   20CHL1   C22 1462   0.325   0.546   9.373 -0.7869 -0.4619  0.3817
   20CHL1  H22A 1463   0.217   0.571   9.358  0.2387  3.8606 -0.4164
   20CHL1  H22B 1464   0.362   0.649   9.383 -0.7025 -0.3399 -1.0834
   20CHL1   C23 1465   0.379   0.483   9.240 -0.1887  0.2573 -0.2623
   20CHL1  H23A 1466   0.488   0.459   9.237 -0.6484 -2.1322  1.2394
   20CHL1  H23B 1467   0.333   0.383   9.229  1.2407 -0.7867  2.8084
   20CHL1   C24 1468   0.361   0.569   9.115  0.6823  1.0798 -0.3124
   20CHL1  H24A 1469   0.254   0.599   9.112 -0.0004 -0.8527  2.0917
   20CHL1  H24B 1470   0.428   0.657   9.117  2.8139 -0.5158  0.5827
   20CHL1   C25 1471   0.392   0.482   8.987  0.2512 -0.1368 -0.4739
   20CHL1   H25 1472   0.328   0.393   8.973 -0.9616  0.9471 -2.0610
   20CHL1   C26 1473   0.354   0.565   8.861 -0.4103 -0.2639 -0.3915
   20CHL1  H26A 1474   0.442   0.630   8.839  0.0206 -0.6694  0.1139
   20CHL1  H26B 1475   0.329   0.501   8.774 -0.7479  0.3370 -0.7396
   20CHL1  H26C 1476   0.270   0.636   8.871  0.6928  1.1875 -1.1958
   20CHL1   C27 1477   0.535   0.427   8.974  0.6272  0.2359  0.1562
   20CHL1  H27A 1478   0.601   0.516   8.975 -0.1530  0.8142  0.0263
   20CHL1  H27B 1479   0.569   0.364   9.059  1.2856 -1.0445 -1.0203
   20CHL1  H27C 1480   0.537   0.369   8.879  0.3181 -0.5099  0.5976
   21CHL1    C3 1481   6.169   3.830  10.146 -0.3503 -0.0803  0.1388
   21CHL1    H3 1482   6.095   3.910  10.129  2.8306  2.6014 -1.7797
   21CHL1    O3 1483   6.244   3.855  10.263  0.5372  0.0889  0.0833
   21CHL1   H3' 1484   6.297   3.776  10.278 -1.8681 -1.7809 -1.0048
   21CHL1    C4 1485   6.102   3.692  10.160 -0.4326 -0.3704 -0.2325
   21CHL1   H4A 1486   6.187   3.623  10.176  2.3865  2.4727 -2.2725
   21CHL1   H4B 1487   6.038   3.691  10.250  0.5797  1.0321  0.5127
   21CHL1    C5 1488   6.035   3.647  10.032 -0.1783 -0.4362  0.4960
   21CHL1    C6 1489   5.907   3.613  10.029  0.2430  1.6030 -0.1164
   21CHL1    H6 1490   5.854   3.599  10.125 -1.9968 -1.3709 -1.7089
   21CHL1    C7 1491   5.835   3.554   9.908  0.5625 -0.3740 -0.2196
   21CHL1   H7A 1492   5.783   3.460   9.935 -2.2200  1.0685 -0.3366
   21CHL1   H7B 1493   5.746   3.618   9.888  0.6266 -0.7501 -1.7605
   21CHL1    C8 1494   5.928   3.541   9.785 -0.2998 -0.0375 -0.6710
   21CHL1    H8 1495   5.978   3.442   9.791  0.1125  0.2117  0.1164
   21CHL1   C14 1496   5.853   3.532   9.658 -0.6783  0.1906 -0.0663
   21CHL1   H14 1497   5.802   3.627   9.635 -2.5904 -0.4559  1.4420
   21CHL1   C15 1498   5.729   3.429   9.637  0.0068  0.0005 -0.0393
   21CHL1  H15A 1499   5.752   3.334   9.691  0.4559 -0.5013 -1.0956
   21CHL1  H15B 1500   5.640   3.468   9.691 -0.6034  0.5608 -1.4302
   21CHL1   C16 1501   5.708   3.426   9.492 -0.5325 -0.3778  0.2440
   21CHL1  H16A 1502   5.699   3.320   9.460 -1.2342 -0.1775 -0.2506
   21CHL1  H16B 1503   5.620   3.488   9.465 -0.8701 -0.6418  0.7233
   21CHL1   C17 1504   5.836   3.483   9.424  0.2318  0.3321  0.5308
   21CHL1   H17 1505   5.814   3.588   9.393  2.5328  1.0331  1.1863
   21CHL1   C13 1506   5.944   3.499   9.536  0.1411  0.6754 -0.8333
   21CHL1   C18 1507   6.003   3.359   9.553  0.2437  0.1790 -0.3263
   21CHL1  H18A 1508   5.922   3.284   9.562  1.5303 -0.8504  4.0400
   21CHL1  H18B 1509   6.077   3.328   9.476 -0.3096  0.3250 -0.9151
   21CHL1  H18C 1510   6.063   3.353   9.646 -2.0825  1.0091  1.2548
   21CHL1   C12 1511   6.054   3.604   9.521 -0.6052  0.6126  0.6273
   21CHL1  H12A 1512   6.123   3.563   9.444 -1.6910 -0.4527  0.2054
   21CHL1  H12B 1513   6.005   3.696   9.482  0.0197  0.5640 -0.2909
   21CHL1   C11 1514   6.131   3.626   9.651  0.2636  0.3862 -0.4684
   21CHL1  H11A 1515   6.174   3.524   9.652  0.8945  0.6630  0.9321
   21CHL1  H11B 1516   6.211   3.701   9.631  0.6477 -0.0079 -0.4206
   21CHL1    C9 1517   6.041   3.648   9.771  0.6467  0.6504 -0.7318
   21CHL1    H9 1518   5.992   3.747   9.758 -0.5690  0.4909  2.3398
   21CHL1   C10 1519   6.118   3.653   9.902 -0.7321  0.2499  0.5353
   21CHL1   C19 1520   6.227   3.539   9.916 -0.4862 -0.4857 -0.2647
   21CHL1  H19A 1521   6.165   3.447   9.914 -0.6655 -0.3425 -2.6447
   21CHL1  H19B 1522   6.297   3.538   9.830  0.0875  1.6199  0.1357
   21CHL1  H19C 1523   6.279   3.555  10.013 -2.3288 -0.5689  0.7629
   21CHL1    C1 1524   6.196   3.790   9.899  0.1796  0.6353 -0.4190
   21CHL1   H1A 1525   6.272   3.803   9.818  2.1448  3.2640  1.7317
   21CHL1   H1B 1526   6.124   3.870   9.872  0.1461  1.0358  0.8380
   21CHL1    C2 1527   6.264   3.838  10.024 -0.5905  0.0263 -0.1477
   21CHL1   H2A 1528   6.306   3.941  10.023 -0.1691 -0.1474 -1.0064
   21CHL1   H2B 1529   6.355   3.775  10.031 -0.2910  0.3898 -0.6726
   21CHL1   C20 1530   5.876   3.396   9.297  0.1870 -0.6634  0.1903
   21CHL1   H20 1531   5.913   3.300   9.339 -2.9238 -1.6182  0.9123
   21CHL1   C21 1532   6.003   3.450   9.224 -0.2559 -0.9209 -0.3883
   21CHL1  H21A 1533   6.023   3.388   9.134  1.4523 -1.8419  0.6079
   21CHL1  H21B 1534   6.099   3.455   9.278 -0.4722  3.4606 -0.2165
   21CHL1  H21C 1535   5.978   3.553   9.192 -1.4683 -0.6332  1.3981
   21CHL1   C22 1536   5.749   3.371   9.202 -0.4387 -0.8590  0.6383
   21CHL1  H22A 1537   5.790   3.322   9.111 -4.7972  1.9633 -3.0942
   21CHL1  H22B 1538   5.675   3.302   9.248 -0.6411 -0.5442  0.7862
   21CHL1   C23 1539   5.684   3.496   9.153  0.6389  0.2693  0.0922
   21CHL1  H23A 1540   5.668   3.574   9.231  0.1922  0.0532  0.2174
   21CHL1  H23B 1541   5.760   3.546   9.088  1.9507 -1.4382  0.2736
   21CHL1   C24 1542   5.563   3.491   9.059  0.5270  0.2280  0.5151
   21CHL1  H24A 1543   5.484   3.432   9.111  2.8814 -3.9039 -0.3302
   21CHL1  H24B 1544   5.525   3.592   9.035 -0.0414  0.0406  0.6063
   21CHL1   C25 1545   5.591   3.425   8.920 -0.1305 -0.0785 -0.3015
   21CHL1   H25 1546   5.637   3.326   8.939 -0.9182 -0.2067  0.9731
   21CHL1   C26 1547   5.462   3.387   8.852 -0.0865 -0.1695  0.1567
   21CHL1  H26A 1548   5.389   3.334   8.916 -2.3400  1.7130 -0.7744
   21CHL1  H26B 1549   5.411   3.475   8.808 -0.0071 -0.2575 -0.1188
   21CHL1  H26C 1550   5.481   3.318   8.767 -0.3843 -0.5540  0.3996
   21CHL1   C27 1551   5.674   3.518   8.818 -0.2462  0.1713  0.4737
   21CHL1  H27A 1552   5.780   3.536   8.845 -0.3856  1.1864  0.3535
   21CHL1  H27B 1553   5.673   3.487   8.711  1.7185  1.2843  0.1117
   21CHL1  H27C 1554   5.621   3.615   8.813  0.0882  0.2677 -1.5893
   22CHL1    C3 1555   5.611   4.617  10.033 -0.1791 -0.4667  0.0033
   22CHL1    H3 1556   5.504   4.595  10.015 -0.6801  2.4262 -0.7363
   22CHL1    O3 1557   5.646   4.597  10.169 -0.2676 -0.0528 -0.6372
   22CHL1   H3' 1558   5.741   4.599  10.162 -0.2806 -2.8717 -2.5662
   22CHL1    C4 1559   5.691   4.519   9.951 -0.4394  0.0844  1.0774
   22CHL1   H4A 1560   5.799   4.539   9.970 -0.3161  2.4985 -1.7690
   22CHL1   H4B 1561   5.672   4.416   9.986 -2.2396  0.4821  1.3083
   22CHL1    C5 1562   5.679   4.524   9.800 -0.2264 -0.8232  0.1506
   22CHL1    C6 1563   5.637   4.424   9.727 -0.3062  0.1879 -0.0145
   22CHL1    H6 1564   5.602   4.330   9.773 -1.0066 -1.4819 -3.7497
   22CHL1    C7 1565   5.628   4.418   9.576 -0.2570  0.0080  0.4255
   22CHL1   H7A 1566   5.690   4.331   9.549  0.8837  1.4741 -1.8238
   22CHL1   H7B 1567   5.523   4.409   9.540  0.3065  0.5048 -1.3735
   22CHL1    C8 1568   5.688   4.541   9.508 -0.4251  0.3650  0.4679
   22CHL1    H8 1569   5.797   4.524   9.524 -1.0163 -0.9830  3.5265
   22CHL1   C14 1570   5.649   4.562   9.365 -0.4261  0.5967  0.5396
   22CHL1   H14 1571   5.538   4.571   9.368 -0.6555 -1.9852  0.4647
   22CHL1   C15 1572   5.671   4.448   9.260 -0.2747  0.5886 -0.5313
   22CHL1  H15A 1573   5.773   4.405   9.247 -0.6745 -0.0212 -1.7640
   22CHL1  H15B 1574   5.611   4.358   9.284 -2.0810  2.0604  0.6466
   22CHL1   C16 1575   5.633   4.513   9.131  0.3263  0.0538 -0.8800
   22CHL1  H16A 1576   5.711   4.492   9.055 -0.3008  0.4552 -1.6447
   22CHL1  H16B 1577   5.536   4.476   9.090 -0.6436  1.5698 -0.0401
   22CHL1   C17 1578   5.637   4.664   9.158  0.1466  0.2654 -0.8807
   22CHL1   H17 1579   5.535   4.703   9.176 -0.2184  0.5805 -3.4567
   22CHL1   C13 1580   5.703   4.683   9.294 -0.0589  0.2053  0.3187
   22CHL1   C18 1581   5.860   4.681   9.279 -0.0556  0.1719  0.5894
   22CHL1  H18A 1582   5.892   4.762   9.210  0.3601  1.5280  2.3297
   22CHL1  H18B 1583   5.912   4.698   9.376 -2.5735 -0.5785  2.1056
   22CHL1  H18C 1584   5.903   4.583   9.249  2.8633  1.4599  0.4440
   22CHL1   C12 1585   5.653   4.807   9.377  0.0747 -0.1031 -0.4149
   22CHL1  H12A 1586   5.696   4.903   9.341  1.3461 -0.6483 -0.3790
   22CHL1  H12B 1587   5.543   4.806   9.386 -0.0724  0.5075 -1.9628
   22CHL1   C11 1588   5.705   4.801   9.515  0.0617  0.1189  0.7504
   22CHL1  H11A 1589   5.816   4.798   9.514  0.0479  0.0439 -0.9114
   22CHL1  H11B 1590   5.665   4.890   9.569  0.9265  1.2317 -0.4230
   22CHL1    C9 1591   5.664   4.672   9.596  0.2692  0.4541  0.5927
   22CHL1    H9 1592   5.553   4.682   9.597  0.2646  0.7644 -1.1310
   22CHL1   C10 1593   5.710   4.664   9.743 -0.4093 -0.7901  0.2914
   22CHL1   C19 1594   5.861   4.703   9.748  0.2938 -0.3210  0.1449
   22CHL1  H19A 1595   5.902   4.705   9.852  1.2320 -1.1737 -0.2032
   22CHL1  H19B 1596   5.928   4.647   9.680  1.0040  0.6341  0.0446
   22CHL1  H19C 1597   5.865   4.810   9.720  2.2344 -0.3237  0.3597
   22CHL1    C1 1598   5.624   4.768   9.827  0.2827  0.5718 -0.4126
   22CHL1   H1A 1599   5.643   4.873   9.797 -0.2547  0.4310 -1.2510
   22CHL1   H1B 1600   5.517   4.768   9.798  0.3096  0.6062 -0.5146
   22CHL1    C2 1601   5.638   4.762   9.987 -0.5591 -0.1426 -0.2997
   22CHL1   H2A 1602   5.577   4.839  10.039  1.2548 -0.7781  2.9140
   22CHL1   H2B 1603   5.745   4.782  10.011 -0.1739 -1.7217 -0.5865
   22CHL1   C20 1604   5.685   4.738   9.034  0.2109 -0.3556 -0.1370
   22CHL1   H20 1605   5.783   4.693   9.006 -0.2889 -1.6830  0.2302
   22CHL1   C21 1606   5.688   4.892   9.053 -0.2631 -0.3233  0.4992
   22CHL1  H21A 1607   5.734   4.947   8.968 -1.1920  1.0846  0.8939
   22CHL1  H21B 1608   5.750   4.927   9.139 -0.3711 -1.8386  1.2054
   22CHL1  H21C 1609   5.589   4.939   9.069  0.1283 -0.1473  2.5326
   22CHL1   C22 1610   5.585   4.708   8.913  0.7060 -0.2063  0.5171
   22CHL1  H22A 1611   5.600   4.601   8.887 -2.2470 -0.6497  0.4886
   22CHL1  H22B 1612   5.485   4.723   8.958  0.5522 -1.7343  0.7210
   22CHL1   C23 1613   5.598   4.781   8.783 -0.8553  0.0984  0.4903
   22CHL1  H23A 1614   5.544   4.878   8.790 -1.8619 -0.3352 -1.0085
   22CHL1  H23B 1615   5.701   4.808   8.751 -0.3643 -1.7710  0.4464
   22CHL1   C24 1616   5.545   4.704   8.665 -0.2481 -0.3271  0.0734
   22CHL1  H24A 1617   5.615   4.619   8.649 -0.6248 -0.6210 -0.0172
   22CHL1  H24B 1618   5.446   4.658   8.685  0.5493 -1.4307  1.5903
   22CHL1   C25 1619   5.531   4.781   8.530  0.4872 -0.8797  0.7311
   22CHL1   H25 1620   5.629   4.827   8.501  0.9122 -1.7950  0.7002
   22CHL1   C26 1621   5.489   4.691   8.413  0.3097  0.5126  0.4186
   22CHL1  H26A 1622   5.381   4.663   8.416  0.4394 -0.0488  0.0489
   22CHL1  H26B 1623   5.501   4.755   8.323 -1.9417  1.1005  0.5099
   22CHL1  H26C 1624   5.549   4.598   8.399  1.1121  1.0397  0.3170
   22CHL1   C27 1625   5.424   4.895   8.536 -0.7812  0.3005  0.0129
   22CHL1  H27A 1626   5.334   4.873   8.597 -0.3241 -2.4592 -0.2346
   22CHL1  H27B 1627   5.470   4.983   8.585 -2.3825  1.3381 -0.3355
   22CHL1  H27C 1628   5.385   4.937   8.441 -0.4022  0.7015  0.0345
   23CHL1    C3 1629   2.297   5.620  10.072  0.1165 -0.4653  0.7569
   23CHL1    H3 1630   2.300   5.731  10.077 -4.0472 -0.2091 -0.3741
   23CHL1    O3 1631   2.355   5.555  10.179  0.1059 -0.2046 -0.1299
   23CHL1   H3' 1632   2.449   5.553  10.160  0.3872  2.4904  0.7848
   23CHL1    C4 1633   2.153   5.574  10.075 -0.6401  0.6818  0.3413
   23CHL1   H4A 1634   2.139   5.465  10.059  2.2409  0.1790  1.0540
   23CHL1   H4B 1635   2.111   5.601  10.174  1.6308 -3.2413  2.5023
   23CHL1    C5 1636   2.084   5.639   9.959  0.5672  0.5095 -0.3055
   23CHL1    C6 1637   1.965   5.700   9.972 -0.0847  0.0808 -0.0996
   23CHL1    H6 1638   1.910   5.708  10.066 -1.8812  2.3519 -1.2881
   23CHL1    C7 1639   1.898   5.778   9.857 -0.0407 -0.1901  0.7634
   23CHL1   H7A 1640   1.788   5.764   9.870 -0.2735  1.1863  0.2717
   23CHL1   H7B 1641   1.909   5.888   9.864  0.5323 -0.3511  2.5519
   23CHL1    C8 1642   1.948   5.722   9.717  0.1660  0.9495 -1.1623
   23CHL1    H8 1643   1.920   5.617   9.697  0.9486  0.0256  2.4050
   23CHL1   C14 1644   1.892   5.811   9.606  0.2383 -0.8447 -0.3003
   23CHL1   H14 1645   1.928   5.914   9.627 -1.4105 -0.3028 -0.1025
   23CHL1   C15 1646   1.736   5.807   9.592  0.0642 -0.2818  0.6252
   23CHL1  H15A 1647   1.698   5.702   9.590 -0.3421 -0.1920  2.8739
   23CHL1  H15B 1648   1.699   5.871   9.674  0.6611 -0.0059  0.6837
   23CHL1   C16 1649   1.720   5.883   9.455  0.1665  0.6149 -0.3084
   23CHL1  H16A 1650   1.654   5.829   9.384 -1.7003  2.0935  0.2660
   23CHL1  H16B 1651   1.676   5.985   9.464 -0.4688  0.3899 -0.8017
   23CHL1   C17 1652   1.865   5.896   9.394 -0.2352  0.1725  0.0415
   23CHL1   H17 1653   1.904   5.994   9.429  0.3019  0.2215 -0.6895
   23CHL1   C13 1654   1.946   5.791   9.465  0.1070  0.5036 -0.0820
   23CHL1   C18 1655   1.927   5.647   9.415  0.0560 -0.6436  0.1559
   23CHL1  H18A 1656   1.952   5.571   9.492 -0.9561 -0.1031  1.0230
   23CHL1  H18B 1657   1.819   5.647   9.389  0.1997  0.8240 -0.5052
   23CHL1  H18C 1658   1.986   5.643   9.321 -2.4107  0.5197 -1.4937
   23CHL1   C12 1659   2.096   5.827   9.469  0.3066  0.0891 -0.6092
   23CHL1  H12A 1660   2.136   5.811   9.366 -1.8730 -1.4568 -1.2519
   23CHL1  H12B 1661   2.111   5.935   9.491  2.4456 -0.0702 -1.1706
   23CHL1   C11 1662   2.164   5.731   9.564  0.2327 -0.3586 -0.0050
   23CHL1  H11A 1663   2.171   5.625   9.531 -0.2311  0.3601 -2.5719
   23CHL1  H11B 1664   2.273   5.754   9.569  0.2678  0.0619 -2.1115
   23CHL1    C9 1665   2.102   5.729   9.716  0.5104  0.2118  0.1690
   23CHL1    H9 1666   2.123   5.828   9.762 -1.6274  1.4139 -1.3284
   23CHL1   C10 1667   2.156   5.634   9.821  0.0187 -0.0883 -0.7478
   23CHL1   C19 1668   2.130   5.488   9.771  0.1252 -0.1629 -0.1218
   23CHL1  H19A 1669   2.208   5.460   9.696 -2.3206  0.4190 -2.9970
   23CHL1  H19B 1670   2.156   5.418   9.853  1.3307  0.5615  0.1345
   23CHL1  H19C 1671   2.027   5.466   9.735 -0.3367  0.0644  1.0447
   23CHL1    C1 1672   2.311   5.663   9.836 -0.3094 -0.4248 -0.4331
   23CHL1   H1A 1673   2.355   5.633   9.739  0.3804 -0.8262  0.0029
   23CHL1   H1B 1674   2.321   5.771   9.860  1.5188 -0.9761  1.4684
   23CHL1    C2 1675   2.367   5.578   9.943  0.0206 -0.0026 -0.2318
   23CHL1   H2A 1676   2.477   5.585   9.959 -0.2242 -0.9375  2.1357
   23CHL1   H2B 1677   2.347   5.472   9.917 -0.6182  0.6675 -2.5111
   23CHL1   C20 1678   1.866   5.900   9.242 -0.3107 -0.6183  0.4591
   23CHL1   H20 1679   1.810   5.814   9.199 -1.0581  0.5779 -1.0098
   23CHL1   C21 1680   2.007   5.887   9.177  0.2927 -0.0833  0.5785
   23CHL1  H21A 1681   1.997   5.938   9.078  1.0251  1.3591  1.2231
   23CHL1  H21B 1682   2.044   5.783   9.168 -0.4408 -0.2505 -0.7128
   23CHL1  H21C 1683   2.077   5.959   9.224  0.0812  1.5045 -1.4278
   23CHL1   C22 1684   1.790   6.024   9.191  0.2084 -0.4092  0.1184
   23CHL1  H22A 1685   1.705   6.040   9.261  0.4431  0.8612  0.1230
   23CHL1  H22B 1686   1.859   6.111   9.195 -0.3357  0.0438 -0.2882
   23CHL1   C23 1687   1.734   6.016   9.047  0.5613 -0.2317  0.4284
   23CHL1  H23A 1688   1.702   6.116   9.011 -0.1686 -1.1165 -1.4167
   23CHL1  H23B 1689   1.811   5.973   8.981  0.8898  2.7919 -1.2555
   23CHL1   C24 1690   1.610   5.936   9.028 -0.3116  0.0612  0.2686
   23CHL1  H24A 1691   1.599   5.847   9.094  0.3703 -0.3647 -0.1861
   23CHL1  H24B 1692   1.511   5.987   9.034 -0.5695 -0.4455  0.3444
   23CHL1   C25 1693   1.592   5.881   8.886 -0.0801  0.2747 -0.2557
   23CHL1   H25 1694   1.486   5.847   8.874 -0.5596  1.7468 -0.3381
   23CHL1   C26 1695   1.624   5.982   8.772 -0.9350 -0.7713 -0.4116
   23CHL1  H26A 1696   1.537   6.050   8.782  0.2825  0.9477 -1.1801
   23CHL1  H26B 1697   1.709   6.049   8.797 -1.9237 -0.7724  3.1994
   23CHL1  H26C 1698   1.623   5.936   8.671  1.3197  0.1037 -0.8655
   23CHL1   C27 1699   1.673   5.753   8.869 -0.0472  0.0819 -0.1451
   23CHL1  H27A 1700   1.780   5.785   8.874  1.1532 -3.6956  0.2638
   23CHL1  H27B 1701   1.656   5.681   8.952 -0.8591 -2.5120 -2.4684
   23CHL1  H27C 1702   1.647   5.705   8.772  0.0901  0.7678 -0.5267
   24CHL1    C3 1703   3.718   6.602  10.133  0.3948 -1.2411  0.2898
   24CHL1    H3 1704   3.619   6.591  10.084  0.0923 -0.2474  0.6613
   24CHL1    O3 1705   3.704   6.573  10.268  0.0661 -0.4295 -0.5195
   24CHL1   H3' 1706   3.793   6.550  10.296  0.0442  1.0709  0.8497
   24CHL1    C4 1707   3.824   6.515  10.071 -0.3812 -0.0672 -0.1672
   24CHL1   H4A 1708   3.923   6.534  10.118  0.8965 -0.7512 -2.5055
   24CHL1   H4B 1709   3.792   6.411  10.091  0.3351 -0.8280 -2.8426
   24CHL1    C5 1710   3.821   6.545   9.925 -0.3013 -0.1641 -0.4802
   24CHL1    C6 1711   3.788   6.454   9.832 -0.8215  1.0438  0.2754
   24CHL1    H6 1712   3.753   6.352   9.856  0.2032  0.0602 -2.3013
   24CHL1    C7 1713   3.806   6.476   9.681 -0.0200  0.4031 -0.7459
   24CHL1   H7A 1714   3.853   6.385   9.638 -1.6753 -1.1591  0.6873
   24CHL1   H7B 1715   3.704   6.484   9.639 -0.1032  0.2021 -0.5808
   24CHL1    C8 1716   3.892   6.593   9.647 -0.2735  0.6139  0.4073
   24CHL1    H8 1717   4.000   6.571   9.660 -0.2325  1.4290  1.5004
   24CHL1   C14 1718   3.881   6.630   9.491 -0.1620 -0.2151  0.4017
   24CHL1   H14 1719   3.772   6.651   9.480  0.1404  1.1396 -0.1625
   24CHL1   C15 1720   3.905   6.521   9.390 -0.5376 -0.4667 -0.4390
   24CHL1  H15A 1721   4.005   6.478   9.415  0.4781  1.7654 -0.4800
   24CHL1  H15B 1722   3.825   6.445   9.379 -1.0487 -0.2661  1.7571
   24CHL1   C16 1723   3.912   6.597   9.253 -0.1662 -0.2547 -0.3132
   24CHL1  H16A 1724   4.002   6.560   9.200 -0.5289 -3.4015  1.1749
   24CHL1  H16B 1725   3.815   6.576   9.202 -1.6676 -0.1048  2.3841
   24CHL1   C17 1726   3.924   6.751   9.290 -0.1522  0.3736 -0.0082
   24CHL1   H17 1727   3.827   6.806   9.283  0.5806  1.6487 -0.3700
   24CHL1   C13 1728   3.958   6.749   9.443 -0.3806  0.0402 -0.2344
   24CHL1   C18 1729   4.115   6.715   9.465  0.0292  0.5095 -0.6711
   24CHL1  H18A 1730   4.145   6.698   9.571 -1.9166  0.1438 -0.1521
   24CHL1  H18B 1731   4.147   6.630   9.401 -1.8969 -0.4884 -0.3488
   24CHL1  H18C 1732   4.179   6.801   9.436 -0.8775  1.9992  1.6184
   24CHL1   C12 1733   3.919   6.869   9.534  1.0230  0.0502  0.0373
   24CHL1  H12A 1734   3.979   6.959   9.507 -1.7998  1.5719 -1.4073
   24CHL1  H12B 1735   3.813   6.893   9.513  1.4941  1.7976 -0.3821
   24CHL1   C11 1736   3.938   6.846   9.685  0.0249  0.4076 -0.9753
   24CHL1  H11A 1737   4.046   6.834   9.710  0.1629  1.6527 -0.9079
   24CHL1  H11B 1738   3.902   6.930   9.747 -1.0317  0.4717 -1.6727
   24CHL1    C9 1739   3.861   6.714   9.739 -0.1585  0.4048  0.7635
   24CHL1    H9 1740   3.753   6.731   9.718  0.4515  1.0658 -2.0474
   24CHL1   C10 1741   3.873   6.686   9.890 -0.2208 -0.3469 -0.1390
   24CHL1   C19 1742   4.020   6.692   9.929 -0.3056 -0.7198  0.3183
   24CHL1  H19A 1743   4.066   6.786   9.891  0.5730 -1.8351 -1.4602
   24CHL1  H19B 1744   4.036   6.676  10.037  1.8894  0.1888  0.1555
   24CHL1  H19C 1745   4.072   6.613   9.870  0.8277 -0.6903  1.2595
   24CHL1    C1 1746   3.783   6.787   9.967  0.1344 -0.3937  0.3815
   24CHL1   H1A 1747   3.825   6.890   9.958 -2.8589  0.8283 -0.2887
   24CHL1   H1B 1748   3.682   6.783   9.919  0.3635 -0.3335 -0.1113
   24CHL1    C2 1749   3.759   6.756  10.121 -0.2510  0.1734 -0.1541
   24CHL1   H2A 1750   3.695   6.835  10.165 -0.1464  0.2887 -0.2118
   24CHL1   H2B 1751   3.861   6.775  10.159 -0.5523 -0.3126  0.9188
   24CHL1   C20 1752   4.025   6.819   9.198  0.7522 -0.3635  0.6047
   24CHL1   H20 1753   4.125   6.773   9.188  0.5080 -0.9637  0.8778
   24CHL1   C21 1754   4.041   6.964   9.249 -0.3412  0.3597 -0.3707
   24CHL1  H21A 1755   3.944   7.019   9.256  0.3199  1.5580 -0.4686
   24CHL1  H21B 1756   4.089   7.023   9.167  1.2171 -1.1739 -0.5842
   24CHL1  H21C 1757   4.100   6.973   9.342 -2.1381  0.4507  0.7845
   24CHL1   C22 1758   3.967   6.811   9.053  0.1302  0.7030  0.5701
   24CHL1  H22A 1759   3.968   6.703   9.028 -2.7501  1.0479 -1.2428
   24CHL1  H22B 1760   3.864   6.849   9.037 -0.2351 -0.5456 -0.0927
   24CHL1   C23 1761   4.052   6.852   8.941 -0.4040  0.0560  0.4718
   24CHL1  H23A 1762   4.051   6.963   8.937  2.2291  0.0790 -1.4825
   24CHL1  H23B 1763   4.155   6.816   8.961 -0.4996 -1.4598 -1.5413
   24CHL1   C24 1764   4.002   6.810   8.799 -0.1817  0.4037  0.4953
   24CHL1  H24A 1765   4.029   6.705   8.774  1.0157  0.0840  2.9448
   24CHL1  H24B 1766   3.892   6.827   8.804 -0.0954  0.9342  0.6282
   24CHL1   C25 1767   4.068   6.909   8.692 -0.2265 -0.6964  0.7940
   24CHL1   H25 1768   4.061   7.010   8.739  1.0893 -1.1886  2.0838
   24CHL1   C26 1769   4.215   6.862   8.673 -0.4127  0.6735  0.2372
   24CHL1  H26A 1770   4.265   6.924   8.595 -0.7515  0.3108 -0.2726
   24CHL1  H26B 1771   4.280   6.867   8.763 -0.7057  0.9053  0.4356
   24CHL1  H26C 1772   4.220   6.762   8.626  2.0057  1.4837 -1.3752
   24CHL1   C27 1773   4.002   6.918   8.556 -0.6131 -0.4918  0.2550
   24CHL1  H27A 1774   4.063   6.994   8.503 -2.2316  0.3441 -0.4472
   24CHL1  H27B 1775   4.015   6.820   8.507  2.8106 -1.1639  2.3401
   24CHL1  H27C 1776   3.895   6.940   8.575 -0.9030 -2.0819  0.5115
   25CHL1    C3 1777   5.369   0.752  10.197 -0.0809 -0.4422 -0.2855
   25CHL1    H3 1778   5.474   0.735  10.164  0.2434  1.9471 -0.5639
   25CHL1    O3 1779   5.370   0.737  10.341 -0.2560 -0.3279  0.0105
   25CHL1   H3' 1780   5.298   0.799  10.358  1.6095  1.8455  0.2808
   25CHL1    C4 1781   5.332   0.899  10.164  0.3321  0.3003 -0.7421
   25CHL1   H4A 1782   5.235   0.933  10.206 -0.1398 -1.2409 -0.5477
   25CHL1   H4B 1783   5.399   0.963  10.225  0.6379  2.3445 -3.1607
   25CHL1    C5 1784   5.343   0.920  10.017 -0.7927 -0.7189  0.0841
   25CHL1    C6 1785   5.438   1.006   9.970  0.0172  0.4142  0.8326
   25CHL1    H6 1786   5.495   1.073  10.036  0.4958  0.8152  0.0166
   25CHL1    C7 1787   5.455   1.038   9.831 -0.5304  0.2640 -0.1330
   25CHL1   H7A 1788   5.463   1.148   9.821  0.2548  0.3260  1.0464
   25CHL1   H7B 1789   5.557   1.002   9.803 -0.9747  0.0250 -1.4692
   25CHL1    C8 1790   5.356   0.976   9.732  0.5657 -0.4099  0.5100
   25CHL1    H8 1791   5.266   1.041   9.723 -0.5832 -2.0012  0.4192
   25CHL1   C14 1792   5.423   0.958   9.599  0.6558 -0.1220 -0.0987
   25CHL1   H14 1793   5.500   0.879   9.611  2.1527  1.2209 -0.6867
   25CHL1   C15 1794   5.496   1.090   9.538  0.1591  0.5745  0.6896
   25CHL1  H15A 1795   5.436   1.181   9.558 -2.1391 -0.3537 -1.6092
   25CHL1  H15B 1796   5.597   1.096   9.583  0.9561  1.9249 -1.2137
   25CHL1   C16 1797   5.504   1.051   9.384 -0.2723 -0.4315 -0.8158
   25CHL1  H16A 1798   5.462   1.134   9.323  2.4821  2.4781  1.1030
   25CHL1  H16B 1799   5.604   1.015   9.349  0.1947 -1.1625  1.1952
   25CHL1   C17 1800   5.423   0.920   9.367  0.5514  0.2479 -0.2761
   25CHL1   H17 1801   5.491   0.832   9.362 -0.4499 -0.7645  2.6588
   25CHL1   C13 1802   5.332   0.909   9.490 -0.8946  0.1607  0.9541
   25CHL1   C18 1803   5.216   1.013   9.469 -0.7993  0.3578 -0.5654
   25CHL1  H18A 1804   5.154   0.987   9.381 -0.3277  0.9710 -1.0833
   25CHL1  H18B 1805   5.145   1.012   9.554  1.4773  1.4807  1.4377
   25CHL1  H18C 1806   5.252   1.116   9.451  1.4384 -0.3566 -0.3527
   25CHL1   C12 1807   5.275   0.764   9.532 -0.5817 -0.0138  0.4492
   25CHL1  H12A 1808   5.196   0.737   9.459 -0.9639  0.4637  0.6853
   25CHL1  H12B 1809   5.363   0.697   9.527  0.1424  0.9746 -0.3659
   25CHL1   C11 1810   5.221   0.766   9.678  0.2774 -0.2450  0.5846
   25CHL1  H11A 1811   5.116   0.802   9.678  0.4104  0.2020 -2.0044
   25CHL1  H11B 1812   5.217   0.659   9.706 -0.7802 -0.5078 -0.5711
   25CHL1    C9 1813   5.308   0.842   9.777 -0.4511 -0.3290  0.5933
   25CHL1    H9 1814   5.400   0.780   9.766 -0.7674 -0.4535 -1.6979
   25CHL1   C10 1815   5.263   0.826   9.927  0.3122  0.0545  0.1155
   25CHL1   C19 1816   5.113   0.878   9.942 -0.2294 -0.2829  0.3091
   25CHL1  H19A 1817   5.092   0.898  10.049 -1.1100  2.5863 -0.3586
   25CHL1  H19B 1818   5.101   0.978   9.895 -0.1439 -0.1981  0.4691
   25CHL1  H19C 1819   5.038   0.810   9.895 -1.3026  0.1679  1.3569
   25CHL1    C1 1820   5.270   0.679   9.979 -0.0372 -0.1365  0.4107
   25CHL1   H1A 1821   5.198   0.609   9.931  1.1113 -2.2562  1.6782
   25CHL1   H1B 1822   5.368   0.636   9.948 -0.2177  0.4649 -1.0397
   25CHL1    C2 1823   5.263   0.666  10.130  0.1638  0.5187  0.3632
   25CHL1   H2A 1824   5.287   0.561  10.157  1.6185  0.6116 -0.5102
   25CHL1   H2B 1825   5.159   0.685  10.163  0.7041 -0.6883  2.8957
   25CHL1   C20 1826   5.352   0.922   9.227  0.1340  0.3945 -0.0836
   25CHL1   H20 1827   5.289   1.011   9.210 -1.1144 -0.6680 -1.0840
   25CHL1   C21 1828   5.259   0.796   9.219  0.1781 -0.5792 -0.1390
   25CHL1  H21A 1829   5.308   0.705   9.261 -2.4628 -1.4405  1.1725
   25CHL1  H21B 1830   5.247   0.771   9.111  0.4324 -0.7433 -0.1301
   25CHL1  H21C 1831   5.156   0.811   9.256 -1.4511 -2.9958 -3.3653
   25CHL1   C22 1832   5.462   0.923   9.114  0.3349  0.6462 -0.7552
   25CHL1  H22A 1833   5.561   0.949   9.156  0.0622 -0.2045  0.4464
   25CHL1  H22B 1834   5.486   0.817   9.090  0.4446  0.0424  1.8060
   25CHL1   C23 1835   5.426   1.007   8.995 -0.3261  0.2653 -0.1646
   25CHL1  H23A 1836   5.360   0.945   8.931  2.0157 -1.4753 -0.9531
   25CHL1  H23B 1837   5.376   1.101   9.027 -0.2919  0.2998 -0.2137
   25CHL1   C24 1838   5.549   1.050   8.905  0.6019  0.3737  0.2904
   25CHL1  H24A 1839   5.629   1.086   8.973 -2.1787  1.1599  3.2716
   25CHL1  H24B 1840   5.595   0.961   8.856  1.6723  1.2218 -0.2622
   25CHL1   C25 1841   5.514   1.157   8.796  0.1229  0.2858 -0.2248
   25CHL1   H25 1842   5.414   1.128   8.757  0.9635 -1.8615 -0.8738
   25CHL1   C26 1843   5.506   1.301   8.860 -0.0665 -0.0838 -0.2928
   25CHL1  H26A 1844   5.602   1.326   8.910 -0.6249 -0.6759  1.1147
   25CHL1  H26B 1845   5.485   1.384   8.790 -4.0724  0.9763  2.0163
   25CHL1  H26C 1846   5.425   1.299   8.937  0.4262 -1.6669  0.2120
   25CHL1   C27 1847   5.621   1.156   8.684  0.2317 -0.7987 -0.7090
   25CHL1  H27A 1848   5.604   1.082   8.603 -2.1567 -0.1984 -0.7805
   25CHL1  H27B 1849   5.612   1.254   8.632  0.2178 -1.8640 -2.7235
   25CHL1  H27C 1850   5.724   1.146   8.726  0.2212 -0.6293 -0.6396
   26CHL1    C3 1851   6.390   4.565  10.083  0.3062 -0.1875  0.2743
   26CHL1    H3 1852   6.491   4.558  10.037 -0.6431  2.7735 -2.4715
   26CHL1    O3 1853   6.394   4.614  10.221 -0.3719  0.3777  0.6246
   26CHL1   H3' 1854   6.464   4.562  10.261 -1.3829 -3.2536 -2.0427
   26CHL1    C4 1855   6.294   4.646   9.995  0.3159 -0.3497  0.5102
   26CHL1   H4A 1856   6.203   4.655  10.057  0.4181 -1.0178  0.7699
   26CHL1   H4B 1857   6.341   4.744   9.972 -0.5019 -0.0123  0.2715
   26CHL1    C5 1858   6.258   4.580   9.859 -0.2670  0.6667 -0.1920
   26CHL1    C6 1859   6.279   4.644   9.741  0.0236 -0.3171  0.5585
   26CHL1    H6 1860   6.319   4.746   9.729  0.1224 -0.2959  1.0895
   26CHL1    C7 1861   6.256   4.571   9.607  0.1670  0.5092 -0.8521
   26CHL1   H7A 1862   6.206   4.641   9.536  2.7400  2.6427 -0.6475
   26CHL1   H7B 1863   6.357   4.539   9.574  0.5269 -0.6519  1.3141
   26CHL1    C8 1864   6.179   4.437   9.611  0.0914 -0.2948  0.6547
   26CHL1    H8 1865   6.068   4.444   9.620 -0.1495  0.5787 -2.2988
   26CHL1   C14 1866   6.204   4.359   9.479  0.2172  0.0314  0.2201
   26CHL1   H14 1867   6.314   4.350   9.463  0.0776  0.1647 -0.8179
   26CHL1   C15 1868   6.149   4.426   9.356  0.1612 -0.9814  0.6938
   26CHL1  H15A 1869   6.048   4.463   9.381  1.2349  0.3336  3.2519
   26CHL1  H15B 1870   6.214   4.513   9.330  0.3692 -1.3630 -0.0964
   26CHL1   C16 1871   6.162   4.321   9.247  0.0349  0.0402 -0.5037
   26CHL1  H16A 1872   6.059   4.324   9.204 -0.0325  0.0309 -0.3446
   26CHL1  H16B 1873   6.248   4.331   9.178 -0.8495 -1.0267 -1.8085
   26CHL1   C17 1874   6.187   4.184   9.322  0.7550  0.6251 -0.8098
   26CHL1   H17 1875   6.297   4.182   9.332  0.6853  2.2776  0.5936
   26CHL1   C13 1876   6.147   4.216   9.465 -0.1151 -0.9493  0.1382
   26CHL1   C18 1877   5.988   4.206   9.474 -0.7979 -0.6007 -0.2791
   26CHL1  H18A 1878   5.930   4.244   9.387 -3.0636  1.7446  2.1589
   26CHL1  H18B 1879   5.964   4.099   9.491  1.7942 -1.6095 -2.4515
   26CHL1  H18C 1880   5.953   4.262   9.563  1.7186  0.5024  0.0671
   26CHL1   C12 1881   6.216   4.132   9.576 -0.0173  0.2654 -0.0411
   26CHL1  H12A 1882   6.172   4.030   9.582  0.2379  0.1294 -0.4929
   26CHL1  H12B 1883   6.326   4.117   9.564 -0.1959 -0.3545 -0.9621
   26CHL1   C11 1884   6.197   4.202   9.712 -0.2066  0.0074  0.6047
   26CHL1  H11A 1885   6.091   4.187   9.740 -0.1244 -0.6665  0.5705
   26CHL1  H11B 1886   6.259   4.145   9.785  1.4276 -0.1910 -0.9122
   26CHL1    C9 1887   6.238   4.354   9.720  0.0597 -0.3775 -0.1086
   26CHL1    H9 1888   6.349   4.353   9.708  0.0825  1.0949 -0.1859
   26CHL1   C10 1889   6.223   4.428   9.865  0.6773  0.2590 -0.4292
   26CHL1   C19 1890   6.073   4.428   9.909  0.5108  0.0420  0.2258
   26CHL1  H19A 1891   6.057   4.463  10.013  0.3179 -0.7455  0.4665
   26CHL1  H19B 1892   6.013   4.497   9.846  0.3593 -1.5827 -1.4818
   26CHL1  H19C 1893   6.035   4.323   9.906  1.0021 -0.1018 -1.4598
   26CHL1    C1 1894   6.314   4.350   9.963  0.2937 -0.3049  0.1913
   26CHL1   H1A 1895   6.260   4.255   9.978 -1.6896  1.0229  1.6467
   26CHL1   H1B 1896   6.410   4.323   9.914 -0.8816  0.7380 -2.7801
   26CHL1    C2 1897   6.329   4.422  10.098 -0.0843  0.2918  0.2239
   26CHL1   H2A 1898   6.395   4.364  10.167 -1.3793 -0.9607  0.4335
   26CHL1   H2B 1899   6.229   4.433  10.144 -0.0374  1.1328  0.1312
   26CHL1   C20 1900   6.133   4.068   9.247 -0.1798 -1.1455  0.1348
   26CHL1   H20 1901   6.022   4.063   9.249 -0.3528  1.4808 -0.8383
   26CHL1   C21 1902   6.180   3.937   9.306  0.1944  0.1298  0.1074
   26CHL1  H21A 1903   6.104   3.864   9.270  0.9263  0.2898 -1.8083
   26CHL1  H21B 1904   6.168   3.936   9.417  0.0973  1.5296  0.1160
   26CHL1  H21C 1905   6.285   3.918   9.275  0.6176  1.2242  0.8735
   26CHL1   C22 1906   6.160   4.077   9.092  0.2111  0.8834  0.3629
   26CHL1  H22A 1907   6.084   4.147   9.052  0.0278  0.1298 -0.6348
   26CHL1  H22B 1908   6.261   4.107   9.057 -0.5119 -1.2666 -3.8478
   26CHL1   C23 1909   6.131   3.945   9.018 -0.3497 -0.1682  0.2840
   26CHL1  H23A 1910   6.187   3.858   9.058  1.9790  1.4418  0.5885
   26CHL1  H23B 1911   6.028   3.930   9.058 -0.7253 -1.1564 -1.0230
   26CHL1   C24 1912   6.125   3.972   8.868  0.0554  0.5838 -0.8352
   26CHL1  H24A 1913   6.049   4.051   8.849 -2.9912 -2.3654 -1.4853
   26CHL1  H24B 1914   6.225   4.011   8.841  0.8558 -0.3767  0.6684
   26CHL1   C25 1915   6.083   3.850   8.784  0.6025 -0.2791 -0.1693
   26CHL1   H25 1916   6.110   3.867   8.678 -1.8747 -1.7456 -1.0645
   26CHL1   C26 1917   6.166   3.719   8.815  0.2517  0.2519  0.3500
   26CHL1  H26A 1918   6.270   3.712   8.776  0.7304  2.6256  1.1383
   26CHL1  H26B 1919   6.151   3.697   8.923 -2.9203 -0.6302 -0.2086
   26CHL1  H26C 1920   6.113   3.632   8.771  0.1333  0.4510  0.1024
   26CHL1   C27 1921   5.934   3.818   8.817 -0.0453 -0.3718  0.1746
   26CHL1  H27A 1922   5.861   3.899   8.797  3.0592  1.8214 -2.9863
   26CHL1  H27B 1923   5.906   3.727   8.760  1.9245 -0.9140  0.0229
   26CHL1  H27C 1924   5.932   3.791   8.924  2.0045 -0.6621  0.1667
   27CHL1    C3 1925   6.200   1.275  10.308 -0.2140  0.2808 -0.4158
   27CHL1    H3 1926   6.180   1.169  10.283  1.1862  0.5655 -2.8866
   27CHL1    O3 1927   6.168   1.295  10.450 -0.0569  0.0921  0.4393
   27CHL1   H3' 1928   6.184   1.388  10.465  0.4032  0.2016 -0.7243
   27CHL1    C4 1929   6.351   1.290  10.286 -0.2973  0.5489  0.5457
   27CHL1   H4A 1930   6.379   1.387  10.331 -0.6643  0.5177  0.8420
   27CHL1   H4B 1931   6.406   1.220  10.352  0.5427  0.5408 -0.1477
   27CHL1    C5 1932   6.385   1.279  10.133  0.3418 -0.4760 -0.2150
   27CHL1    C6 1933   6.490   1.205  10.089 -0.8725 -0.2538  0.2909
   27CHL1    H6 1934   6.559   1.165  10.164 -0.8703 -0.2642  0.2828
   27CHL1    C7 1935   6.531   1.185   9.942 -0.2887  0.3333 -0.3770
   27CHL1   H7A 1936   6.641   1.182   9.932 -0.0872  1.3882  1.3400
   27CHL1   H7B 1937   6.494   1.083   9.917  0.8074  0.2353 -1.6228
   27CHL1    C8 1938   6.469   1.293   9.853  0.4633  0.0484  0.6337
   27CHL1    H8 1939   6.525   1.388   9.869  0.6258 -0.3327  2.4860
   27CHL1   C14 1940   6.469   1.249   9.708  0.3021 -0.2648  0.2099
   27CHL1   H14 1941   6.390   1.173   9.691 -0.4775  0.5559  0.1580
   27CHL1   C15 1942   6.599   1.194   9.642  0.1259 -0.6951  0.4571
   27CHL1  H15A 1943   6.686   1.254   9.678  2.0575 -2.3648 -1.2918
   27CHL1  H15B 1944   6.618   1.091   9.678 -0.5562 -0.4720  1.4806
   27CHL1   C16 1945   6.574   1.196   9.489 -0.2436 -0.1195  0.7502
   27CHL1  H16A 1946   6.665   1.229   9.433 -0.7497 -0.7038 -0.4406
   27CHL1  H16B 1947   6.545   1.095   9.453  0.9372 -0.9194  1.9537
   27CHL1   C17 1948   6.460   1.295   9.477  0.0617  0.0473 -0.9696
   27CHL1   H17 1949   6.363   1.243   9.460 -1.4667  2.9575 -1.5251
   27CHL1   C13 1950   6.431   1.364   9.613 -0.1904 -0.5597  0.4355
   27CHL1   C18 1951   6.524   1.488   9.622  0.2770  0.2611 -0.8988
   27CHL1  H18A 1952   6.520   1.533   9.723 -1.4807 -0.0067 -0.8340
   27CHL1  H18B 1953   6.629   1.463   9.598  0.4919 -0.0364  0.3124
   27CHL1  H18C 1954   6.494   1.561   9.544  1.4915  0.5773 -1.0734
   27CHL1   C12 1955   6.285   1.394   9.646 -0.6380 -0.7865  0.1287
   27CHL1  H12A 1956   6.249   1.487   9.596 -1.0360  0.0892  1.9838
   27CHL1  H12B 1957   6.220   1.313   9.608 -1.1492 -1.2025  1.8412
   27CHL1   C11 1958   6.254   1.426   9.796  0.3655  0.0639  0.0558
   27CHL1  H11A 1959   6.294   1.527   9.817  1.8146 -0.4824  0.0134
   27CHL1  H11B 1960   6.144   1.426   9.802  0.3632 -0.2480  0.0190
   27CHL1    C9 1961   6.327   1.326   9.892 -0.0522  0.2947 -0.4429
   27CHL1    H9 1962   6.271   1.232   9.874 -2.7814  2.2311 -2.5314
   27CHL1   C10 1963   6.297   1.364  10.040 -0.6701 -0.5394  0.0156
   27CHL1   C19 1964   6.360   1.510  10.061 -0.6275  1.2106 -0.9315
   27CHL1  H19A 1965   6.465   1.521  10.025 -0.0275  1.7549  0.9188
   27CHL1  H19B 1966   6.302   1.586  10.004 -2.7399  1.0371  0.8941
   27CHL1  H19C 1967   6.357   1.544  10.167  0.5448  0.2186 -0.5738
   27CHL1    C1 1968   6.142   1.358  10.079 -0.1854 -0.4302  0.5374
   27CHL1   H1A 1969   6.090   1.438  10.022 -0.9809 -1.1859  0.1835
   27CHL1   H1B 1970   6.109   1.262  10.033 -0.2458  0.4458 -1.2919
   27CHL1    C2 1971   6.104   1.363  10.231 -0.5940  0.1407 -0.6484
   27CHL1   H2A 1972   6.005   1.319  10.258  0.3340 -0.6450  1.6298
   27CHL1   H2B 1973   6.105   1.471  10.258 -0.3738 -0.0524  0.1364
   27CHL1   C20 1974   6.477   1.379   9.350  0.5866 -0.1665 -0.3224
   27CHL1   H20 1975   6.575   1.430   9.358  1.0574 -1.3727  1.8882
   27CHL1   C21 1976   6.363   1.482   9.332 -0.4307  0.3038  0.3627
   27CHL1  H21A 1977   6.263   1.435   9.323  0.4032 -1.3712 -0.4767
   27CHL1  H21B 1978   6.380   1.541   9.239 -1.0280 -0.3707 -0.1789
   27CHL1  H21C 1979   6.351   1.552   9.417 -3.3563  1.8085 -1.2053
   27CHL1   C22 1980   6.480   1.286   9.224 -0.0688 -0.1762 -0.2715
   27CHL1  H22A 1981   6.569   1.220   9.238 -0.8850 -1.3680 -0.5981
   27CHL1  H22B 1982   6.378   1.240   9.223 -1.1408  2.0198  2.2705
   27CHL1   C23 1983   6.506   1.363   9.095 -1.4815  0.1726 -0.7308
   27CHL1  H23A 1984   6.423   1.425   9.057  0.4896  1.8613 -2.4410
   27CHL1  H23B 1985   6.596   1.425   9.117 -1.6297  0.3229 -0.5520
   27CHL1   C24 1986   6.550   1.256   8.989  0.4243 -0.4416 -0.2928
   27CHL1  H24A 1987   6.649   1.215   9.016  0.5494  0.8184  1.2881
   27CHL1  H24B 1988   6.476   1.173   8.981  1.6994 -1.8285  1.8064
   27CHL1   C25 1989   6.568   1.318   8.846  0.6187  0.2211  0.5405
   27CHL1   H25 1990   6.487   1.388   8.816  0.1142 -0.4340  0.3567
   27CHL1   C26 1991   6.699   1.395   8.839 -0.5632  0.0304  0.0720
   27CHL1  H26A 1992   6.709   1.475   8.916 -0.3586  1.3490 -1.2916
   27CHL1  H26B 1993   6.786   1.328   8.855 -1.3844 -0.9501  0.4109
   27CHL1  H26C 1994   6.706   1.446   8.740 -0.7552  1.1913  0.6462
   27CHL1   C27 1995   6.575   1.211   8.732 -0.4085 -0.1409 -1.0091
   27CHL1  H27A 1996   6.658   1.138   8.746 -0.3941 -0.1640 -1.2100
   27CHL1  H27B 1997   6.473   1.172   8.711  0.7255 -3.0660 -1.3021
   27CHL1  H27C 1998   6.602   1.277   8.647  1.0225  0.1993 -0.3041
   28CHL1    C3 1999   5.335   6.196   9.985 -0.3459 -0.2106  0.0424
   28CHL1    H3 2000   5.235   6.246   9.982 -0.1428  0.2117  0.3546
   28CHL1    O3 2001   5.345   6.146  10.114  0.3119 -0.1457  0.1699
   28CHL1   H3' 2002   5.365   6.216  10.176  0.4908 -0.5304  0.5556
   28CHL1    C4 2003   5.318   6.086   9.891  0.1827  0.0896  0.8506
   28CHL1   H4A 2004   5.401   6.013   9.901  1.3302  0.8762 -2.3325
   28CHL1   H4B 2005   5.220   6.036   9.907 -0.2171  0.9467  1.1276
   28CHL1    C5 2006   5.321   6.128   9.743  0.3805 -0.7978  0.3871
   28CHL1    C6 2007   5.224   6.093   9.657  0.4061 -0.6865 -0.0205
   28CHL1    H6 2008   5.147   6.024   9.695  1.4621 -2.4801 -1.0516
   28CHL1    C7 2009   5.221   6.131   9.516  0.2934 -0.1485  0.6686
   28CHL1   H7A 2010   5.182   6.046   9.457  0.5161 -1.3865  2.2687
   28CHL1   H7B 2011   5.150   6.216   9.513 -0.0369 -0.4564 -0.7298
   28CHL1    C8 2012   5.366   6.161   9.470  0.5652  0.3998 -0.6943
   28CHL1    H8 2013   5.430   6.070   9.473 -0.2800 -0.1796 -0.1143
   28CHL1   C14 2014   5.361   6.225   9.327  0.2884  0.0570 -0.6403
   28CHL1   H14 2015   5.304   6.317   9.352  0.2652 -0.3087  0.7032
   28CHL1   C15 2016   5.283   6.140   9.220  0.4152 -0.6311 -0.5065
   28CHL1  H15A 2017   5.314   6.036   9.244 -1.5830 -1.2858 -0.6794
   28CHL1  H15B 2018   5.173   6.158   9.215  0.4029 -0.7346 -0.5889
   28CHL1   C16 2019   5.341   6.193   9.089 -0.5741  0.6909 -0.0744
   28CHL1  H16A 2020   5.380   6.103   9.037 -1.6110  1.2066 -1.7613
   28CHL1  H16B 2021   5.261   6.233   9.024 -0.6291 -0.7460 -0.9051
   28CHL1   C17 2022   5.450   6.297   9.115 -0.8754  0.1169  0.1612
   28CHL1   H17 2023   5.401   6.397   9.125  2.1608  1.7707 -0.6789
   28CHL1   C13 2024   5.494   6.262   9.262  0.0074 -0.2286 -0.5861
   28CHL1   C18 2025   5.593   6.136   9.251 -1.1943 -0.3502 -0.3101
   28CHL1  H18A 2026   5.640   6.106   9.347 -0.4611  1.3224 -0.1187
   28CHL1  H18B 2027   5.543   6.047   9.208 -1.1748  0.2504 -1.6139
   28CHL1  H18C 2028   5.675   6.168   9.183 -0.1850 -1.1893  0.4929
   28CHL1   C12 2029   5.551   6.376   9.350  0.1803 -0.0192  0.0577
   28CHL1  H12A 2030   5.642   6.426   9.312  0.4702  1.1709  2.2008
   28CHL1  H12B 2031   5.474   6.456   9.354 -0.4632 -0.7118  3.2215
   28CHL1   C11 2032   5.569   6.331   9.499  0.5266 -0.2736  0.5526
   28CHL1  H11A 2033   5.657   6.263   9.504  1.2407  0.7667  2.4188
   28CHL1  H11B 2034   5.589   6.412   9.572  0.4210 -0.1239  0.4167
   28CHL1    C9 2035   5.436   6.270   9.557 -0.1018 -0.1555  0.0951
   28CHL1    H9 2036   5.367   6.357   9.550 -0.7102 -0.5039  1.6279
   28CHL1   C10 2037   5.440   6.221   9.707  0.0816 -0.5731 -0.2197
   28CHL1   C19 2038   5.566   6.132   9.716 -0.1053  0.4672 -0.5873
   28CHL1  H19A 2039   5.554   6.027   9.683 -0.2764  0.4770 -0.5570
   28CHL1  H19B 2040   5.662   6.167   9.673  0.2224  1.2219  0.7159
   28CHL1  H19C 2041   5.585   6.125   9.826  0.1940  1.2084 -0.5881
   28CHL1    C1 2042   5.454   6.340   9.816 -0.2057  0.3102  0.4883
   28CHL1   H1A 2043   5.549   6.395   9.801  0.2205 -0.4807  0.2524
   28CHL1   H1B 2044   5.368   6.409   9.807 -0.5594 -0.0026  1.4271
   28CHL1    C2 2045   5.448   6.297   9.962  0.2985 -0.4089 -0.5658
   28CHL1   H2A 2046   5.437   6.384  10.029 -1.0962 -0.6445 -0.4651
   28CHL1   H2B 2047   5.545   6.249   9.988  0.5186 -0.5662 -1.6392
   28CHL1   C20 2048   5.549   6.309   9.001  0.1229  0.0520  0.5477
   28CHL1   H20 2049   5.608   6.217   8.981  1.0082  0.8685 -0.6193
   28CHL1   C21 2050   5.652   6.413   9.029  0.1450  0.3417  0.5244
   28CHL1  H21A 2051   5.727   6.420   8.948 -0.4025  0.0012 -0.0183
   28CHL1  H21B 2052   5.719   6.397   9.115 -1.8524  1.1441  2.2871
   28CHL1  H21C 2053   5.608   6.515   9.021 -0.6273  0.0727  1.3250
   28CHL1   C22 2054   5.490   6.323   8.858 -0.0288 -1.0816  0.0595
   28CHL1  H22A 2055   5.379   6.323   8.866 -0.0519  2.1357  0.4924
   28CHL1  H22B 2056   5.509   6.427   8.823 -1.6376 -1.4749 -2.0618
   28CHL1   C23 2057   5.542   6.219   8.754  0.9181  0.0947  0.1616
   28CHL1  H23A 2058   5.648   6.205   8.726  0.3230 -0.4338 -1.9402
   28CHL1  H23B 2059   5.511   6.123   8.800  3.3374 -0.7263  0.1410
   28CHL1   C24 2060   5.465   6.244   8.626 -0.2591 -0.0890 -0.2147
   28CHL1  H24A 2061   5.356   6.239   8.648  0.0377 -1.7966  0.9776
   28CHL1  H24B 2062   5.490   6.343   8.583 -1.7373  0.3261 -0.1290
   28CHL1   C25 2063   5.497   6.153   8.499 -0.0922  0.1043 -0.7203
   28CHL1   H25 2064   5.467   6.047   8.514  0.4177  0.1856  0.9719
   28CHL1   C26 2065   5.409   6.196   8.381  0.3389  0.1361  0.2992
   28CHL1  H26A 2066   5.304   6.213   8.411  0.5629 -0.1462  1.2742
   28CHL1  H26B 2067   5.460   6.288   8.344  1.3552 -0.0089  1.3100
   28CHL1  H26C 2068   5.416   6.121   8.299  1.4051 -0.8213  1.2391
   28CHL1   C27 2069   5.644   6.148   8.464 -0.3142  0.1919  0.1512
   28CHL1  H27A 2070   5.714   6.113   8.544 -0.6780 -0.8158  0.0335
   28CHL1  H27B 2071   5.649   6.071   8.383 -1.6311  0.5376 -0.2637
   28CHL1  H27C 2072   5.676   6.243   8.416 -1.0315 -0.1512 -1.0371
   29CHL1    C3 2073   6.296   4.516   6.580 -0.5015 -0.9464 -0.0915
   29CHL1    H3 2074   6.212   4.588   6.572  0.4598  0.1720 -0.2781
   29CHL1    O3 2075   6.296   4.434   6.461 -0.1405 -0.2253 -0.2507
   29CHL1   H3' 2076   6.378   4.446   6.413  0.6974  0.4357  1.2853
   29CHL1    C4 2077   6.425   4.593   6.597 -0.1532 -0.5568 -0.1433
   29CHL1   H4A 2078   6.518   4.532   6.593 -0.7815 -1.4437 -1.7593
   29CHL1   H4B 2079   6.446   4.658   6.510  1.7512  0.0250  0.7337
   29CHL1    C5 2080   6.424   4.677   6.728 -0.2819  0.3298 -0.0653
   29CHL1    C6 2081   6.448   4.810   6.726 -0.2519 -0.3589 -0.3583
   29CHL1    H6 2082   6.462   4.862   6.630  0.4444  0.2030  0.0452
   29CHL1    C7 2083   6.460   4.904   6.842  0.3751  0.1134 -0.1634
   29CHL1   H7A 2084   6.551   4.963   6.820  0.3809  0.0815 -0.2261
   29CHL1   H7B 2085   6.371   4.969   6.851 -0.0553 -0.6142  0.9724
   29CHL1    C8 2086   6.481   4.819   6.978  0.1880  1.3465 -0.3289
   29CHL1    H8 2087   6.585   4.781   6.979 -0.0607  0.6734  1.1397
   29CHL1   C14 2088   6.451   4.897   7.096  0.0632  0.0436 -0.1997
   29CHL1   H14 2089   6.344   4.925   7.097  0.0563  0.2511 -2.5417
   29CHL1   C15 2090   6.534   5.031   7.112  0.3001 -0.3733  0.4638
   29CHL1  H15A 2091   6.640   5.015   7.081  0.7852  1.0212  1.3559
   29CHL1  H15B 2092   6.502   5.119   7.052 -1.0081 -1.0819  0.1193
   29CHL1   C16 2093   6.528   5.058   7.264 -0.8553 -0.4380 -0.8815
   29CHL1  H16A 2094   6.631   5.058   7.306 -0.9636 -3.0997 -0.5201
   29CHL1  H16B 2095   6.483   5.159   7.272 -0.9898 -0.5962  0.3989
   29CHL1   C17 2096   6.444   4.943   7.322  0.7510 -0.1055 -0.2149
   29CHL1   H17 2097   6.340   4.975   7.302  2.3597  4.5213 -1.8750
   29CHL1   C13 2098   6.469   4.823   7.231  0.8515  0.4551  0.2377
   29CHL1   C18 2099   6.611   4.769   7.259  0.0488 -0.4220 -0.5455
   29CHL1  H18A 2100   6.696   4.841   7.252  0.6051 -0.9596  0.5054
   29CHL1  H18B 2101   6.614   4.712   7.354  0.7009  1.7221  0.7548
   29CHL1  H18C 2102   6.638   4.697   7.179 -1.7507 -1.2077 -0.4639
   29CHL1   C12 2103   6.360   4.708   7.234 -0.2371 -0.0055  0.4000
   29CHL1  H12A 2104   6.376   4.643   7.324 -1.3000  0.4749  0.9512
   29CHL1  H12B 2105   6.263   4.761   7.243 -1.2581 -2.1126  2.4572
   29CHL1   C11 2106   6.372   4.620   7.112  0.0063 -0.3063  0.3881
   29CHL1  H11A 2107   6.468   4.565   7.122  0.5900  0.6686  0.1937
   29CHL1  H11B 2108   6.295   4.540   7.103 -1.0371  0.7013  0.2584
   29CHL1    C9 2109   6.381   4.695   6.978 -0.0627 -0.0293  0.5848
   29CHL1    H9 2110   6.280   4.740   6.964  0.9411  2.3336  0.5566
   29CHL1   C10 2111   6.401   4.596   6.862  0.4399  0.3099  0.2078
   29CHL1   C19 2112   6.522   4.503   6.868 -0.1764 -0.4772 -0.7291
   29CHL1  H19A 2113   6.609   4.569   6.886  0.0344 -0.9212 -0.0920
   29CHL1  H19B 2114   6.528   4.434   6.955  2.6379 -0.1200 -0.5695
   29CHL1  H19C 2115   6.543   4.437   6.781  0.7970  2.0336 -2.4612
   29CHL1    C1 2116   6.274   4.508   6.836  0.8172 -0.1819  0.3594
   29CHL1   H1A 2117   6.266   4.432   6.916  2.0351 -3.1154 -2.1798
   29CHL1   H1B 2118   6.173   4.553   6.848  0.6471 -0.0793 -1.2625
   29CHL1    C2 2119   6.272   4.425   6.706 -0.9473  0.1169 -0.6860
   29CHL1   H2A 2120   6.173   4.375   6.701  0.0360 -1.8334 -0.6939
   29CHL1   H2B 2121   6.346   4.343   6.709 -1.6310 -0.5993 -2.8743
   29CHL1   C20 2122   6.448   4.919   7.479  0.2941 -0.2003 -0.1355
   29CHL1   H20 2123   6.397   4.823   7.499 -1.4522  0.8692  0.6164
   29CHL1   C21 2124   6.354   5.030   7.537 -0.1098  0.1662  0.9047
   29CHL1  H21A 2125   6.390   5.134   7.528 -0.8869  0.5568  2.1877
   29CHL1  H21B 2126   6.330   5.019   7.645 -0.2760  0.9251  0.9410
   29CHL1  H21C 2127   6.261   5.036   7.477  0.2219 -0.7297  0.2994
   29CHL1   C22 2128   6.582   4.935   7.548 -0.2568 -0.1621 -0.5349
   29CHL1  H22A 2129   6.652   4.873   7.488  2.2053  0.1188  1.9041
   29CHL1  H22B 2130   6.622   5.039   7.539  0.6886 -0.2345  2.1737
   29CHL1   C23 2131   6.576   4.893   7.692  0.1290  0.7335 -0.2415
   29CHL1  H23A 2132   6.520   4.968   7.750  0.1023 -0.6612  1.5601
   29CHL1  H23B 2133   6.533   4.791   7.696 -1.8322  1.6023  1.3216
   29CHL1   C24 2134   6.720   4.899   7.770 -0.1407 -0.6134 -0.1633
   29CHL1  H24A 2135   6.792   4.850   7.702  1.4673  0.7463  0.5337
   29CHL1  H24B 2136   6.752   5.005   7.772 -0.4329 -0.5128 -0.6454
   29CHL1   C25 2137   6.712   4.829   7.907 -0.4527 -0.1219 -0.1708
   29CHL1   H25 2138   6.662   4.731   7.897 -0.0244 -0.3730  0.1534
   29CHL1   C26 2139   6.852   4.811   7.969 -0.6331  0.4985 -0.1641
   29CHL1  H26A 2140   6.908   4.744   7.900 -1.0105 -0.9951  0.9449
   29CHL1  H26B 2141   6.903   4.907   7.991  0.9770  0.0737 -1.8711
   29CHL1  H26C 2142   6.842   4.764   8.069 -1.4433  1.7351  0.3493
   29CHL1   C27 2143   6.642   4.915   8.015 -0.7656 -0.6289  0.1061
   29CHL1  H27A 2144   6.685   5.014   8.038  2.1038 -1.5129 -1.1886
   29CHL1  H27B 2145   6.533   4.934   7.999 -0.1249  1.1522 -2.4075
   29CHL1  H27C 2146   6.672   4.876   8.114 -0.0980 -0.5796 -0.0742
   30CHL1    C3 2147   4.264   3.081   7.325 -0.3076  0.0502 -0.5924
   30CHL1    H3 2148   4.284   2.974   7.346  1.9594  0.9256  2.0390
   30CHL1    O3 2149   4.252   3.099   7.186  0.0727  0.2598  0.1657
   30CHL1   H3' 2150   4.282   3.188   7.165 -3.1110  1.6347  1.0466
   30CHL1    C4 2151   4.136   3.132   7.408  0.0708 -0.3260  0.0237
   30CHL1   H4A 2152   4.114   3.236   7.376 -3.3672 -1.0224 -0.0363
   30CHL1   H4B 2153   4.051   3.076   7.365 -1.5102  2.1284 -0.1401
   30CHL1    C5 2154   4.152   3.131   7.560 -0.1876  0.1631 -0.7812
   30CHL1    C6 2155   4.078   3.053   7.640  0.5802 -1.0126 -0.4830
   30CHL1    H6 2156   3.986   3.004   7.605  0.0006  0.1375 -0.6069
   30CHL1    C7 2157   4.095   3.029   7.785  0.3576  0.3834 -0.4749
   30CHL1   H7A 2158   3.995   3.033   7.833 -0.1696 -0.1643 -1.5244
   30CHL1   H7B 2159   4.142   2.931   7.811  0.3018  0.8835  1.6079
   30CHL1    C8 2160   4.186   3.138   7.853  0.3615  0.0494 -0.4645
   30CHL1    H8 2161   4.121   3.227   7.861  0.5797  0.0906  1.0782
   30CHL1   C14 2162   4.234   3.080   7.988  0.1285  0.9962 -0.7885
   30CHL1   H14 2163   4.290   2.986   7.967  0.2035  0.1307  2.9686
   30CHL1   C15 2164   4.129   3.044   8.096  0.1250  0.1588 -0.3554
   30CHL1  H15A 2165   4.056   3.127   8.094  0.4497  0.6091  3.4050
   30CHL1  H15B 2166   4.083   2.945   8.076  0.3546 -0.3878  1.7088
   30CHL1   C16 2167   4.217   3.037   8.220 -0.7659  0.4531 -0.1042
   30CHL1  H16A 2168   4.175   3.117   8.284 -0.7836  0.5269 -0.2069
   30CHL1  H16B 2169   4.211   2.937   8.268 -0.7183  0.8785  0.7923
   30CHL1   C17 2170   4.359   3.083   8.184 -0.3197 -0.6960  0.6523
   30CHL1   H17 2171   4.422   2.995   8.160  0.4734  0.7964 -2.9882
   30CHL1   C13 2172   4.339   3.168   8.056  0.1340 -0.0658  0.0291
   30CHL1   C18 2173   4.286   3.309   8.090  1.0041  0.2011  0.3944
   30CHL1  H18A 2174   4.230   3.365   8.012  1.7451  2.9301  1.7672
   30CHL1  H18B 2175   4.222   3.311   8.181 -2.2410 -0.5703 -1.7835
   30CHL1  H18C 2176   4.376   3.371   8.112 -0.4110  2.8567 -1.0456
   30CHL1   C12 2177   4.462   3.182   7.964 -0.0941 -0.5329  0.5946
   30CHL1  H12A 2178   4.525   3.254   8.019 -0.6081  0.9204 -0.6813
   30CHL1  H12B 2179   4.515   3.085   7.951  0.3511 -0.0155 -1.7222
   30CHL1   C11 2180   4.418   3.239   7.826 -0.2164  0.1793 -0.0230
   30CHL1  H11A 2181   4.385   3.343   7.850 -0.5198  0.3603 -1.2161
   30CHL1  H11B 2182   4.506   3.246   7.759  1.6657 -2.3233  2.1035
   30CHL1    C9 2183   4.308   3.159   7.758 -0.2558 -0.0696 -0.6326
   30CHL1    H9 2184   4.349   3.056   7.750 -1.4679 -0.6656  0.6584
   30CHL1   C10 2185   4.280   3.198   7.610  0.1178  0.6395 -0.5056
   30CHL1   C19 2186   4.262   3.355   7.610  0.0872  0.3314 -0.2846
   30CHL1  H19A 2187   4.232   3.390   7.509 -1.0147 -0.3509 -0.1940
   30CHL1  H19B 2188   4.193   3.385   7.692 -1.7897 -5.0141  0.3015
   30CHL1  H19C 2189   4.361   3.395   7.643  0.8054 -2.6369  1.3274
   30CHL1    C1 2190   4.398   3.160   7.524 -0.5187  0.1203  0.2942
   30CHL1   H1A 2191   4.490   3.213   7.556  0.7627 -0.3339 -2.5192
   30CHL1   H1B 2192   4.409   3.049   7.532  2.4470  0.1471 -2.5997
   30CHL1    C2 2193   4.378   3.172   7.372 -0.6578 -0.5701  0.4685
   30CHL1   H2A 2194   4.470   3.139   7.320 -0.0939 -0.1794  1.1963
   30CHL1   H2B 2195   4.357   3.278   7.346 -1.3227 -0.8788 -0.2492
   30CHL1   C20 2196   4.423   3.153   8.306  0.0120  0.5206 -0.6016
   30CHL1   H20 2197   4.363   3.242   8.333  0.3052 -0.0908  2.2617
   30CHL1   C21 2198   4.569   3.194   8.277  0.5533 -0.3985 -0.2509
   30CHL1  H21A 2199   4.625   3.203   8.373  1.2841 -0.9053 -0.6217
   30CHL1  H21B 2200   4.572   3.294   8.229 -0.6731  0.5541  1.5715
   30CHL1  H21C 2201   4.627   3.119   8.219 -1.2064 -1.1842 -1.0305
   30CHL1   C22 2202   4.410   3.081   8.435 -0.4310 -0.2040  0.3083
   30CHL1  H22A 2203   4.474   3.127   8.513  0.3964 -1.6321  0.4944
   30CHL1  H22B 2204   4.304   3.084   8.468 -0.4414  0.3015  0.2304
   30CHL1   C23 2205   4.464   2.939   8.433 -0.5374  1.0983 -0.1569
   30CHL1  H23A 2206   4.407   2.879   8.358 -2.1218  1.6984  0.5348
   30CHL1  H23B 2207   4.570   2.931   8.400 -0.6034 -1.8762  0.1809
   30CHL1   C24 2208   4.469   2.886   8.577  0.1063  0.3579 -0.4160
   30CHL1  H24A 2209   4.530   2.945   8.648  1.2765 -2.0139  0.6075
   30CHL1  H24B 2210   4.362   2.887   8.609 -0.0674 -1.1325 -0.8810
   30CHL1   C25 2211   4.516   2.740   8.603 -0.1828  0.4370  0.0225
   30CHL1   H25 2212   4.451   2.665   8.552 -1.1798  0.7108  0.8566
   30CHL1   C26 2213   4.658   2.712   8.552 -0.6237  0.3751  0.0012
   30CHL1  H26A 2214   4.660   2.695   8.443 -1.7598 -2.1619  0.3445
   30CHL1  H26B 2215   4.728   2.795   8.575 -0.0929 -0.4074  1.2614
   30CHL1  H26C 2216   4.695   2.619   8.601 -1.6256  0.5630  1.1480
   30CHL1   C27 2217   4.501   2.701   8.754 -0.5005 -0.4084  0.5230
   30CHL1  H27A 2218   4.399   2.710   8.796 -0.2573  0.3118  0.9524
   30CHL1  H27B 2219   4.534   2.596   8.774  0.8613 -0.1379 -0.2264
   30CHL1  H27C 2220   4.573   2.750   8.824  1.1810  0.6755 -1.8871
   31CHL1    C3 2221   3.628   4.977   6.687 -0.1529  1.0476  0.1665
   31CHL1    H3 2222   3.699   5.059   6.663  0.6041  0.6505  0.9930
   31CHL1    O3 2223   3.573   4.921   6.570  0.5891 -0.3286 -0.0048
   31CHL1   H3' 2224   3.491   4.880   6.598  0.6579 -2.4996 -2.7686
   31CHL1    C4 2225   3.698   4.858   6.769 -0.1873 -0.0252  0.5815
   31CHL1   H4A 2226   3.647   4.760   6.778  1.0477 -0.7685 -0.4137
   31CHL1   H4B 2227   3.788   4.836   6.709  0.2447 -0.6704  1.4521
   31CHL1    C5 2228   3.734   4.897   6.909 -0.6838 -0.3994 -0.2370
   31CHL1    C6 2229   3.859   4.875   6.953  0.7041  0.0380 -0.4761
   31CHL1    H6 2230   3.933   4.833   6.883  0.9180 -1.8060  0.8160
   31CHL1    C7 2231   3.908   4.911   7.091 -0.5496 -0.3924  0.3730
   31CHL1   H7A 2232   3.975   4.839   7.142  0.8714 -0.2200 -1.2041
   31CHL1   H7B 2233   3.961   5.009   7.090 -1.6885  0.2283  0.4596
   31CHL1    C8 2234   3.793   4.957   7.188 -0.0530  0.2937 -0.6873
   31CHL1    H8 2235   3.756   4.861   7.231 -0.1895  0.9147  0.6055
   31CHL1   C14 2236   3.850   5.027   7.307  0.3190  0.1773  0.5990
   31CHL1   H14 2237   3.912   5.111   7.271  1.0779 -0.3806  0.5900
   31CHL1   C15 2238   3.950   4.957   7.398 -0.5535  0.1992 -0.0889
   31CHL1  H15A 2239   3.908   4.858   7.425  1.0297  0.0435  1.8559
   31CHL1  H15B 2240   4.051   4.942   7.354 -0.8909 -1.0575 -0.4464
   31CHL1   C16 2241   3.944   5.050   7.524 -0.3550  0.1034 -0.8729
   31CHL1  H16A 2242   3.934   4.978   7.608 -1.6397  2.8792  1.4416
   31CHL1  H16B 2243   4.033   5.115   7.543 -0.5576  0.4518 -1.1090
   31CHL1   C17 2244   3.837   5.150   7.506 -0.3619 -0.7057 -0.2559
   31CHL1   H17 2245   3.881   5.240   7.457 -0.4426  0.2166  1.3194
   31CHL1   C13 2246   3.740   5.083   7.398 -0.3205 -0.2304 -0.0360
   31CHL1   C18 2247   3.657   4.972   7.453 -0.0578  0.0723  0.0757
   31CHL1  H18A 2248   3.725   4.925   7.527 -1.7982  1.6963  2.7989
   31CHL1  H18B 2249   3.569   5.000   7.516 -0.0461 -1.1639  0.6579
   31CHL1  H18C 2250   3.616   4.898   7.380 -0.5010 -1.6280  1.9925
   31CHL1   C12 2251   3.651   5.184   7.317  0.2687  0.1689 -0.0320
   31CHL1  H12A 2252   3.577   5.244   7.376 -0.4413  1.1971 -1.9356
   31CHL1  H12B 2253   3.720   5.254   7.266  1.8420 -1.1767  0.2293
   31CHL1   C11 2254   3.583   5.116   7.204  0.2853  0.4139  0.3476
   31CHL1  H11A 2255   3.516   5.039   7.248  0.5357 -0.2282 -0.3800
   31CHL1  H11B 2256   3.527   5.194   7.148  1.1391  1.7875  1.3806
   31CHL1    C9 2257   3.693   5.042   7.115  0.1059 -0.4331  0.2146
   31CHL1    H9 2258   3.762   5.125   7.089  0.0583 -0.2102  0.7836
   31CHL1   C10 2259   3.635   4.975   6.995 -0.1198 -0.3483  0.2946
   31CHL1   C19 2260   3.524   4.874   7.038  0.2711  0.2119  0.0255
   31CHL1  H19A 2261   3.569   4.797   7.105  2.3496  0.4043 -1.0938
   31CHL1  H19B 2262   3.433   4.922   7.080  0.7388  0.2951  0.9597
   31CHL1  H19C 2263   3.493   4.816   6.949  2.9405  1.1969 -1.6093
   31CHL1    C1 2264   3.578   5.084   6.902 -0.1989 -0.6831 -0.6527
   31CHL1   H1A 2265   3.496   5.134   6.959 -1.5469  0.7073 -3.7180
   31CHL1   H1B 2266   3.655   5.162   6.886  0.0206 -0.8301 -0.3305
   31CHL1    C2 2267   3.518   5.040   6.770  0.2629  0.2948 -0.2288
   31CHL1   H2A 2268   3.471   5.122   6.712  1.5041  1.0720 -0.1417
   31CHL1   H2B 2269   3.437   4.965   6.786 -1.2035  1.8893 -0.0755
   31CHL1   C20 2270   3.766   5.211   7.626 -0.3165 -0.3114 -0.2646
   31CHL1   H20 2271   3.688   5.140   7.659 -0.3173  0.2517  0.9923
   31CHL1   C21 2272   3.681   5.341   7.605 -0.8466 -0.0072 -0.4301
   31CHL1  H21A 2273   3.652   5.401   7.694 -1.0295  0.1037 -0.5630
   31CHL1  H21B 2274   3.586   5.325   7.548 -1.1937  1.2777 -0.2267
   31CHL1  H21C 2275   3.742   5.403   7.535 -1.5488  0.8341 -0.3045
   31CHL1   C22 2276   3.865   5.238   7.748  0.7244  0.1020 -0.2902
   31CHL1  H22A 2277   3.802   5.277   7.831  1.1863 -0.1990  0.2042
   31CHL1  H22B 2278   3.905   5.140   7.782  0.9295  0.5453  0.7675
   31CHL1   C23 2279   3.980   5.336   7.726 -0.2330 -0.3327  0.4009
   31CHL1  H23A 2280   4.052   5.298   7.651 -0.3230 -2.3313  1.2832
   31CHL1  H23B 2281   3.945   5.428   7.675 -0.0320 -0.1159  0.6548
   31CHL1   C24 2282   4.060   5.361   7.858  0.2210 -0.7756  0.4653
   31CHL1  H24A 2283   3.993   5.394   7.940 -1.3362 -1.9272 -0.3025
   31CHL1  H24B 2284   4.102   5.262   7.885  1.4857  0.3326  2.6494
   31CHL1   C25 2285   4.170   5.465   7.844  0.3102 -0.2760 -0.1812
   31CHL1   H25 2286   4.128   5.557   7.797 -0.4317 -1.6820 -2.3649
   31CHL1   C26 2287   4.214   5.502   7.985 -0.8572 -0.1741 -0.3309
   31CHL1  H26A 2288   4.118   5.538   8.028 -0.0620  0.6347  0.7861
   31CHL1  H26B 2289   4.259   5.421   8.046  0.1002 -0.7028 -1.7183
   31CHL1  H26C 2290   4.290   5.583   7.974  1.2782 -1.7925  2.0412
   31CHL1   C27 2291   4.282   5.413   7.756  0.7110 -0.1552  0.4490
   31CHL1  H27A 2292   4.319   5.312   7.783  1.7389 -0.3372 -1.5658
   31CHL1  H27B 2293   4.372   5.478   7.767 -0.5816  1.2626  3.2215
   31CHL1  H27C 2294   4.252   5.422   7.650  0.5438 -1.4880  0.3692
   32CHL1    C3 2295   4.781   3.502   7.013 -0.3557  0.1710  0.3346
   32CHL1    H3 2296   4.706   3.578   7.046  0.0241  0.3078  0.9056
   32CHL1    O3 2297   4.766   3.494   6.872 -0.0202 -0.0875 -0.3875
   32CHL1   H3' 2298   4.806   3.578   6.849  1.2181 -0.2677  1.0161
   32CHL1    C4 2299   4.925   3.534   7.060  0.2774  0.0165 -0.4810
   32CHL1   H4A 2300   4.986   3.447   7.026  0.4167 -0.9595  2.1818
   32CHL1   H4B 2301   4.958   3.626   7.008 -1.8676  0.5143 -0.9822
   32CHL1    C5 2302   4.934   3.540   7.209 -0.1049  1.0825 -0.1029
   32CHL1    C6 2303   4.974   3.652   7.267 -0.2813 -0.3523 -0.6965
   32CHL1    H6 2304   5.005   3.731   7.196 -0.9031  0.7841  0.2701
   32CHL1    C7 2305   4.982   3.677   7.420 -0.2292  0.3301  0.6214
   32CHL1   H7A 2306   5.078   3.730   7.437 -2.8122  5.1419  0.9901
   32CHL1   H7B 2307   4.903   3.744   7.459 -1.3091 -0.1735 -0.6586
   32CHL1    C8 2308   4.969   3.549   7.502  0.3932  0.1369  0.0374
   32CHL1    H8 2309   5.061   3.489   7.488  0.1851 -0.4763  1.2663
   32CHL1   C14 2310   4.933   3.571   7.647 -0.2154 -0.0068 -0.1447
   32CHL1   H14 2311   4.836   3.625   7.651 -0.1217  0.2283 -0.9474
   32CHL1   C15 2312   5.025   3.660   7.722 -0.1739  0.4062  0.0385
   32CHL1  H15A 2313   5.132   3.641   7.697  0.1300  2.6153 -0.4075
   32CHL1  H15B 2314   5.008   3.768   7.701  2.6915  0.2384 -3.6558
   32CHL1   C16 2315   5.005   3.616   7.872 -0.5751 -0.5100  0.4357
   32CHL1  H16A 2316   5.098   3.586   7.924  0.8575  1.0270 -1.1892
   32CHL1  H16B 2317   4.967   3.706   7.925  0.2437 -0.3494  0.7587
   32CHL1   C17 2318   4.897   3.507   7.877 -0.3610  0.1717 -0.3640
   32CHL1   H17 2319   4.803   3.565   7.868 -0.1864  0.3706 -0.9528
   32CHL1   C13 2320   4.913   3.441   7.732 -0.7806 -0.5860 -0.1379
   32CHL1   C18 2321   5.048   3.360   7.739  0.6031 -0.5449  0.9780
   32CHL1  H18A 2322   5.055   3.285   7.658  1.2263  2.0153 -1.3928
   32CHL1  H18B 2323   5.147   3.410   7.740  0.4921 -0.3223  0.8606
   32CHL1  H18C 2324   5.044   3.294   7.828  0.1338  0.1133  1.4499
   32CHL1   C12 2325   4.793   3.362   7.676  0.4420  0.5386  0.0663
   32CHL1  H12A 2326   4.782   3.275   7.743 -2.4057  0.9669  0.1948
   32CHL1  H12B 2327   4.701   3.424   7.673 -0.1742 -0.3582  0.2122
   32CHL1   C11 2328   4.823   3.329   7.525  0.3169 -0.2607 -0.2874
   32CHL1  H11A 2329   4.907   3.257   7.534  0.7352  0.3538  0.8674
   32CHL1  H11B 2330   4.722   3.294   7.494  0.0353  1.3556 -1.2561
   32CHL1    C9 2331   4.861   3.459   7.443  0.1276  0.5608 -0.3803
   32CHL1    H9 2332   4.765   3.516   7.449 -1.0524 -1.4233 -0.1739
   32CHL1   C10 2333   4.882   3.421   7.291 -0.2264 -0.1091  0.0462
   32CHL1   C19 2334   4.992   3.322   7.275 -0.8107  0.2329  0.0384
   32CHL1  H19A 2335   5.020   3.286   7.174  2.0739  1.7195  0.2703
   32CHL1  H19B 2336   5.083   3.356   7.328  0.2219 -0.0113 -1.5659
   32CHL1  H19C 2337   4.963   3.226   7.322 -1.2147  0.6342  0.6158
   32CHL1    C1 2338   4.748   3.370   7.230  0.1639  0.6980 -0.2504
   32CHL1   H1A 2339   4.734   3.262   7.250 -1.2568  0.7801 -0.6873
   32CHL1   H1B 2340   4.661   3.423   7.275 -0.0804  0.3603 -0.3156
   32CHL1    C2 2341   4.735   3.368   7.079 -0.7910 -0.4060  0.1006
   32CHL1   H2A 2342   4.633   3.339   7.044 -0.6321 -1.0993  0.2219
   32CHL1   H2B 2343   4.796   3.292   7.026 -1.1872 -1.5233  1.2369
   32CHL1   C20 2344   4.893   3.429   8.006  0.0738  0.4447 -0.1235
   32CHL1   H20 2345   5.001   3.418   8.033  0.1888  2.4162  0.3007
   32CHL1   C21 2346   4.823   3.295   8.009 -1.7027  0.4684  0.6560
   32CHL1  H21A 2347   4.726   3.306   7.957 -1.3957  0.2108  0.0279
   32CHL1  H21B 2348   4.806   3.254   8.111 -0.4372 -3.4658 -0.6396
   32CHL1  H21C 2349   4.883   3.217   7.956 -1.7467  0.3891  0.7237
   32CHL1   C22 2350   4.826   3.522   8.114 -0.8810  0.2310  0.8696
   32CHL1  H22A 2351   4.833   3.631   8.094 -0.4795 -0.0302 -0.4510
   32CHL1  H22B 2352   4.716   3.510   8.118 -1.1190  2.1176  0.3343
   32CHL1   C23 2353   4.858   3.485   8.261 -1.2796  0.4295 -0.1903
   32CHL1  H23A 2354   4.814   3.388   8.292 -1.0722  0.3578 -0.1227
   32CHL1  H23B 2355   4.966   3.459   8.266 -1.0314  0.9645 -2.1740
   32CHL1   C24 2356   4.814   3.589   8.364  0.1711 -0.1931  0.1594
   32CHL1  H24A 2357   4.866   3.685   8.344 -0.9656 -0.1263 -2.6501
   32CHL1  H24B 2358   4.706   3.614   8.354  0.1354 -1.4087 -2.9684
   32CHL1   C25 2359   4.843   3.555   8.508  0.4980 -0.2908 -0.3940
   32CHL1   H25 2360   4.780   3.469   8.539  2.0373 -0.8817  1.1934
   32CHL1   C26 2361   4.995   3.515   8.518 -0.0013 -0.9953 -0.3605
   32CHL1  H26A 2362   5.007   3.479   8.622 -0.5446 -0.7405 -0.2144
   32CHL1  H26B 2363   5.006   3.431   8.446 -0.6213  2.5802 -4.8723
   32CHL1  H26C 2364   5.059   3.602   8.491  0.5146 -1.6457 -1.3019
   32CHL1   C27 2365   4.805   3.680   8.594 -0.3813  0.3322 -0.4022
   32CHL1  H27A 2366   4.812   3.658   8.703  2.6077  0.4281 -0.5450
   32CHL1  H27B 2367   4.869   3.768   8.572 -1.3173  1.0762 -0.2207
   32CHL1  H27C 2368   4.698   3.708   8.578 -0.1916  1.4694  0.2394
   33CHL1    C3 2369   5.931   3.480   6.885  0.3965 -0.4477  0.0824
   33CHL1    H3 2370   6.029   3.532   6.880  0.3726 -0.4706 -0.7210
   33CHL1    O3 2371   5.888   3.472   6.753  0.1882 -0.0748 -0.0369
   33CHL1   H3' 2372   5.950   3.412   6.711 -0.0139  1.0184 -2.0159
   33CHL1    C4 2373   5.934   3.344   6.956 -0.3961  0.6240 -0.0964
   33CHL1   H4A 2374   5.837   3.291   6.945  1.7044 -3.5386  0.2444
   33CHL1   H4B 2375   6.015   3.284   6.908 -0.8606  1.1709 -1.6063
   33CHL1    C5 2376   5.965   3.362   7.105  1.0180  0.3434 -0.2448
   33CHL1    C6 2377   6.063   3.288   7.158  0.3874 -0.0909 -0.1649
   33CHL1    H6 2378   6.134   3.233   7.094  0.7072  1.0985 -0.8666
   33CHL1    C7 2379   6.107   3.300   7.304 -0.1519 -0.2092 -0.8096
   33CHL1   H7A 2380   6.120   3.198   7.347 -0.9778  0.6431  1.5283
   33CHL1   H7B 2381   6.202   3.352   7.327 -0.4747 -0.0196  0.1246
   33CHL1    C8 2382   6.004   3.385   7.385 -0.2370 -0.0199  0.1828
   33CHL1    H8 2383   5.920   3.313   7.401  1.7573 -2.2545  0.8385
   33CHL1   C14 2384   6.069   3.431   7.512 -0.0966 -0.1298 -0.5192
   33CHL1   H14 2385   6.142   3.509   7.481  0.1536 -0.7701 -1.5702
   33CHL1   C15 2386   6.144   3.316   7.588  0.0761  0.6841 -0.4576
   33CHL1  H15A 2387   6.095   3.216   7.582  0.6840  0.0272  3.7474
   33CHL1  H15B 2388   6.242   3.302   7.536 -1.0897 -3.1573 -1.8377
   33CHL1   C16 2389   6.168   3.377   7.727  0.3805  0.6429 -1.0639
   33CHL1  H16A 2390   6.141   3.298   7.800 -0.3830 -0.0279 -2.0613
   33CHL1  H16B 2391   6.274   3.409   7.730 -0.0275  2.0734 -1.4165
   33CHL1   C17 2392   6.077   3.506   7.733 -0.3321 -0.3090  0.4672
   33CHL1   H17 2393   6.147   3.587   7.706 -0.0246 -0.2543  1.4020
   33CHL1   C13 2394   5.976   3.500   7.615 -0.3812  0.0566 -0.6180
   33CHL1   C18 2395   5.862   3.401   7.658 -0.0170 -0.1122  0.1762
   33CHL1  H18A 2396   5.804   3.447   7.741  2.0093  1.9718  0.4879
   33CHL1  H18B 2397   5.794   3.400   7.570  1.8926  1.7463 -1.3533
   33CHL1  H18C 2398   5.890   3.295   7.677 -0.2526  0.0033  1.2388
   33CHL1   C12 2399   5.926   3.626   7.553  0.0203 -0.0671  0.2797
   33CHL1  H12A 2400   5.841   3.658   7.617 -1.7438  0.3429 -2.2017
   33CHL1  H12B 2401   5.999   3.710   7.555 -0.5804  0.4827 -0.6491
   33CHL1   C11 2402   5.865   3.590   7.420  0.3678 -0.6251  0.5545
   33CHL1  H11A 2403   5.772   3.535   7.449 -0.3490  0.5418  0.4843
   33CHL1  H11B 2404   5.834   3.684   7.369  0.7418 -0.0672  1.3492
   33CHL1    C9 2405   5.949   3.509   7.318 -0.2939 -1.1761  0.2248
   33CHL1    H9 2406   6.039   3.568   7.291 -0.5729 -0.2680  1.2210
   33CHL1   C10 2407   5.880   3.471   7.183 -0.1044 -0.2781 -0.4169
   33CHL1   C19 2408   5.736   3.400   7.217  0.2012  0.7015  0.0278
   33CHL1  H19A 2409   5.674   3.463   7.284 -0.2464 -0.5249  0.7890
   33CHL1  H19B 2410   5.685   3.386   7.120 -0.8500 -1.8482  0.8999
   33CHL1  H19C 2411   5.750   3.304   7.272  1.5201  1.1554  0.5138
   33CHL1    C1 2412   5.865   3.602   7.100  0.1456  0.2064  0.4922
   33CHL1   H1A 2413   5.790   3.672   7.142  0.6647  0.1020  1.6148
   33CHL1   H1B 2414   5.959   3.658   7.115 -1.4926  3.2328 -0.1835
   33CHL1    C2 2415   5.831   3.573   6.955 -0.1098 -0.8076  0.6339
   33CHL1   H2A 2416   5.830   3.668   6.898 -1.9084 -2.2732 -1.9219
   33CHL1   H2B 2417   5.732   3.524   6.940 -0.6100 -0.0186  1.3725
   33CHL1   C20 2418   6.019   3.543   7.874 -0.8589 -0.1319  0.2550
   33CHL1   H20 2419   5.925   3.487   7.892 -0.4250 -1.4078 -1.3313
   33CHL1   C21 2420   5.989   3.693   7.880 -0.6797  0.3426 -1.0246
   33CHL1  H21A 2421   5.925   3.730   7.797 -1.6851 -0.7264 -0.7527
   33CHL1  H21B 2422   6.084   3.748   7.887  0.0656 -0.9898 -0.4538
   33CHL1  H21C 2423   5.924   3.718   7.967 -0.4802  1.1663 -1.1106
   33CHL1   C22 2424   6.126   3.518   7.992 -0.2228 -0.1044  0.3288
   33CHL1  H22A 2425   6.159   3.411   7.991 -2.1034 -0.8260  4.4247
   33CHL1  H22B 2426   6.212   3.587   7.984 -0.2916  0.0009  0.5178
   33CHL1   C23 2427   6.074   3.526   8.139  0.2633  0.7738 -0.5564
   33CHL1  H23A 2428   6.016   3.620   8.152  0.6732  1.2909 -2.3719
   33CHL1  H23B 2429   6.000   3.444   8.144 -0.6377  1.6238  0.3463
   33CHL1   C24 2430   6.174   3.494   8.257  0.0373  0.2359 -0.1954
   33CHL1  H24A 2431   6.215   3.396   8.226 -1.8337 -0.0511 -1.8427
   33CHL1  H24B 2432   6.262   3.561   8.252  0.3066 -0.2200 -1.6358
   33CHL1   C25 2433   6.106   3.491   8.395 -0.1951  0.5205 -0.4108
   33CHL1   H25 2434   6.007   3.440   8.392  0.1346 -0.4550  3.0617
   33CHL1   C26 2435   6.184   3.410   8.497 -0.6212  0.3540 -0.9689
   33CHL1  H26A 2436   6.293   3.431   8.499 -0.6864  0.7423 -1.5459
   33CHL1  H26B 2437   6.131   3.424   8.593  0.3856  1.1369 -0.5154
   33CHL1  H26C 2438   6.172   3.302   8.474  2.0084  0.0093 -0.8607
   33CHL1   C27 2439   6.079   3.635   8.450 -0.3475 -0.2585  0.7060
   33CHL1  H27A 2440   6.167   3.687   8.491 -1.9319  1.1399  2.4004
   33CHL1  H27B 2441   6.042   3.696   8.365 -2.5382 -1.2889  0.8885
   33CHL1  H27C 2442   5.996   3.644   8.523  0.2637  0.4610  1.3110
   34CHL1    C3 2443   6.522   2.137   7.198  0.1541  0.3364  0.2659
   34CHL1    H3 2444   6.605   2.063   7.205  0.8940  1.0039 -1.3602
   34CHL1    O3 2445   6.464   2.127   7.068 -0.8637  0.3505  0.4300
   34CHL1   H3' 2446   6.426   2.039   7.063 -2.1441  0.9852 -1.4696
   34CHL1    C4 2447   6.412   2.099   7.306  0.2745 -0.2105  0.2242
   34CHL1   H4A 2448   6.325   2.168   7.295 -0.7647 -1.5929 -0.4736
   34CHL1   H4B 2449   6.375   1.996   7.284  3.9627 -1.9585  1.8639
   34CHL1    C5 2450   6.469   2.109   7.445  0.0509 -0.0690  0.3118
   34CHL1    C6 2451   6.474   2.007   7.528  0.5239 -0.1130 -0.1866
   34CHL1    H6 2452   6.437   1.911   7.490 -0.6941  0.3492 -0.1723
   34CHL1    C7 2453   6.519   2.016   7.671 -0.0776 -0.5574 -0.4003
   34CHL1   H7A 2454   6.439   1.981   7.740 -1.8111  3.7546 -0.1327
   34CHL1   H7B 2455   6.612   1.955   7.679  0.8987  1.2314  2.3701
   34CHL1    C8 2456   6.539   2.164   7.717 -0.0164 -0.4146 -0.3646
   34CHL1    H8 2457   6.438   2.207   7.735 -0.0043 -0.7140  0.4438
   34CHL1   C14 2458   6.619   2.167   7.844  0.4258 -1.1475  1.5064
   34CHL1   H14 2459   6.716   2.124   7.811  0.4246 -1.2363  1.6212
   34CHL1   C15 2460   6.555   2.092   7.958  0.0463  0.3903 -0.2831
   34CHL1  H15A 2461   6.447   2.114   7.969  0.0452 -0.0083  0.5654
   34CHL1  H15B 2462   6.552   1.982   7.943  1.4568 -0.0466  2.2313
   34CHL1   C16 2463   6.632   2.132   8.078  1.0478 -0.2341 -0.6484
   34CHL1  H16A 2464   6.567   2.183   8.153  0.0287  0.5294 -1.9982
   34CHL1  H16B 2465   6.681   2.042   8.119  2.6537  2.1847  3.0012
   34CHL1   C17 2466   6.728   2.246   8.024  1.4164 -0.7202 -0.2369
   34CHL1   H17 2467   6.821   2.200   7.984  1.7438  0.2310 -0.5814
   34CHL1   C13 2468   6.656   2.303   7.903 -0.1793 -0.6566  0.4902
   34CHL1   C18 2469   6.531   2.381   7.945 -0.0923 -0.2457  0.0579
   34CHL1  H18A 2470   6.460   2.390   7.860 -0.6609 -1.8863  0.3510
   34CHL1  H18B 2471   6.478   2.331   8.028 -0.2482  0.4998  0.4130
   34CHL1  H18C 2472   6.573   2.480   7.974  2.7361 -1.3895  0.0271
   34CHL1   C12 2473   6.728   2.382   7.791 -0.2628  0.3952 -1.8680
   34CHL1  H12A 2474   6.747   2.489   7.812  0.6457  0.0607 -0.9381
   34CHL1  H12B 2475   6.826   2.333   7.772 -1.0257 -2.3775  0.8699
   34CHL1   C11 2476   6.644   2.390   7.664  0.0068  0.4357  0.1690
   34CHL1  H11A 2477   6.553   2.449   7.687 -0.7937 -0.6092 -0.2979
   34CHL1  H11B 2478   6.705   2.448   7.591  2.1351 -1.1097  0.6552
   34CHL1    C9 2479   6.605   2.247   7.612  0.5404 -1.1819 -0.0745
   34CHL1    H9 2480   6.702   2.197   7.589 -0.4937 -3.5259  0.5082
   34CHL1   C10 2481   6.522   2.253   7.476  0.4806 -0.1333  0.4500
   34CHL1   C19 2482   6.397   2.351   7.494 -0.6609  0.0783  0.5834
   34CHL1  H19A 2483   6.341   2.370   7.401 -1.0618  0.4362  0.8968
   34CHL1  H19B 2484   6.331   2.327   7.580 -2.0864  0.8233 -0.2883
   34CHL1  H19C 2485   6.445   2.449   7.515  1.9979 -0.9129 -0.5694
   34CHL1    C1 2486   6.624   2.295   7.365  0.7470  0.5901 -0.0814
   34CHL1   H1A 2487   6.646   2.402   7.383  1.5284  0.6445 -1.3537
   34CHL1   H1B 2488   6.718   2.236   7.377  0.6990  0.0223 -2.2969
   34CHL1    C2 2489   6.571   2.273   7.222 -0.8756 -0.1154 -0.2993
   34CHL1   H2A 2490   6.656   2.307   7.158  0.0704 -1.8176  0.0340
   34CHL1   H2B 2491   6.486   2.340   7.195 -0.9807 -0.6357 -1.2590
   34CHL1   C20 2492   6.772   2.339   8.143  0.1691 -0.1019 -0.1490
   34CHL1   H20 2493   6.680   2.384   8.184 -0.4157 -0.6507 -0.8522
   34CHL1   C21 2494   6.850   2.464   8.088  0.8556  0.1520 -0.4853
   34CHL1  H21A 2495   6.886   2.528   8.172  1.6819 -0.2815 -0.5004
   34CHL1  H21B 2496   6.784   2.535   8.033 -0.0535  0.6793  1.2499
   34CHL1  H21C 2497   6.922   2.422   8.015 -0.1908 -3.6343  0.5557
   34CHL1   C22 2498   6.837   2.262   8.259 -0.4273  0.1251  0.4890
   34CHL1  H22A 2499   6.767   2.181   8.289  0.2983 -2.3847 -4.0982
   34CHL1  H22B 2500   6.935   2.219   8.227  1.1751  1.2282  3.7304
   34CHL1   C23 2501   6.869   2.360   8.379  0.1798 -0.2469 -0.2871
   34CHL1  H23A 2502   6.956   2.420   8.344 -0.4771 -0.2118 -1.8818
   34CHL1  H23B 2503   6.789   2.436   8.392 -0.3403 -0.3874 -2.5462
   34CHL1   C24 2504   6.909   2.282   8.497 -0.3393 -0.2774 -0.2183
   34CHL1  H24A 2505   6.813   2.242   8.535 -0.5768  0.1855 -0.3178
   34CHL1  H24B 2506   6.982   2.201   8.476 -1.9802 -1.9531  0.4048
   34CHL1   C25 2507   6.963   2.359   8.623  1.2337 -0.0355  0.4014
   34CHL1   H25 2508   6.880   2.430   8.645  0.4722 -0.0708 -2.1929
   34CHL1   C26 2509   6.998   2.267   8.737 -0.3458 -0.1947 -0.2951
   34CHL1  H26A 2510   7.099   2.227   8.714  0.0775  0.9409 -0.4581
   34CHL1  H26B 2511   6.987   2.316   8.836 -1.1140 -1.2103  0.1325
   34CHL1  H26C 2512   6.928   2.181   8.741 -1.0080  0.3915  1.0864
   34CHL1   C27 2513   7.086   2.448   8.603 -0.0581  0.1067 -0.2169
   34CHL1  H27A 2514   7.174   2.387   8.575  0.0694 -0.0452  0.5120
   34CHL1  H27B 2515   7.073   2.530   8.529  0.0270 -1.2347 -1.7259
   34CHL1  H27C 2516   7.115   2.491   8.701 -1.6545  0.5683  0.0718
   35CHL1    C3 2517   3.577   3.843   7.250  0.9605 -0.3237  0.5065
   35CHL1    H3 2518   3.670   3.869   7.306 -0.1286 -1.0703  2.6879
   35CHL1    O3 2519   3.610   3.821   7.115  0.0723 -0.2694  0.0727
   35CHL1   H3' 2520   3.563   3.740   7.093 -0.5080 -0.1698  0.9085
   35CHL1    C4 2521   3.513   3.722   7.304  0.0992  0.6325 -0.1777
   35CHL1   H4A 2522   3.419   3.700   7.249  0.4354  0.9555 -0.8784
   35CHL1   H4B 2523   3.582   3.635   7.302  0.9401  1.2588  0.9387
   35CHL1    C5 2524   3.468   3.745   7.449  0.0448  0.0252 -0.1206
   35CHL1    C6 2525   3.522   3.678   7.547  0.0404 -0.3461 -0.4072
   35CHL1    H6 2526   3.604   3.608   7.526  1.4241  0.9505  0.5460
   35CHL1    C7 2527   3.488   3.680   7.691  0.1856  0.9014  0.7460
   35CHL1   H7A 2528   3.469   3.577   7.730 -1.5675  0.3242 -1.5880
   35CHL1   H7B 2529   3.572   3.720   7.753  3.1162 -2.3105 -0.9342
   35CHL1    C8 2530   3.360   3.767   7.710 -0.0350  0.0311 -0.2518
   35CHL1    H8 2531   3.280   3.697   7.677 -1.6020  0.3260  2.8282
   35CHL1   C14 2532   3.345   3.810   7.850  0.3129  0.5920 -0.2063
   35CHL1   H14 2533   3.434   3.870   7.879  0.2724  0.5816 -0.0577
   35CHL1   C15 2534   3.359   3.695   7.953  0.9517 -0.6246 -0.1825
   35CHL1  H15A 2535   3.288   3.611   7.937 -1.0094  0.9205  0.2498
   35CHL1  H15B 2536   3.459   3.646   7.954  0.8509 -0.8620 -1.4599
   35CHL1   C16 2537   3.313   3.765   8.080  0.9283  0.1338  0.8554
   35CHL1  H16A 2538   3.248   3.703   8.145 -0.0158 -1.2622 -1.3712
   35CHL1  H16B 2539   3.400   3.793   8.143  1.4606  0.0183  0.1702
   35CHL1   C17 2540   3.241   3.895   8.039 -0.1866  0.3304 -0.2026
   35CHL1   H17 2541   3.313   3.976   8.067  0.5452  0.5435 -2.5954
   35CHL1   C13 2542   3.219   3.891   7.887 -0.9649  0.7001  0.9233
   35CHL1   C18 2543   3.090   3.810   7.858 -0.4108 -0.0915 -0.4859
   35CHL1  H18A 2544   3.000   3.867   7.889  0.0285  0.3588 -0.0647
   35CHL1  H18B 2545   3.085   3.793   7.748 -0.8653 -1.9349 -0.2131
   35CHL1  H18C 2546   3.089   3.712   7.911 -0.9400 -0.9895 -2.0986
   35CHL1   C12 2547   3.226   4.020   7.807  0.0886 -0.0216 -0.5034
   35CHL1  H12A 2548   3.141   4.091   7.820  1.5548  2.0121 -1.7084
   35CHL1  H12B 2549   3.305   4.080   7.858  0.9892 -1.2827 -0.4059
   35CHL1   C11 2550   3.253   3.997   7.651 -0.7136 -0.2630 -0.4937
   35CHL1  H11A 2551   3.155   3.977   7.604  0.1448 -0.0870 -2.4084
   35CHL1  H11B 2552   3.276   4.095   7.605 -0.5504  0.1875  0.5302
   35CHL1    C9 2553   3.361   3.889   7.620  0.7427 -0.4250  0.6148
   35CHL1    H9 2554   3.457   3.937   7.648  0.0873  0.6443  1.0703
   35CHL1   C10 2555   3.366   3.853   7.475  0.8423  0.1917  0.0869
   35CHL1   C19 2556   3.232   3.799   7.416  0.1363 -0.6542 -0.2187
   35CHL1  H19A 2557   3.154   3.877   7.427  0.0108 -0.8739  0.4699
   35CHL1  H19B 2558   3.247   3.765   7.311 -0.5678  0.6685 -0.7539
   35CHL1  H19C 2559   3.202   3.712   7.477  1.1265  0.0834  1.3539
   35CHL1    C1 2560   3.414   3.984   7.400  0.0161  0.3624 -0.0307
   35CHL1   H1A 2561   3.326   4.051   7.392 -1.2030 -1.4336 -2.4484
   35CHL1   H1B 2562   3.499   4.032   7.452 -0.1591  1.4135 -0.7131
   35CHL1    C2 2563   3.466   3.950   7.255  0.6243 -0.1542 -0.5954
   35CHL1   H2A 2564   3.518   4.039   7.214 -1.2085  0.7508 -1.0339
   35CHL1   H2B 2565   3.376   3.919   7.198 -0.4204  0.3138  0.7662
   35CHL1   C20 2566   3.113   3.921   8.121 -0.3229  0.5032  0.6483
   35CHL1   H20 2567   3.036   3.841   8.116  2.1299 -2.1249  2.4175
   35CHL1   C21 2568   3.062   4.053   8.075 -0.0758 -0.7090  0.4181
   35CHL1  H21A 2569   3.129   4.138   8.052 -1.0227 -0.8170 -3.0110
   35CHL1  H21B 2570   2.993   4.086   8.155  1.8173 -0.3092  1.9359
   35CHL1  H21C 2571   3.004   4.040   7.981  0.2758  1.1067 -0.0594
   35CHL1   C22 2572   3.148   3.937   8.270  0.5660 -0.1653 -0.6312
   35CHL1  H22A 2573   3.054   3.942   8.328  1.2359  1.2562  0.3541
   35CHL1  H22B 2574   3.201   3.845   8.303 -3.0226 -1.7983  0.7574
   35CHL1   C23 2575   3.236   4.060   8.320  0.4438  0.5857  0.3035
   35CHL1  H23A 2576   3.335   4.068   8.270  0.5359  0.5914  0.4879
   35CHL1  H23B 2577   3.189   4.155   8.287 -0.3857  0.3004  0.6555
   35CHL1   C24 2578   3.268   4.057   8.474 -0.3393 -0.2094 -0.0937
   35CHL1  H24A 2579   3.179   4.065   8.539  1.1884  2.0129  1.8074
   35CHL1  H24B 2580   3.327   3.965   8.498  0.1805  0.4337  1.1564
   35CHL1   C25 2581   3.349   4.182   8.515 -0.5263  0.0725  0.1641
   35CHL1   H25 2582   3.439   4.194   8.451 -1.5654  2.8023 -0.8899
   35CHL1   C26 2583   3.270   4.319   8.502  0.1219 -0.9723 -0.4911
   35CHL1  H26A 2584   3.234   4.327   8.397  1.5796  0.7003 -0.8889
   35CHL1  H26B 2585   3.187   4.340   8.573  0.6799  1.3300 -0.4825
   35CHL1  H26C 2586   3.345   4.399   8.522  0.0250 -1.1627  0.6796
   35CHL1   C27 2587   3.400   4.170   8.665 -0.3447 -0.6104  0.0276
   35CHL1  H27A 2588   3.436   4.266   8.708  2.4238 -1.5018 -0.2174
   35CHL1  H27B 2589   3.480   4.093   8.673 -1.1630 -1.5338 -0.4377
   35CHL1  H27C 2590   3.311   4.131   8.720 -0.2252 -3.1174 -1.4467
   36CHL1    C3 2591   3.096   2.607   6.975 -0.2051  0.1906  0.0382
   36CHL1    H3 2592   3.048   2.701   7.007  1.1042  1.2938 -1.1579
   36CHL1    O3 2593   3.109   2.597   6.833  0.2397 -0.0002 -0.3047
   36CHL1   H3' 2594   3.053   2.666   6.796 -1.8250 -0.0184  2.6382
   36CHL1    C4 2595   3.233   2.602   7.053 -0.0925  0.3549  0.0931
   36CHL1   H4A 2596   3.286   2.518   7.003 -0.7752 -0.1482  0.2088
   36CHL1   H4B 2597   3.284   2.696   7.022  1.2880  0.0558  1.4365
   36CHL1    C5 2598   3.219   2.594   7.202  0.5115  1.2033 -0.6171
   36CHL1    C6 2599   3.279   2.684   7.281  0.0985 -0.5418 -0.6165
   36CHL1    H6 2600   3.348   2.755   7.233 -0.3435  1.6993  1.9090
   36CHL1    C7 2601   3.279   2.674   7.433 -0.5710 -0.1024  0.1060
   36CHL1   H7A 2602   3.381   2.685   7.475  0.3661 -2.9629 -1.3361
   36CHL1   H7B 2603   3.222   2.762   7.470  0.5983  0.0561  1.5706
   36CHL1    C8 2604   3.208   2.549   7.493  0.7371  0.1056 -0.5211
   36CHL1    H8 2605   3.280   2.466   7.505  3.6794  2.7396  0.8861
   36CHL1   C14 2606   3.159   2.585   7.631  0.5047  0.7595 -0.6352
   36CHL1   H14 2607   3.096   2.673   7.608 -0.9139  0.0378  0.4137
   36CHL1   C15 2608   3.258   2.638   7.733  0.1765  0.1228  0.7066
   36CHL1  H15A 2609   3.342   2.570   7.760  2.6604  3.0470  0.6839
   36CHL1  H15B 2610   3.303   2.737   7.705  1.2756 -0.4357  0.4498
   36CHL1   C16 2611   3.170   2.649   7.863 -0.0044  0.4673  0.4126
   36CHL1  H16A 2612   3.219   2.615   7.957 -0.7644 -0.4439  0.4867
   36CHL1  H16B 2613   3.151   2.755   7.889  0.6758  0.8731 -0.6798
   36CHL1   C17 2614   3.042   2.565   7.837 -0.1456  0.6903 -0.4336
   36CHL1   H17 2615   2.962   2.634   7.803 -1.0624 -0.6841 -1.1239
   36CHL1   C13 2616   3.069   2.482   7.709  0.4066  0.3213  0.2806
   36CHL1   C18 2617   3.160   2.357   7.736  0.3194  0.6457 -0.3181
   36CHL1  H18A 2618   3.109   2.268   7.778 -1.0679  1.0568 -1.1247
   36CHL1  H18B 2619   3.219   2.333   7.646 -0.4427  0.9672 -0.9066
   36CHL1  H18C 2620   3.234   2.388   7.814 -2.0632  1.0047  1.8686
   36CHL1   C12 2621   2.952   2.441   7.620  0.2452 -0.0709 -0.7010
   36CHL1  H12A 2622   2.886   2.364   7.664 -1.2646  1.0744 -0.9291
   36CHL1  H12B 2623   2.879   2.522   7.596  0.2303 -0.3140 -1.5127
   36CHL1   C11 2624   3.006   2.395   7.475  0.5824 -0.2545 -0.5870
   36CHL1  H11A 2625   3.053   2.299   7.504 -0.6886 -0.4570  0.8686
   36CHL1  H11B 2626   2.917   2.366   7.414  0.1759 -0.9424  0.3223
   36CHL1    C9 2627   3.091   2.505   7.407 -0.1192 -0.0582  0.1837
   36CHL1    H9 2628   3.024   2.593   7.411  1.7486  1.3697  0.2812
   36CHL1   C10 2629   3.124   2.489   7.256 -0.2884 -0.9605 -0.0067
   36CHL1   C19 2630   3.200   2.350   7.245  0.2396 -0.7455 -0.5682
   36CHL1  H19A 2631   3.135   2.270   7.287 -0.1656 -0.6727 -1.0508
   36CHL1  H19B 2632   3.233   2.328   7.141  1.1404 -0.3879 -0.3573
   36CHL1  H19C 2633   3.289   2.355   7.311  2.2944  0.8101 -3.2974
   36CHL1    C1 2634   2.988   2.484   7.178  0.5825  0.1109 -0.1356
   36CHL1   H1A 2635   2.924   2.398   7.208 -1.0771  1.3892  0.0571
   36CHL1   H1B 2636   2.933   2.577   7.204 -0.7383 -0.5417 -0.5281
   36CHL1    C2 2637   3.010   2.488   7.025  0.2995  0.4037  0.2290
   36CHL1   H2A 2638   2.909   2.498   6.979 -1.2676 -1.6190  3.0598
   36CHL1   H2B 2639   3.051   2.387   7.002 -0.1139  0.4601 -0.7495
   36CHL1   C20 2640   2.990   2.498   7.969  0.3710  0.3078  0.7301
   36CHL1   H20 2641   3.068   2.426   8.002  0.0391 -1.2041 -1.6436
   36CHL1   C21 2642   2.849   2.430   7.948  0.4833 -0.0285 -0.2611
   36CHL1  H21A 2643   2.808   2.395   8.045 -0.4567 -0.3036 -0.7524
   36CHL1  H21B 2644   2.857   2.342   7.880  0.9868  0.1960 -0.4923
   36CHL1  H21C 2645   2.779   2.506   7.909  0.4058  0.3525  0.6274
   36CHL1   C22 2646   2.971   2.593   8.089  0.1345 -0.3615 -0.3008
   36CHL1  H22A 2647   3.054   2.666   8.093  1.8734 -2.3283  0.6436
   36CHL1  H22B 2648   2.877   2.646   8.064  0.1418 -0.6492 -0.9524
   36CHL1   C23 2649   2.960   2.533   8.230  0.0540 -0.1094 -0.7502
   36CHL1  H23A 2650   2.879   2.457   8.235 -1.7216  1.7361 -0.4046
   36CHL1  H23B 2651   3.053   2.482   8.262  0.7648  1.9346  0.5334
   36CHL1   C24 2652   2.909   2.636   8.335  0.2308  0.0157 -0.6678
   36CHL1  H24A 2653   2.959   2.734   8.318 -2.2228  1.3808 -0.2814
   36CHL1  H24B 2654   2.800   2.656   8.323  0.0209  1.1597  2.6269
   36CHL1   C25 2655   2.929   2.596   8.480 -0.4329  0.3979  0.5459
   36CHL1   H25 2656   3.036   2.565   8.481 -0.1877  1.0314 -2.1041
   36CHL1   C26 2657   2.900   2.713   8.581  0.0586 -0.2933  0.2352
   36CHL1  H26A 2658   2.984   2.734   8.650  0.7057  2.3379 -1.2926
   36CHL1  H26B 2659   2.900   2.801   8.512 -1.2107 -0.6269 -0.2141
   36CHL1  H26C 2660   2.803   2.707   8.635  0.2712  0.7659  0.7349
   36CHL1   C27 2661   2.847   2.466   8.518  0.6330  0.1696  0.2958
   36CHL1  H27A 2662   2.740   2.489   8.535  0.1913 -1.9069  0.4014
   36CHL1  H27B 2663   2.846   2.387   8.440  1.0093 -2.0096  2.4186
   36CHL1  H27C 2664   2.890   2.404   8.599  1.4337 -1.2721 -1.1958
   37CHL1    C3 2665   0.382   5.153   6.765  0.2208 -1.4350 -0.5268
   37CHL1    H3 2666   0.483   5.197   6.781 -0.0217 -0.0156 -2.6516
   37CHL1    O3 2667   0.356   5.162   6.630  0.2626  0.2838  0.2719
   37CHL1   H3' 2668   0.262   5.147   6.615  0.6162 -1.2077 -0.5361
   37CHL1    C4 2669   0.372   5.012   6.809 -0.0573 -0.6336 -0.1805
   37CHL1   H4A 2670   0.280   4.966   6.767 -1.7825  1.4590  1.2181
   37CHL1   H4B 2671   0.457   4.958   6.760  0.4277  0.7926 -0.9487
   37CHL1    C5 2672   0.378   4.998   6.957  0.7382  0.0620  0.2124
   37CHL1    C6 2673   0.477   4.917   7.006  0.6182 -0.0029  0.4617
   37CHL1    H6 2674   0.546   4.860   6.943 -1.6704 -0.7985 -1.3825
   37CHL1    C7 2675   0.496   4.896   7.156 -0.1322 -0.3566 -0.3861
   37CHL1   H7A 2676   0.496   4.786   7.175  1.0664 -0.4164 -0.7290
   37CHL1   H7B 2677   0.586   4.941   7.203  0.4763 -0.8779 -1.0502
   37CHL1    C8 2678   0.371   4.949   7.232  0.4666  0.0562  0.2811
   37CHL1    H8 2679   0.284   4.880   7.227 -0.6774  1.3120  2.0531
   37CHL1   C14 2680   0.410   4.967   7.376  0.5919 -0.4046 -0.2045
   37CHL1   H14 2681   0.491   5.043   7.370 -1.9522  2.3384 -1.1343
   37CHL1   C15 2682   0.479   4.850   7.448  0.2728  0.1702  0.1013
   37CHL1  H15A 2683   0.440   4.751   7.415 -1.8262  1.1601 -0.5130
   37CHL1  H15B 2684   0.587   4.845   7.422 -0.0202 -0.6578 -0.9957
   37CHL1   C16 2685   0.457   4.875   7.593 -0.1998  0.0603  0.0477
   37CHL1  H16A 2686   0.396   4.797   7.644  0.3206  0.3354  1.1195
   37CHL1  H16B 2687   0.550   4.875   7.654 -0.3660 -1.5021  0.3167
   37CHL1   C17 2688   0.377   5.016   7.605 -0.0322  0.1182 -0.6130
   37CHL1   H17 2689   0.456   5.094   7.598  2.2859 -1.6115  4.2051
   37CHL1   C13 2690   0.308   5.026   7.471  0.6572 -0.2322 -0.1544
   37CHL1   C18 2691   0.181   4.935   7.471  0.5592  0.1903 -0.5558
   37CHL1  H18A 2692   0.142   4.904   7.371 -0.5095  2.3886 -0.8419
   37CHL1  H18B 2693   0.193   4.837   7.523 -0.4419  1.0200  1.2529
   37CHL1  H18C 2694   0.103   4.990   7.527  0.5431 -0.5720  0.1821
   37CHL1   C12 2695   0.281   5.169   7.426 -0.2406 -0.2273  0.1310
   37CHL1  H12A 2696   0.206   5.224   7.487 -0.1792  0.6466 -0.5824
   37CHL1  H12B 2697   0.376   5.224   7.434 -0.1544 -0.3709  0.1000
   37CHL1   C11 2698   0.233   5.166   7.282  0.4010  0.1525 -0.2120
   37CHL1  H11A 2699   0.130   5.127   7.272  0.4336 -0.0721  0.3537
   37CHL1  H11B 2700   0.226   5.273   7.251 -0.1885 -0.4527 -2.2829
   37CHL1    C9 2701   0.329   5.090   7.184 -0.0346 -0.3624  0.0530
   37CHL1    H9 2702   0.425   5.145   7.181 -0.0456 -0.2665  1.0671
   37CHL1   C10 2703   0.279   5.080   7.039 -0.3340  0.3236 -0.4465
   37CHL1   C19 2704   0.137   5.012   7.018 -0.3586 -0.5746  0.1983
   37CHL1  H19A 2705   0.062   5.085   7.056 -0.2054  0.5138 -1.5326
   37CHL1  H19B 2706   0.120   5.015   6.908 -0.6331  2.4199  0.2896
   37CHL1  H19C 2707   0.130   4.909   7.060  0.0790 -1.8955 -2.7872
   37CHL1    C1 2708   0.272   5.227   6.985  0.1475 -0.1098 -0.6349
   37CHL1   H1A 2709   0.178   5.269   7.028  1.3133  0.1350  1.7346
   37CHL1   H1B 2710   0.355   5.279   7.037 -0.4708  1.7394 -1.4360
   37CHL1    C2 2711   0.274   5.240   6.833  0.2206  0.2331 -0.2783
   37CHL1   H2A 2712   0.280   5.343   6.792 -2.2713 -0.3354 -2.1820
   37CHL1   H2B 2713   0.173   5.205   6.805  0.3846 -0.4556 -0.0184
   37CHL1   C20 2714   0.316   5.034   7.743  0.0060  0.1406 -0.0785
   37CHL1   H20 2715   0.252   4.945   7.760  0.7675 -0.9120 -2.6796
   37CHL1   C21 2716   0.234   5.156   7.744 -0.0404 -0.0139  0.3880
   37CHL1  H21A 2717   0.183   5.175   7.841  1.1740 -2.9032  1.6369
   37CHL1  H21B 2718   0.150   5.148   7.672 -0.2807  1.9804  0.4178
   37CHL1  H21C 2719   0.297   5.242   7.711  1.1607 -1.4137 -1.0414
   37CHL1   C22 2720   0.422   5.050   7.861  0.5189 -0.0944 -0.0843
   37CHL1  H22A 2721   0.501   4.974   7.846  1.1037  0.4097  0.4057
   37CHL1  H22B 2722   0.474   5.148   7.862  1.8162 -0.7739  0.7321
   37CHL1   C23 2723   0.370   5.030   8.004 -0.0867  0.1164 -0.2699
   37CHL1  H23A 2724   0.297   5.112   8.021  0.0947  0.2113  0.0644
   37CHL1  H23B 2725   0.323   4.929   8.004  1.6153 -0.7078 -2.0259
   37CHL1   C24 2726   0.476   5.032   8.115 -0.0956  0.0158  0.6708
   37CHL1  H24A 2727   0.550   4.949   8.106 -1.2381 -0.9199 -0.4520
   37CHL1  H24B 2728   0.537   5.122   8.096 -0.4046 -0.5118 -3.3703
   37CHL1   C25 2729   0.409   5.053   8.253  0.1925 -0.6580 -0.7104
   37CHL1   H25 2730   0.346   5.144   8.250 -0.5572 -1.1319  0.3382
   37CHL1   C26 2731   0.313   4.948   8.293 -0.9521  0.8783 -1.1670
   37CHL1  H26A 2732   0.221   4.949   8.231  0.1276  1.7125 -2.7737
   37CHL1  H26B 2733   0.362   4.849   8.284  1.6643  2.1354 -1.0682
   37CHL1  H26C 2734   0.294   4.963   8.402 -1.3137  1.9056 -1.3661
   37CHL1   C27 2735   0.527   5.069   8.361  0.7632  0.6877 -0.4330
   37CHL1  H27A 2736   0.492   5.094   8.463 -0.6974 -0.6071 -0.5863
   37CHL1  H27B 2737   0.585   4.974   8.358 -0.3659  0.0319 -1.9715
   37CHL1  H27C 2738   0.595   5.151   8.332 -0.4607  1.8023 -0.2265
   38CHL1    C3 2739   3.580   5.432   6.732  0.0494  0.1266  0.9302
   38CHL1    H3 2740   3.622   5.334   6.765  1.0446  0.0900 -0.3960
   38CHL1    O3 2741   3.535   5.409   6.600 -0.1171 -0.5591  0.3473
   38CHL1   H3' 2742   3.501   5.494   6.570  0.4668 -0.4223  0.0760
   38CHL1    C4 2743   3.466   5.478   6.818 -0.0927  0.1555 -0.6378
   38CHL1   H4A 2744   3.424   5.566   6.765 -0.5374  1.3804  1.7159
   38CHL1   H4B 2745   3.389   5.398   6.815 -1.4049  1.2861  1.8362
   38CHL1    C5 2746   3.506   5.522   6.960  0.1162 -0.3854  0.0751
   38CHL1    C6 2747   3.440   5.476   7.072 -0.0935 -0.0959 -0.1000
   38CHL1    H6 2748   3.359   5.404   7.055  0.3689 -0.2421 -1.6995
   38CHL1    C7 2749   3.463   5.522   7.218  0.4562 -0.4442 -0.1443
   38CHL1   H7A 2750   3.373   5.562   7.269 -0.4655 -0.8420 -1.4347
   38CHL1   H7B 2751   3.503   5.441   7.284 -0.7483  0.3098  1.5528
   38CHL1    C8 2752   3.565   5.634   7.209 -0.3516 -0.7240 -0.0206
   38CHL1    H8 2753   3.511   5.730   7.192  0.9511 -0.3573 -2.4734
   38CHL1   C14 2754   3.631   5.642   7.351  0.2554  0.3564 -1.2197
   38CHL1   H14 2755   3.677   5.543   7.372  1.1211  1.2740  1.3037
   38CHL1   C15 2756   3.532   5.666   7.468 -0.1579  0.2429 -0.0588
   38CHL1  H15A 2757   3.457   5.741   7.434 -1.6141 -0.3643  1.7316
   38CHL1  H15B 2758   3.481   5.571   7.493 -2.3585  1.2749 -0.4476
   38CHL1   C16 2759   3.630   5.713   7.579 -0.5434  0.1958  0.8747
   38CHL1  H16A 2760   3.603   5.817   7.606  0.2182  0.4480  0.6700
   38CHL1  H16B 2761   3.619   5.639   7.661 -1.5563  0.0812  0.6387
   38CHL1   C17 2762   3.773   5.724   7.514  0.0892 -0.1108  0.5800
   38CHL1   H17 2763   3.815   5.621   7.522  1.1022  0.2931  0.5995
   38CHL1   C13 2764   3.743   5.749   7.366  0.2998  0.4063 -0.4861
   38CHL1   C18 2765   3.697   5.894   7.354  0.1130  0.1076  0.6521
   38CHL1  H18A 2766   3.627   5.928   7.434  0.0644 -2.7963  1.9119
   38CHL1  H18B 2767   3.780   5.967   7.351 -0.2652  0.4800 -0.8568
   38CHL1  H18C 2768   3.646   5.902   7.256  0.3574 -1.8600  0.3439
   38CHL1   C12 2769   3.850   5.715   7.265 -0.2328 -0.0442 -0.1672
   38CHL1  H12A 2770   3.927   5.795   7.277 -0.9649  0.4626  1.2424
   38CHL1  H12B 2771   3.889   5.615   7.291 -2.1465 -0.8681 -0.4327
   38CHL1   C11 2772   3.801   5.717   7.120  0.2908 -0.0187 -0.4829
   38CHL1  H11A 2773   3.772   5.818   7.084 -0.1772  0.8282  2.1599
   38CHL1  H11B 2774   3.880   5.681   7.051  2.0592  2.5899  0.1104
   38CHL1    C9 2775   3.677   5.626   7.108  0.5642  0.2653  0.1337
   38CHL1    H9 2776   3.716   5.524   7.131 -0.6285 -0.2211  0.0492
   38CHL1   C10 2777   3.628   5.617   6.959  0.0523  0.3941  0.4299
   38CHL1   C19 2778   3.585   5.757   6.917  0.0841 -1.0027 -0.0060
   38CHL1  H19A 2779   3.541   5.758   6.815 -2.1962 -1.9906  0.9381
   38CHL1  H19B 2780   3.506   5.804   6.979 -0.0965  1.0034 -1.6937
   38CHL1  H19C 2781   3.673   5.825   6.910  1.5405 -2.9412 -1.3029
   38CHL1    C1 2782   3.743   5.562   6.867  0.5019 -0.0999  0.2292
   38CHL1   H1A 2783   3.830   5.629   6.854  0.7283 -0.4040  0.1787
   38CHL1   H1B 2784   3.781   5.464   6.903  2.4633  0.3845 -0.4848
   38CHL1    C2 2785   3.694   5.536   6.720 -0.0566  0.1551 -0.4590
   38CHL1   H2A 2786   3.779   5.487   6.667 -0.3289 -0.6567 -0.1534
   38CHL1   H2B 2787   3.652   5.628   6.675 -0.6553  0.3453  0.4666
   38CHL1   C20 2788   3.878   5.811   7.588  0.1488  0.5430 -0.7395
   38CHL1   H20 2789   3.873   5.913   7.542 -0.3457  0.2442 -1.3657
   38CHL1   C21 2790   4.010   5.736   7.565  0.3698  0.0893  0.7299
   38CHL1  H21A 2791   4.017   5.712   7.456 -0.1809 -1.8210  1.1116
   38CHL1  H21B 2792   4.001   5.637   7.613 -2.0401 -0.4510 -0.7539
   38CHL1  H21C 2793   4.101   5.791   7.599  0.7783 -0.1568  0.0646
   38CHL1   C22 2794   3.849   5.839   7.733 -0.0746  0.1991 -0.9061
   38CHL1  H22A 2795   3.754   5.897   7.735 -1.5021 -2.1101  0.7360
   38CHL1  H22B 2796   3.847   5.743   7.788  0.6104  0.3610 -0.6011
   38CHL1   C23 2797   3.953   5.929   7.799 -0.4619  0.3017 -0.6353
   38CHL1  H23A 2798   4.056   5.890   7.801 -0.1505  1.1540  0.0258
   38CHL1  H23B 2799   3.956   6.017   7.731 -3.5437  1.4545  0.6182
   38CHL1   C24 2800   3.912   6.000   7.931 -0.1339  0.6613 -0.7464
   38CHL1  H24A 2801   3.985   6.082   7.948  1.4282 -0.4429 -2.0204
   38CHL1  H24B 2802   3.812   6.044   7.907  0.1561  1.5903 -0.2747
   38CHL1   C25 2803   3.903   5.898   8.045  0.0442 -0.2674  0.5690
   38CHL1   H25 2804   3.827   5.821   8.018  0.4163  0.0272 -1.3829
   38CHL1   C26 2805   4.034   5.833   8.092 -0.6547  0.2311  0.0969
   38CHL1  H26A 2806   4.014   5.766   8.178  1.1249  0.2669  0.5650
   38CHL1  H26B 2807   4.078   5.777   8.006  1.0357 -0.2935  1.2828
   38CHL1  H26C 2808   4.095   5.921   8.120 -1.5669  0.6852  0.6882
   38CHL1   C27 2809   3.852   5.958   8.178 -0.1111  0.0475 -0.0655
   38CHL1  H27A 2810   3.753   6.008   8.164  0.5120  0.5682 -2.7656
   38CHL1  H27B 2811   3.834   5.885   8.261 -0.3624  0.7612  0.5146
   38CHL1  H27C 2812   3.924   6.032   8.219 -0.1631 -0.5494  1.1325
   39CHL1    C3 2813   3.153   5.025   6.871 -0.4808  0.0385  0.8271
   39CHL1    H3 2814   3.258   4.990   6.883  0.0649  1.2490 -0.2189
   39CHL1    O3 2815   3.111   5.002   6.739 -0.3669  0.1968 -0.0873
   39CHL1   H3' 2816   3.018   5.027   6.731  0.2742  2.5683 -0.5376
   39CHL1    C4 2817   3.073   4.933   6.962 -0.2259  0.5339 -0.2272
   39CHL1   H4A 2818   2.965   4.957   6.948 -0.0393  2.9552  2.0173
   39CHL1   H4B 2819   3.086   4.827   6.932 -2.0769  0.2956 -0.2468
   39CHL1    C5 2820   3.121   4.952   7.105  1.0638 -0.2895  0.3512
   39CHL1    C6 2821   3.163   4.847   7.178  0.4255 -0.2096 -0.3327
   39CHL1    H6 2822   3.159   4.747   7.133  0.8211  0.1707 -1.2189
   39CHL1    C7 2823   3.182   4.853   7.328 -0.3491  0.3171  0.0827
   39CHL1   H7A 2824   3.129   4.774   7.386 -0.4227  1.1464  1.1612
   39CHL1   H7B 2825   3.291   4.836   7.345 -0.6623 -0.7626  1.0541
   39CHL1    C8 2826   3.151   4.994   7.381  0.0469 -0.7732  0.3056
   39CHL1    H8 2827   3.041   5.003   7.387  0.0587  0.7215 -1.3726
   39CHL1   C14 2828   3.214   5.016   7.518 -0.6885  0.4905 -0.2860
   39CHL1   H14 2829   3.322   5.001   7.496 -0.9734 -1.3469 -0.5298
   39CHL1   C15 2830   3.175   4.913   7.630  0.0109  0.8529  0.5520
   39CHL1  H15A 2831   3.066   4.894   7.642 -0.0788  0.8675 -0.2103
   39CHL1  H15B 2832   3.229   4.816   7.620 -0.5770  0.5544  0.2185
   39CHL1   C16 2833   3.231   4.975   7.765  0.7906 -0.2762 -0.4738
   39CHL1  H16A 2834   3.154   4.985   7.844  0.1657  0.2391 -1.1360
   39CHL1  H16B 2835   3.323   4.926   7.802 -0.6414 -1.2369  1.8900
   39CHL1   C17 2836   3.269   5.125   7.720  0.0256  0.0540  0.2622
   39CHL1   H17 2837   3.373   5.115   7.682 -0.1566  0.6188 -0.3924
   39CHL1   C13 2838   3.187   5.154   7.589 -0.4540  0.8670  0.7700
   39CHL1   C18 2839   3.038   5.175   7.617 -0.2415  0.3233 -0.2931
   39CHL1  H18A 2840   3.009   5.123   7.711  0.2465  1.4134  0.4712
   39CHL1  H18B 2841   3.028   5.281   7.646 -0.2221  0.5178 -0.9992
   39CHL1  H18C 2842   2.960   5.167   7.539 -2.2372  1.4150  1.5277
   39CHL1   C12 2843   3.254   5.254   7.487 -0.1103  0.0113 -0.2482
   39CHL1  H12A 2844   3.254   5.360   7.521  0.4961  0.4230 -1.4971
   39CHL1  H12B 2845   3.358   5.219   7.467  0.1800  0.2396  0.8194
   39CHL1   C11 2846   3.179   5.255   7.356 -0.3722  0.0043  0.3196
   39CHL1  H11A 2847   3.080   5.300   7.376  0.3242  0.2469  3.4312
   39CHL1  H11B 2848   3.224   5.321   7.278  0.7392 -1.8077 -0.6176
   39CHL1    C9 2849   3.191   5.106   7.288 -0.1681 -0.1124  0.3256
   39CHL1    H9 2850   3.299   5.088   7.269 -0.4007 -1.9090  0.6412
   39CHL1   C10 2851   3.117   5.096   7.151 -0.7098 -0.0894  0.3384
   39CHL1   C19 2852   2.966   5.148   7.163 -0.1732 -0.0080  0.1059
   39CHL1  H19A 2853   2.967   5.259   7.172  0.2229 -0.0517  0.5894
   39CHL1  H19B 2854   2.912   5.111   7.072  0.5387 -2.3321  0.5936
   39CHL1  H19C 2855   2.921   5.101   7.253  0.2966 -0.8721 -0.1112
   39CHL1    C1 2856   3.183   5.196   7.049 -0.6167  0.5230 -0.2168
   39CHL1   H1A 2857   3.153   5.292   7.096 -0.0156  1.4574 -1.7062
   39CHL1   H1B 2858   3.293   5.187   7.046 -0.6048  0.4128  0.5535
   39CHL1    C2 2859   3.137   5.174   6.908 -0.8798  0.3606  0.1390
   39CHL1   H2A 2860   3.196   5.231   6.834 -0.1781 -2.0767 -1.2148
   39CHL1   H2B 2861   3.030   5.202   6.895 -1.1372 -0.6945 -0.0627
   39CHL1   C20 2862   3.255   5.223   7.837 -0.5974  0.5875  0.5374
   39CHL1   H20 2863   3.152   5.217   7.880 -2.1738  0.6896 -3.0302
   39CHL1   C21 2864   3.289   5.363   7.784 -0.0681 -0.2366  0.9200
   39CHL1  H21A 2865   3.384   5.362   7.726 -0.4301  2.3466  0.2406
   39CHL1  H21B 2866   3.281   5.448   7.856  0.9487  0.3942  0.3028
   39CHL1  H21C 2867   3.207   5.391   7.715  0.2653  1.5928  1.2313
   39CHL1   C22 2868   3.347   5.187   7.961 -0.4914 -0.2069  0.2239
   39CHL1  H22A 2869   3.352   5.079   7.985  1.0936 -0.3587 -0.7675
   39CHL1  H22B 2870   3.449   5.225   7.940 -0.9553  0.2650 -1.2386
   39CHL1   C23 2871   3.289   5.244   8.090  0.6454  0.3913 -0.2871
   39CHL1  H23A 2872   3.290   5.355   8.077  0.6247  0.3156 -0.9231
   39CHL1  H23B 2873   3.182   5.215   8.089  0.6463  0.1769  2.4335
   39CHL1   C24 2874   3.348   5.202   8.227 -0.6394  0.0064 -0.3245
   39CHL1  H24A 2875   3.350   5.091   8.225 -0.8128 -0.0823  2.3268
   39CHL1  H24B 2876   3.449   5.246   8.234 -1.4596  1.7984  0.4526
   39CHL1   C25 2877   3.282   5.246   8.359 -0.8635  0.3677  0.5953
   39CHL1   H25 2878   3.173   5.224   8.359 -0.7822 -0.1169 -0.6555
   39CHL1   C26 2879   3.352   5.175   8.477  0.2032  0.0479 -0.7576
   39CHL1  H26A 2880   3.311   5.210   8.574  0.7955  2.6210 -1.3943
   39CHL1  H26B 2881   3.351   5.064   8.476  2.9307 -0.0943  2.6140
   39CHL1  H26C 2882   3.458   5.208   8.485 -0.0897  1.0156 -0.7625
   39CHL1   C27 2883   3.286   5.399   8.370 -0.0159 -0.3841 -0.3967
   39CHL1  H27A 2884   3.235   5.458   8.290 -2.9620 -1.5280  0.5800
   39CHL1  H27B 2885   3.239   5.415   8.470 -0.1671  0.8687 -0.6511
   39CHL1  H27C 2886   3.391   5.431   8.386  0.0444 -0.4410 -0.6757
   40CHL1    C3 2887   6.156   4.041   6.869  0.2174  0.1803  0.4238
   40CHL1    H3 2888   6.087   4.125   6.844  2.0232  1.0188 -1.9733
   40CHL1    O3 2889   6.215   3.993   6.744  0.1712 -0.3062 -0.1395
   40CHL1   H3' 2890   6.307   4.021   6.739  1.8106 -4.9533  1.1905
   40CHL1    C4 2891   6.266   4.099   6.965  0.5030  0.6165 -0.1303
   40CHL1   H4A 2892   6.345   4.021   6.972 -1.2215 -1.0829  0.8372
   40CHL1   H4B 2893   6.314   4.188   6.919  2.2588 -0.8722 -1.2418
   40CHL1    C5 2894   6.225   4.118   7.113  0.5701  0.2475  0.2856
   40CHL1    C6 2895   6.260   4.231   7.170 -0.1495 -0.1281 -0.2781
   40CHL1    H6 2896   6.304   4.316   7.115  1.3828 -0.0948  0.9670
   40CHL1    C7 2897   6.228   4.261   7.313 -0.3256 -0.2420  0.6611
   40CHL1   H7A 2898   6.316   4.312   7.357  0.8161 -0.5428 -1.2303
   40CHL1   H7B 2899   6.148   4.337   7.302  1.1580  1.0038 -1.9873
   40CHL1    C8 2900   6.180   4.142   7.398  0.0474  0.5708 -0.2154
   40CHL1    H8 2901   6.269   4.083   7.432 -0.2131  0.9757  1.2029
   40CHL1   C14 2902   6.105   4.197   7.517 -0.1639  0.3630  0.0925
   40CHL1   H14 2903   6.010   4.242   7.481  0.2705  1.3281  0.1345
   40CHL1   C15 2904   6.179   4.297   7.604  0.3112  0.3166  0.7330
   40CHL1  H15A 2905   6.285   4.266   7.608  0.4675  0.2193 -2.7914
   40CHL1  H15B 2906   6.180   4.401   7.565 -2.0087 -0.0857 -0.5215
   40CHL1   C16 2907   6.109   4.284   7.739 -0.0436 -0.6667 -0.6009
   40CHL1  H16A 2908   6.187   4.240   7.805 -0.0132 -1.5530 -1.2270
   40CHL1  H16B 2909   6.067   4.379   7.781  1.7746 -0.4261  0.7475
   40CHL1   C17 2910   5.999   4.171   7.726 -1.2885  0.9969  0.9032
   40CHL1   H17 2911   5.908   4.219   7.686 -1.6502  1.2283  1.9999
   40CHL1   C13 2912   6.054   4.083   7.613 -0.4871 -0.1539  0.5930
   40CHL1   C18 2913   6.158   3.989   7.676 -0.1951  0.7071  0.4682
   40CHL1  H18A 2914   6.107   3.905   7.728  0.8438 -0.1189  0.1749
   40CHL1  H18B 2915   6.224   3.935   7.604  0.3019  1.1553  0.5834
   40CHL1  H18C 2916   6.226   4.047   7.742 -0.5292 -0.7813  2.1533
   40CHL1   C12 2917   5.947   4.001   7.532  0.4250  0.0406  0.3852
   40CHL1  H12A 2918   5.926   3.912   7.596 -0.8410  0.6473  0.8369
   40CHL1  H12B 2919   5.859   4.065   7.508  0.3875 -0.2454 -0.2242
   40CHL1   C11 2920   6.006   3.955   7.395 -0.1596 -0.3424  0.1340
   40CHL1  H11A 2921   6.080   3.884   7.437 -2.6282 -1.7227  2.3575
   40CHL1  H11B 2922   5.933   3.903   7.329  2.1332 -1.4585 -1.5690
   40CHL1    C9 2923   6.083   4.061   7.309  0.5610  0.1154 -0.1624
   40CHL1    H9 2924   6.000   4.131   7.283  0.4973  0.1096  0.0176
   40CHL1   C10 2925   6.144   4.009   7.180 -1.1238 -0.1907 -0.2174
   40CHL1   C19 2926   6.238   3.888   7.220 -0.2264  0.5530  0.3486
   40CHL1  H19A 2927   6.184   3.802   7.265  1.7654 -0.9175 -0.0050
   40CHL1  H19B 2928   6.279   3.851   7.124  1.8371  0.4955  1.2128
   40CHL1  H19C 2929   6.312   3.912   7.299  0.3860 -0.5058  0.1073
   40CHL1    C1 2930   6.034   3.968   7.080  0.8837 -0.2135  0.3869
   40CHL1   H1A 2931   5.982   3.879   7.124  1.2040 -0.6239 -0.0654
   40CHL1   H1B 2932   5.960   4.050   7.065  1.6073  0.1670 -1.1486
   40CHL1    C2 2933   6.081   3.923   6.938 -0.9714 -0.3173  0.4090
   40CHL1   H2A 2934   5.991   3.892   6.880  1.0184 -1.1333 -2.3374
   40CHL1   H2B 2935   6.149   3.836   6.950 -2.5293 -1.6936 -0.3840
   40CHL1   C20 2936   5.961   4.112   7.864  0.1348 -0.0577 -0.1230
   40CHL1   H20 2937   6.037   4.033   7.885  1.8787  1.4976 -0.4874
   40CHL1   C21 2938   5.826   4.043   7.845 -0.2063 -0.5651  0.0453
   40CHL1  H21A 2939   5.735   4.106   7.856 -0.9431 -1.7181  0.6501
   40CHL1  H21B 2940   5.815   3.962   7.920 -1.3987 -0.2241  0.2549
   40CHL1  H21C 2941   5.824   3.987   7.749  2.2961 -2.5906  1.1243
   40CHL1   C22 2942   5.959   4.206   7.987  0.0407 -0.0158 -0.9624
   40CHL1  H22A 2943   6.055   4.262   7.995 -1.2749  2.0212  1.0864
   40CHL1  H22B 2944   5.877   4.278   7.972 -1.3473 -1.2811  0.3968
   40CHL1   C23 2945   5.956   4.136   8.124 -0.1260 -0.1688 -0.2188
   40CHL1  H23A 2946   5.859   4.087   8.151 -0.0272  0.1277  0.7025
   40CHL1  H23B 2947   6.039   4.063   8.120  0.2486  0.3574 -2.2986
   40CHL1   C24 2948   5.978   4.224   8.248  0.2347  0.0150 -0.4151
   40CHL1  H24A 2949   6.075   4.275   8.238  1.1996 -1.2027  2.3625
   40CHL1  H24B 2950   5.898   4.300   8.236  0.0818 -0.3275 -1.6594
   40CHL1   C25 2951   5.956   4.157   8.385 -0.3829  0.3256  0.1922
   40CHL1   H25 2952   5.850   4.122   8.390  0.2829 -1.9798 -1.2909
   40CHL1   C26 2953   6.042   4.030   8.405 -0.2155 -0.7438 -0.2267
   40CHL1  H26A 2954   6.141   4.072   8.433 -1.8111  3.1227 -0.1412
   40CHL1  H26B 2955   5.992   3.977   8.489 -0.5511 -1.3128 -0.7755
   40CHL1  H26C 2956   6.053   3.950   8.329  0.0809 -0.5889 -0.3500
   40CHL1   C27 2957   5.986   4.257   8.501  0.3380 -0.1211 -0.6811
   40CHL1  H27A 2958   6.087   4.300   8.484  1.3964 -1.5394  1.8439
   40CHL1  H27B 2959   5.932   4.352   8.477  1.4877  0.5788 -0.5133
   40CHL1  H27C 2960   5.976   4.211   8.601 -1.1088 -2.1884 -1.7388
   41CHL1    C3 2961   0.236   3.659   7.083  0.3317 -0.1857  0.0956
   41CHL1    H3 2962   0.284   3.759   7.078 -1.3819  0.5748 -1.6594
   41CHL1    O3 2963   0.214   3.612   6.955 -0.4420 -0.0828 -0.1422
   41CHL1   H3' 2964   0.187   3.521   6.970 -0.8932 -0.1850 -1.4343
   41CHL1    C4 2965   0.315   3.542   7.152  0.0922  0.3438 -0.3464
   41CHL1   H4A 2966   0.254   3.453   7.128 -1.2841  1.6712 -1.8554
   41CHL1   H4B 2967   0.415   3.539   7.103 -0.2292 -1.9641 -0.8887
   41CHL1    C5 2968   0.329   3.550   7.302 -0.3102  0.4053  0.2656
   41CHL1    C6 2969   0.449   3.564   7.367 -0.2909 -0.4290 -1.2579
   41CHL1    H6 2970   0.540   3.574   7.306 -0.1772 -0.8518 -1.1580
   41CHL1    C7 2971   0.463   3.576   7.515 -0.1132 -0.3342  0.4373
   41CHL1   H7A 2972   0.538   3.499   7.545  1.3760  0.6380 -0.6452
   41CHL1   H7B 2973   0.509   3.675   7.534 -0.6269  0.1421 -0.7553
   41CHL1    C8 2974   0.333   3.560   7.596  0.8457  0.0667  0.4866
   41CHL1    H8 2975   0.309   3.456   7.626  0.4410  0.8504  2.9779
   41CHL1   C14 2976   0.338   3.620   7.739 -0.8617 -0.4990  0.3939
   41CHL1   H14 2977   0.357   3.727   7.714 -1.8961 -0.1244  1.1950
   41CHL1   C15 2978   0.461   3.569   7.819 -0.1617  0.0745 -0.5156
   41CHL1  H15A 2979   0.478   3.460   7.806 -0.1031  0.0099  0.0786
   41CHL1  H15B 2980   0.555   3.618   7.786 -0.7941  0.3641 -1.9542
   41CHL1   C16 2981   0.425   3.619   7.967 -1.0365 -0.2202 -0.3148
   41CHL1  H16A 2982   0.432   3.526   8.028 -1.1208 -0.0553 -0.0593
   41CHL1  H16B 2983   0.493   3.698   8.004 -1.0031 -0.9208  1.1538
   41CHL1   C17 2984   0.278   3.674   7.948 -0.4206  0.1465 -0.6303
   41CHL1   H17 2985   0.294   3.780   7.918 -2.5752  1.2307  1.8564
   41CHL1   C13 2986   0.217   3.608   7.827 -0.7057 -0.4247  0.1477
   41CHL1   C18 2987   0.187   3.465   7.874 -0.5069  0.2158 -0.2895
   41CHL1  H18A 2988   0.094   3.452   7.934 -1.1456  1.8340 -0.8753
   41CHL1  H18B 2989   0.159   3.409   7.782 -0.9735 -2.6227  1.5168
   41CHL1  H18C 2990   0.270   3.417   7.929  0.4639  2.9289  0.7111
   41CHL1   C12 2991   0.100   3.685   7.756 -1.2350 -0.0352  0.3251
   41CHL1  H12A 2992   0.009   3.668   7.817 -2.3518  1.4189 -0.8907
   41CHL1  H12B 2993   0.117   3.795   7.752  0.1317 -0.2213  0.5214
   41CHL1   C11 2994   0.074   3.628   7.609  0.2603  0.1308 -0.2631
   41CHL1  H11A 2995   0.019   3.532   7.622 -1.3652  0.5491 -3.6223
   41CHL1  H11B 2996   0.004   3.696   7.555  0.1024  0.0098 -0.2091
   41CHL1    C9 2997   0.205   3.624   7.525 -0.9007 -0.4812  0.0392
   41CHL1    H9 2998   0.232   3.731   7.511  1.4357 -0.5214  3.7671
   41CHL1   C10 2999   0.195   3.572   7.377  0.4248  0.7599 -0.0839
   41CHL1   C19 3000   0.118   3.443   7.377 -0.3365  0.3211 -0.5338
   41CHL1  H19A 3001   0.021   3.467   7.425 -0.2691 -1.3023  0.4738
   41CHL1  H19B 3002   0.102   3.399   7.276  2.7975  0.1810 -1.0264
   41CHL1  H19C 3003   0.161   3.367   7.446 -1.0446 -0.5116 -1.0054
   41CHL1    C1 3004   0.115   3.678   7.310 -0.3479  0.3020 -0.0577
   41CHL1   H1A 3005   0.011   3.678   7.350 -0.2927  1.0585  0.0891
   41CHL1   H1B 3006   0.164   3.777   7.321  2.3371 -1.1312  1.3756
   41CHL1    C2 3007   0.099   3.667   7.158  0.9309 -0.7253  0.0855
   41CHL1   H2A 3008   0.050   3.765   7.137  2.7209  0.6369  1.9810
   41CHL1   H2B 3009   0.032   3.583   7.132 -0.7079  1.1882 -2.0661
   41CHL1   C20 3010   0.196   3.687   8.082  0.0271  0.6071 -0.7478
   41CHL1   H20 3011   0.117   3.609   8.080 -1.5372  2.1375 -0.8105
   41CHL1   C21 3012   0.109   3.821   8.072  0.8502 -0.3530  0.7604
   41CHL1  H21A 3013   0.083   3.841   7.966  0.9329 -0.2732  0.7556
   41CHL1  H21B 3014   0.177   3.900   8.110  3.8451 -1.6162 -1.6822
   41CHL1  H21C 3015   0.020   3.824   8.139  0.4983  1.9574  0.2271
   41CHL1   C22 3016   0.272   3.675   8.214  0.7971 -0.1805 -0.1004
   41CHL1  H22A 3017   0.316   3.574   8.223  1.8753  0.4653  2.1245
   41CHL1  H22B 3018   0.360   3.743   8.214 -0.4938  1.5422  0.7376
   41CHL1   C23 3019   0.174   3.686   8.335  0.0345  0.6273 -0.2363
   41CHL1  H23A 3020   0.125   3.786   8.329 -1.9913 -0.4344 -2.3282
   41CHL1  H23B 3021   0.088   3.617   8.322  0.0646  0.3580  0.9561
   41CHL1   C24 3022   0.244   3.683   8.469  0.2714  0.4867 -0.0730
   41CHL1  H24A 3023   0.305   3.590   8.472 -1.2594 -0.5126  0.4064
   41CHL1  H24B 3024   0.311   3.771   8.483 -0.5147  1.1741 -0.6170
   41CHL1   C25 3025   0.159   3.688   8.599 -0.2896 -0.3756 -0.4170
   41CHL1   H25 3026   0.112   3.788   8.595  0.4646  0.0322  0.5608
   41CHL1   C26 3027   0.047   3.586   8.602  0.1145 -0.3277 -0.2826
   41CHL1  H26A 3028   0.010   3.577   8.498 -1.1690  1.2323  0.0169
   41CHL1  H26B 3029   0.078   3.482   8.625 -1.3985 -1.0319 -1.3751
   41CHL1  H26C 3030  -0.039   3.607   8.669  0.4291 -1.2036  0.4054
   41CHL1   C27 3031   0.241   3.684   8.728 -0.2688  0.0725  0.1047
   41CHL1  H27A 3032   0.313   3.768   8.730  1.5254 -1.4296  1.1743
   41CHL1  H27B 3033   0.170   3.691   8.814  1.1321 -2.3755  1.5359
   41CHL1  H27C 3034   0.289   3.584   8.741  3.2318  1.7800  1.0931
   42CHL1    C3 3035   1.336   1.344   6.855  0.5874  0.1427 -0.0278
   42CHL1    H3 3036   1.269   1.273   6.802 -1.5093  1.8314  0.2913
   42CHL1    O3 3037   1.361   1.451   6.765 -0.4562 -0.9641  0.1598
   42CHL1   H3' 3038   1.388   1.520   6.826 -2.9662  3.1793 -3.1150
   42CHL1    C4 3039   1.255   1.391   6.982  0.0596  0.5058  0.1886
   42CHL1   H4A 3040   1.319   1.468   7.029  2.3256 -1.9862  1.2783
   42CHL1   H4B 3041   1.157   1.437   6.953 -0.2323  1.0981  2.0825
   42CHL1    C5 3042   1.232   1.284   7.087  0.2407  0.1418 -0.2062
   42CHL1    C6 3043   1.119   1.256   7.151  0.1905  0.6613 -0.1657
   42CHL1    H6 3044   1.028   1.306   7.114  0.2453  0.8350 -0.0655
   42CHL1    C7 3045   1.104   1.171   7.269  0.2451 -0.0032 -0.4078
   42CHL1   H7A 3046   1.047   1.229   7.344  1.6957  0.3316  0.4526
   42CHL1   H7B 3047   1.044   1.083   7.236 -1.7731  1.3291 -0.3836
   42CHL1    C8 3048   1.231   1.109   7.315 -0.5217  0.0032  0.6246
   42CHL1    H8 3049   1.280   1.184   7.381  0.9096  1.0143 -1.5260
   42CHL1   C14 3050   1.206   0.984   7.397 -0.1199  0.5570  0.4450
   42CHL1   H14 3051   1.183   0.898   7.331  1.0859  0.7079 -0.1755
   42CHL1   C15 3052   1.102   0.988   7.506  0.3451  0.2862  0.4155
   42CHL1  H15A 3053   1.107   1.093   7.543  0.2910  0.9493 -1.4131
   42CHL1  H15B 3054   0.998   0.974   7.470  0.5491  1.3091 -0.5854
   42CHL1   C16 3055   1.140   0.879   7.606 -0.6859  0.3032  0.1588
   42CHL1  H16A 3056   1.159   0.932   7.703 -1.8927  1.8062 -0.3956
   42CHL1  H16B 3057   1.068   0.795   7.610  2.5786 -2.6312 -1.1137
   42CHL1   C17 3058   1.270   0.817   7.548  0.6143 -0.3669  0.7270
   42CHL1   H17 3059   1.245   0.743   7.469  0.4733  0.7510 -0.3029
   42CHL1   C13 3060   1.330   0.928   7.456  0.2350  0.0023 -0.0558
   42CHL1   C18 3061   1.411   1.029   7.539  0.4236  0.0046 -0.7417
   42CHL1  H18A 3062   1.350   1.067   7.624 -0.9401 -0.5981 -1.4401
   42CHL1  H18B 3063   1.508   0.979   7.560 -0.7215 -2.8650 -2.0234
   42CHL1  H18C 3064   1.439   1.114   7.473 -0.5732  2.8198  2.3167
   42CHL1   C12 3065   1.420   0.875   7.343  0.2814  0.4728  0.1059
   42CHL1  H12A 3066   1.519   0.839   7.379  0.2024 -0.8114 -0.9389
   42CHL1  H12B 3067   1.369   0.793   7.288  1.0358  1.2240 -1.7698
   42CHL1   C11 3068   1.445   0.981   7.235  0.5774  0.2386 -0.1162
   42CHL1  H11A 3069   1.533   1.035   7.278 -0.3553  2.2572 -0.6752
   42CHL1  H11B 3070   1.480   0.923   7.147  2.3798 -0.6493  1.1535
   42CHL1    C9 3071   1.325   1.082   7.199 -0.0998  0.4078  0.7764
   42CHL1    H9 3072   1.265   1.016   7.133  0.5855 -0.3065  0.8708
   42CHL1   C10 3073   1.363   1.206   7.116  0.2300  0.3041 -0.1030
   42CHL1   C19 3074   1.466   1.290   7.199  0.1652 -0.0018  0.1217
   42CHL1  H19A 3075   1.442   1.303   7.307 -0.7834  0.4239 -0.1379
   42CHL1  H19B 3076   1.560   1.231   7.198 -0.4036 -0.9737  2.1804
   42CHL1  H19C 3077   1.495   1.389   7.157  0.9837 -0.0171  0.6366
   42CHL1    C1 3078   1.430   1.158   6.989  0.2617  0.2016  1.0172
   42CHL1   H1A 3079   1.520   1.097   7.011  0.1252  0.3387  2.0060
   42CHL1   H1B 3080   1.364   1.096   6.925  1.5459  0.3998 -0.5176
   42CHL1    C2 3081   1.467   1.270   6.889  0.1624 -0.4533  0.0253
   42CHL1   H2A 3082   1.519   1.235   6.797  1.1170 -3.6462  1.6900
   42CHL1   H2B 3083   1.537   1.340   6.940  0.7165  0.5372 -2.0640
   42CHL1   C20 3084   1.365   0.753   7.651  0.5274 -0.1782  0.2176
   42CHL1   H20 3085   1.467   0.767   7.608  0.4524  1.9121  0.6536
   42CHL1   C21 3086   1.323   0.605   7.658  0.4395  0.0614 -1.2516
   42CHL1  H21A 3087   1.220   0.590   7.698  0.2447 -1.0808 -2.1168
   42CHL1  H21B 3088   1.402   0.550   7.713  1.3765  1.1824 -1.4573
   42CHL1  H21C 3089   1.326   0.563   7.555 -4.2096 -2.4516 -0.5443
   42CHL1   C22 3090   1.370   0.819   7.795 -0.4296 -0.8973 -0.1142
   42CHL1  H22A 3091   1.379   0.929   7.780 -0.2096 -1.0067 -0.7931
   42CHL1  H22B 3092   1.272   0.805   7.846 -0.4923  1.2669  0.4295
   42CHL1   C23 3093   1.476   0.771   7.898 -0.5104  0.3698 -0.4369
   42CHL1  H23A 3094   1.447   0.678   7.951 -1.0422  0.9586  0.3100
   42CHL1  H23B 3095   1.571   0.757   7.842  0.4365 -0.6865  1.3732
   42CHL1   C24 3096   1.493   0.878   8.010 -0.5705 -0.5932  0.0381
   42CHL1  H24A 3097   1.417   0.958   8.001  1.5507  1.7310  2.0146
   42CHL1  H24B 3098   1.476   0.823   8.105  1.0552  2.4376  2.1395
   42CHL1   C25 3099   1.627   0.945   8.013 -0.2964 -0.0738  0.2966
   42CHL1   H25 3100   1.700   0.861   8.021  1.4823  1.6804  2.9486
   42CHL1   C26 3101   1.653   1.024   7.879 -0.1427 -0.2109  0.0744
   42CHL1  H26A 3102   1.657   0.957   7.791  2.2065  0.2081 -0.1797
   42CHL1  H26B 3103   1.567   1.090   7.852  1.5101  1.1641 -2.0101
   42CHL1  H26C 3104   1.746   1.084   7.885 -0.6817  0.6231  0.1882
   42CHL1   C27 3105   1.640   1.026   8.139  0.0158 -0.3755  0.2175
   42CHL1  H27A 3106   1.745   1.063   8.141 -0.0638 -0.1142 -0.3694
   42CHL1  H27B 3107   1.612   0.973   8.233 -2.7205  0.8144  0.1029
   42CHL1  H27C 3108   1.570   1.112   8.132  1.9321  1.4695  2.6379
   43CHL1    C3 3109   0.875   5.028   6.786 -0.5207 -0.0378 -0.0831
   43CHL1    H3 3110   0.824   5.123   6.812 -1.0931 -0.8240  1.7530
   43CHL1    O3 3111   0.873   5.018   6.648  0.0830  0.5888 -0.2479
   43CHL1   H3' 3112   0.952   4.971   6.621 -0.1472 -1.6043  2.5968
   43CHL1    C4 3113   1.026   5.050   6.834  0.7624  0.7566  1.1972
   43CHL1   H4A 3114   1.074   4.962   6.788  0.0147  0.3903  1.1064
   43CHL1   H4B 3115   1.075   5.142   6.795  2.3808 -1.3569 -1.9284
   43CHL1    C5 3116   1.045   5.042   6.986  0.2058 -0.3730  0.5759
   43CHL1    C6 3117   1.107   5.145   7.046 -0.0712 -0.9862  0.3424
   43CHL1    H6 3118   1.164   5.210   6.978  0.1983  0.0922  1.5904
   43CHL1    C7 3119   1.127   5.151   7.194 -0.4939  0.4538  1.0096
   43CHL1   H7A 3120   1.230   5.174   7.228  0.7998 -3.5216  0.0031
   43CHL1   H7B 3121   1.056   5.220   7.244  0.3694 -0.0353  2.9502
   43CHL1    C8 3122   1.095   5.015   7.260  0.1564  0.5103  0.0165
   43CHL1    H8 3123   1.174   4.941   7.239  0.1266  0.8120 -1.2016
   43CHL1   C14 3124   1.080   5.025   7.414  0.1345 -0.1626  1.1247
   43CHL1   H14 3125   1.004   5.104   7.431  0.6767  0.6015  0.0983
   43CHL1   C15 3126   1.199   5.090   7.485  0.0386 -0.3981 -0.0345
   43CHL1  H15A 3127   1.291   5.041   7.448  0.5281  0.0101  0.6412
   43CHL1  H15B 3128   1.214   5.197   7.457 -0.6556 -0.8671 -2.3148
   43CHL1   C16 3129   1.165   5.057   7.628  0.0919 -0.3899  0.2623
   43CHL1  H16A 3130   1.249   5.000   7.672 -0.3069 -0.7780  0.5242
   43CHL1  H16B 3131   1.146   5.156   7.675 -0.8386 -0.5855  0.3113
   43CHL1   C17 3132   1.033   4.967   7.629 -0.6219 -0.4613 -0.8758
   43CHL1   H17 3133   0.952   5.043   7.640  0.0133  0.3193 -1.4350
   43CHL1   C13 3134   1.028   4.907   7.487  0.3531 -0.8863  0.3003
   43CHL1   C18 3135   1.120   4.784   7.492  0.1131  0.6087 -0.0968
   43CHL1  H18A 3136   1.145   4.752   7.388  1.0181 -0.1784  0.3600
   43CHL1  H18B 3137   1.218   4.802   7.542  0.2015  0.6957 -0.3012
   43CHL1  H18C 3138   1.071   4.695   7.537  0.2487  1.0418  0.8998
   43CHL1   C12 3139   0.891   4.871   7.433  0.3944 -0.6867  0.0145
   43CHL1  H12A 3140   0.847   4.778   7.476 -2.0254  0.5701  0.3753
   43CHL1  H12B 3141   0.817   4.953   7.444  0.3870 -0.6728 -0.1330
   43CHL1   C11 3142   0.891   4.846   7.284  0.2141  0.1887  0.5422
   43CHL1  H11A 3143   0.944   4.751   7.261 -1.0084 -0.0562 -1.3418
   43CHL1  H11B 3144   0.783   4.828   7.266  0.5531 -0.5327 -0.8037
   43CHL1    C9 3145   0.953   4.960   7.206  0.5551 -0.6640 -0.6344
   43CHL1    H9 3146   0.884   5.044   7.230  1.2168 -0.5622  0.9675
   43CHL1   C10 3147   0.961   4.932   7.060 -0.3303 -0.4227  0.2293
   43CHL1   C19 3148   1.042   4.793   7.031  0.4532  0.4996  0.1635
   43CHL1  H19A 3149   1.138   4.798   7.086  1.7377  0.0182 -1.9547
   43CHL1  H19B 3150   0.980   4.708   7.068 -0.6647  1.3423  0.2270
   43CHL1  H19C 3151   1.062   4.775   6.923  1.3626 -0.6919  0.5166
   43CHL1    C1 3152   0.820   4.933   7.003  0.1307  0.1683 -0.1685
   43CHL1   H1A 3153   0.770   4.844   7.048 -2.2710 -0.3083 -3.6222
   43CHL1   H1B 3154   0.759   5.021   7.035 -1.2063 -0.5471 -0.6985
   43CHL1    C2 3155   0.807   4.913   6.851  0.4842  0.4751  0.3493
   43CHL1   H2A 3156   0.703   4.905   6.812  1.1592 -1.3220 -1.1577
   43CHL1   H2B 3157   0.839   4.815   6.810 -1.3037  0.5650 -1.3783
   43CHL1   C20 3158   1.031   4.876   7.751 -0.2700  0.2477 -0.0215
   43CHL1   H20 3159   1.118   4.808   7.739 -1.4631 -1.1122 -1.2042
   43CHL1   C21 3160   0.898   4.801   7.749 -0.5986  0.1771 -0.3399
   43CHL1  H21A 3161   0.818   4.876   7.736 -2.6660 -1.5385  2.0437
   43CHL1  H21B 3162   0.892   4.759   7.852  2.5048  2.6007  0.9093
   43CHL1  H21C 3163   0.884   4.712   7.684 -0.8126 -0.8172  1.0459
   43CHL1   C22 3164   1.054   4.948   7.882  0.7787  0.0333 -0.9234
   43CHL1  H22A 3165   1.124   5.034   7.877 -0.6063  1.1764 -1.0546
   43CHL1  H22B 3166   0.957   4.997   7.905 -0.3929 -1.7826 -1.9052
   43CHL1   C23 3167   1.103   4.866   7.994  0.0340 -0.2101  0.0652
   43CHL1  H23A 3168   1.041   4.775   8.006  1.0240 -1.0383 -1.0014
   43CHL1  H23B 3169   1.198   4.821   7.958 -1.5768 -4.2781  0.7208
   43CHL1   C24 3170   1.121   4.941   8.127  0.3941 -0.0021  0.1204
   43CHL1  H24A 3171   1.184   4.873   8.188 -0.7843 -1.4181 -0.2178
   43CHL1  H24B 3172   1.155   5.047   8.130  1.9284 -0.5097  1.0685
   43CHL1   C25 3173   0.983   4.955   8.203  0.4276 -0.0772 -0.8004
   43CHL1   H25 3174   0.921   5.030   8.149 -2.1614  0.0174  2.1756
   43CHL1   C26 3175   0.905   4.825   8.209 -0.1527  0.1563  0.1674
   43CHL1  H26A 3176   0.956   4.743   8.264  1.6658  1.1813  0.0355
   43CHL1  H26B 3177   0.810   4.842   8.264 -0.5451  0.5869 -0.6259
   43CHL1  H26C 3178   0.877   4.792   8.107 -0.7226  1.3106 -0.0634
   43CHL1   C27 3179   1.012   5.020   8.336  0.0962 -0.5063 -0.5471
   43CHL1  H27A 3180   1.077   5.108   8.317 -0.0216 -0.4778 -0.8189
   43CHL1  H27B 3181   0.914   5.050   8.380  0.8767  0.3337  0.6502
   43CHL1  H27C 3182   1.059   4.948   8.406 -1.3647 -0.4783  0.4776
   44CHL1    C3 3183   1.179   3.607   6.786 -0.4809  0.6972 -0.1462
   44CHL1    H3 3184   1.084   3.659   6.809 -0.2121  0.3179  1.9166
   44CHL1    O3 3185   1.181   3.563   6.645  0.7180  0.0594 -0.0243
   44CHL1   H3' 3186   1.266   3.599   6.619  2.0281 -0.7854  2.8315
   44CHL1    C4 3187   1.295   3.711   6.811  0.3634 -0.3182  0.2071
   44CHL1   H4A 3188   1.388   3.664   6.772  0.2718  0.9572 -1.6488
   44CHL1   H4B 3189   1.265   3.801   6.754 -1.0564  1.4158  3.5796
   44CHL1    C5 3190   1.319   3.741   6.953 -0.2501  0.5710 -0.2490
   44CHL1    C6 3191   1.328   3.864   6.992 -0.0509  0.1678 -0.3782
   44CHL1    H6 3192   1.336   3.944   6.917  1.5852  0.2933 -0.0984
   44CHL1    C7 3193   1.337   3.917   7.133 -0.5227 -0.1846  0.2534
   44CHL1   H7A 3194   1.404   4.003   7.151  2.2291 -2.2183  0.1400
   44CHL1   H7B 3195   1.239   3.965   7.154 -1.2655 -0.2664 -2.8209
   44CHL1    C8 3196   1.373   3.808   7.230  0.1209  0.6728 -0.0705
   44CHL1    H8 3197   1.482   3.787   7.226  0.1699  1.0540 -1.0175
   44CHL1   C14 3198   1.331   3.866   7.365 -0.3306 -0.1376 -0.7953
   44CHL1   H14 3199   1.221   3.882   7.368 -0.2571  0.3002 -0.5463
   44CHL1   C15 3200   1.397   4.009   7.403  0.1988  0.3057  1.0776
   44CHL1  H15A 3201   1.502   4.011   7.366  0.5664  0.4697  2.1110
   44CHL1  H15B 3202   1.344   4.088   7.346 -0.6777 -1.9448 -1.3405
   44CHL1   C16 3203   1.377   4.003   7.553 -0.0906 -0.0834 -0.3903
   44CHL1  H16A 3204   1.476   4.017   7.602 -1.6405 -1.1355  3.2713
   44CHL1  H16B 3205   1.306   4.083   7.586 -0.3494 -0.8492  0.9394
   44CHL1   C17 3206   1.313   3.870   7.593 -0.3879  0.5887  0.4606
   44CHL1   H17 3207   1.203   3.881   7.589 -0.4494  0.8398  2.4468
   44CHL1   C13 3208   1.352   3.769   7.481 -0.5983  0.3978  0.0232
   44CHL1   C18 3209   1.502   3.730   7.491 -0.5212 -0.4946  0.0151
   44CHL1  H18A 3210   1.560   3.813   7.537 -2.3170  0.6969  0.1560
   44CHL1  H18B 3211   1.515   3.646   7.562  2.3043  1.5559  2.0388
   44CHL1  H18C 3212   1.547   3.697   7.394 -1.2002  2.2273 -1.2726
   44CHL1   C12 3213   1.263   3.649   7.461  0.4040 -0.0552 -0.8331
   44CHL1  H12A 3214   1.303   3.573   7.532 -0.9001 -1.0393 -1.1239
   44CHL1  H12B 3215   1.155   3.672   7.474  0.0927 -1.7301 -0.2779
   44CHL1   C11 3216   1.283   3.579   7.319  0.4609 -0.5922  0.0157
   44CHL1  H11A 3217   1.382   3.529   7.325  0.2868 -1.1094 -1.3384
   44CHL1  H11B 3218   1.201   3.505   7.308 -0.4695 -0.1164  3.0727
   44CHL1    C9 3219   1.295   3.679   7.198 -0.1783  0.4785  0.0506
   44CHL1    H9 3220   1.189   3.713   7.190  0.0304  1.0725 -0.2275
   44CHL1   C10 3221   1.319   3.620   7.051  0.4619 -0.0790  0.2361
   44CHL1   C19 3222   1.453   3.548   7.054 -0.0751  0.1992 -0.2533
   44CHL1  H19A 3223   1.440   3.455   7.114  0.3236 -0.3209 -0.9718
   44CHL1  H19B 3224   1.493   3.528   6.953  1.0200  2.7516 -0.3709
   44CHL1  H19C 3225   1.523   3.617   7.106  1.1289 -0.7430 -0.6041
   44CHL1    C1 3226   1.198   3.532   7.020  0.5357 -0.2610 -0.4254
   44CHL1   H1A 3227   1.188   3.454   7.098  0.4066  0.7464  0.5734
   44CHL1   H1B 3228   1.105   3.591   7.036  1.9432  2.1260 -0.6897
   44CHL1    C2 3229   1.193   3.484   6.874 -0.4225 -0.8466 -0.5919
   44CHL1   H2A 3230   1.107   3.414   6.865 -0.6613 -0.4242 -1.6716
   44CHL1   H2B 3231   1.290   3.433   6.854 -0.4901 -0.8330 -0.9530
   44CHL1   C20 3232   1.345   3.842   7.741  1.3608 -0.3493 -0.2166
   44CHL1   H20 3233   1.454   3.822   7.743  1.4575  0.3082  1.8043
   44CHL1   C21 3234   1.254   3.715   7.771 -0.2703  0.2476 -0.5614
   44CHL1  H21A 3235   1.293   3.618   7.732 -0.1854  0.1154 -0.1447
   44CHL1  H21B 3236   1.150   3.708   7.734 -0.5332 -1.9647  0.5257
   44CHL1  H21C 3237   1.244   3.696   7.880  0.7957 -0.3010 -0.5502
   44CHL1   C22 3238   1.311   3.961   7.829  0.2401  0.0799  0.3744
   44CHL1  H22A 3239   1.371   4.054   7.818  3.1667 -1.6448  1.3182
   44CHL1  H22B 3240   1.205   3.992   7.819  1.3138  3.6687 -0.4239
   44CHL1   C23 3241   1.337   3.927   7.977  0.8512 -0.0563  0.2865
   44CHL1  H23A 3242   1.274   3.843   8.012  0.9435 -0.9962 -1.7269
   44CHL1  H23B 3243   1.442   3.890   7.986  0.5910 -0.4810  1.8402
   44CHL1   C24 3244   1.313   4.033   8.073 -0.3029 -0.4968  0.3831
   44CHL1  H24A 3245   1.371   4.125   8.046  0.0848 -1.1110 -0.9088
   44CHL1  H24B 3246   1.208   4.066   8.082 -0.3042 -0.1051 -0.8785
   44CHL1   C25 3247   1.348   3.993   8.217  0.1733 -0.2960  0.0783
   44CHL1   H25 3248   1.447   3.945   8.203  1.4323  2.5817 -1.1376
   44CHL1   C26 3249   1.371   4.121   8.304 -1.0762  0.0730  0.5614
   44CHL1  H26A 3250   1.406   4.096   8.406 -2.1801  0.7358  1.1126
   44CHL1  H26B 3251   1.450   4.184   8.259 -1.2036 -0.1815 -0.0295
   44CHL1  H26C 3252   1.274   4.174   8.306 -0.9924  0.3408 -1.3735
   44CHL1   C27 3253   1.258   3.888   8.281 -0.1026  0.0739  0.0668
   44CHL1  H27A 3254   1.245   3.796   8.220 -3.3119 -0.1139  0.9432
   44CHL1  H27B 3255   1.311   3.876   8.377  2.3854 -1.0965 -1.4123
   44CHL1  H27C 3256   1.156   3.924   8.308 -0.6019 -0.0216 -1.6117
   45CHL1    C3 3257   2.053   2.233   6.647  0.1630 -0.0042 -0.2670
   45CHL1    H3 3258   1.998   2.138   6.632 -3.1036  1.7816  0.0004
   45CHL1    O3 3259   2.115   2.283   6.529 -0.0815 -0.1984 -0.5226
   45CHL1   H3' 3260   2.037   2.305   6.478 -1.1981 -2.2685  0.2437
   45CHL1    C4 3261   1.939   2.335   6.681 -0.7507  0.4448 -0.4463
   45CHL1   H4A 3262   1.987   2.435   6.694  2.1027 -0.9578  0.3591
   45CHL1   H4B 3263   1.864   2.340   6.599 -3.0106 -0.9720  1.4791
   45CHL1    C5 3264   1.874   2.298   6.817 -0.3795 -0.6827  0.4208
   45CHL1    C6 3265   1.741   2.287   6.833 -0.2118  0.5017 -0.0237
   45CHL1    H6 3266   1.679   2.319   6.748  0.1788  0.0184 -0.4914
   45CHL1    C7 3267   1.662   2.259   6.958  0.2106  0.1258 -0.5929
   45CHL1   H7A 3268   1.584   2.333   6.984 -1.2194 -1.4208 -0.3970
   45CHL1   H7B 3269   1.617   2.157   6.965  0.5225  0.0389  0.1284
   45CHL1    C8 3270   1.763   2.260   7.077  0.7173  0.4254  0.1785
   45CHL1    H8 3271   1.787   2.368   7.091 -0.5589  1.1727 -3.0602
   45CHL1   C14 3272   1.698   2.194   7.199 -0.1277  0.3968 -0.5363
   45CHL1   H14 3273   1.687   2.087   7.172  0.7795  0.2390 -0.2997
   45CHL1   C15 3274   1.550   2.238   7.238 -0.1834 -0.0716  0.1868
   45CHL1  H15A 3275   1.543   2.349   7.231  1.2227 -0.0125 -0.2993
   45CHL1  H15B 3276   1.482   2.182   7.170  0.3162 -1.0688  0.5116
   45CHL1   C16 3277   1.538   2.192   7.377 -0.9152 -0.2170  0.0251
   45CHL1  H16A 3278   1.536   2.279   7.446 -1.0714 -0.8711  0.8590
   45CHL1  H16B 3279   1.448   2.131   7.395 -1.1837  0.5572  1.4250
   45CHL1   C17 3280   1.673   2.127   7.423  0.1597  0.4042 -0.4758
   45CHL1   H17 3281   1.664   2.021   7.390  1.2794 -0.1772  1.0006
   45CHL1   C13 3282   1.777   2.193   7.322 -1.0065 -0.0456  0.8918
   45CHL1   C18 3283   1.814   2.331   7.371  0.3733 -0.4528  0.2519
   45CHL1  H18A 3284   1.869   2.321   7.466 -0.1008  1.1780  0.7008
   45CHL1  H18B 3285   1.890   2.377   7.304 -0.2198  3.8841  2.3910
   45CHL1  H18C 3286   1.732   2.404   7.388  1.5561  1.1652 -0.8038
   45CHL1   C12 3287   1.903   2.112   7.291 -0.3509 -0.1051 -0.6987
   45CHL1  H12A 3288   1.971   2.093   7.376  0.6917  1.7210 -1.0956
   45CHL1  H12B 3289   1.860   2.013   7.262  0.9778 -0.4963 -1.3931
   45CHL1   C11 3290   1.988   2.165   7.175 -0.7532  0.3558  0.1644
   45CHL1  H11A 3291   2.039   2.256   7.214 -0.9497  1.1462 -1.3915
   45CHL1  H11B 3292   2.061   2.085   7.151  0.5574  0.4810  3.4447
   45CHL1    C9 3293   1.899   2.195   7.049 -0.3822 -0.4157  0.3252
   45CHL1    H9 3294   1.871   2.095   7.009 -2.0827 -0.3335  1.2693
   45CHL1   C10 3295   1.972   2.267   6.935 -0.7752 -0.3892 -0.4406
   45CHL1   C19 3296   2.034   2.393   6.984 -0.2696 -0.1420 -0.0053
   45CHL1  H19A 3297   2.060   2.467   6.906 -1.1690  0.5056  0.3004
   45CHL1  H19B 3298   1.970   2.453   7.052  1.0434  0.7293  0.4835
   45CHL1  H19C 3299   2.125   2.368   7.044  0.2349  2.7107  0.4772
   45CHL1    C1 3300   2.090   2.179   6.889  0.7027 -0.5233  0.3617
   45CHL1   H1A 3301   2.174   2.166   6.960  1.4397  2.4710  0.1000
   45CHL1   H1B 3302   2.052   2.080   6.854  0.2974  0.5398 -2.3168
   45CHL1    C2 3303   2.157   2.223   6.760 -0.1896 -0.1427  0.0850
   45CHL1   H2A 3304   2.232   2.147   6.733 -0.3171  0.4336 -1.9260
   45CHL1   H2B 3305   2.215   2.318   6.766  1.5866 -1.2603  1.0587
   45CHL1   C20 3306   1.702   2.136   7.571 -0.6837 -0.4595  0.4521
   45CHL1   H20 3307   1.696   2.239   7.611  2.5013 -0.8142  2.0129
   45CHL1   C21 3308   1.843   2.080   7.603 -0.2727  0.0972 -0.2784
   45CHL1  H21A 3309   1.917   2.162   7.588  1.1086 -0.9820  0.4567
   45CHL1  H21B 3310   1.866   1.992   7.539  2.5318  0.2879  0.3664
   45CHL1  H21C 3311   1.856   2.056   7.711  0.5471  0.1077 -0.3712
   45CHL1   C22 3312   1.593   2.069   7.669  0.0517  0.5853  0.6320
   45CHL1  H22A 3313   1.493   2.094   7.627 -0.5725 -2.6423  0.0982
   45CHL1  H22B 3314   1.606   1.959   7.661 -0.0671  0.6849 -1.0742
   45CHL1   C23 3315   1.601   2.116   7.812  0.5251 -0.1017 -0.5787
   45CHL1  H23A 3316   1.702   2.092   7.853 -0.2714 -0.2381  1.3578
   45CHL1  H23B 3317   1.591   2.227   7.806 -0.4165 -0.0464  1.4028
   45CHL1   C24 3318   1.496   2.062   7.908 -0.0495  0.1272  0.0358
   45CHL1  H24A 3319   1.398   2.103   7.876 -0.6915 -0.4891  1.1851
   45CHL1  H24B 3320   1.497   1.952   7.899  1.5762  0.0545  0.8862
   45CHL1   C25 3321   1.522   2.093   8.051  0.7914 -0.1614 -0.0094
   45CHL1   H25 3322   1.624   2.058   8.075  0.8903 -1.7726 -2.5185
   45CHL1   C26 3323   1.513   2.247   8.082  0.0476 -0.1639  0.5420
   45CHL1  H26A 3324   1.601   2.308   8.051 -0.7088  1.3512  1.3034
   45CHL1  H26B 3325   1.423   2.280   8.025 -0.9054 -2.1079  0.8717
   45CHL1  H26C 3326   1.504   2.259   8.192  1.7696  1.9190  0.4846
   45CHL1   C27 3327   1.418   2.017   8.138  0.3332 -0.6651 -0.2682
   45CHL1  H27A 3328   1.446   2.029   8.245 -0.8069  0.5891 -0.0972
   45CHL1  H27B 3329   1.316   2.060   8.125  1.5107  2.4557  0.2806
   45CHL1  H27C 3330   1.404   1.910   8.112 -1.6346 -0.0470 -1.9336
   46CHL1    C3 3331   2.298   3.470   7.100  0.5747  0.5450  0.6527
   46CHL1    H3 3332   2.227   3.546   7.140 -0.8610  0.5400 -1.7758
   46CHL1    O3 3333   2.304   3.518   6.969  0.1918  0.6788  0.0502
   46CHL1   H3' 3334   2.368   3.454   6.937 -0.8760 -0.3404 -0.0862
   46CHL1    C4 3335   2.433   3.484   7.179  0.7184 -0.3066 -0.3118
   46CHL1   H4A 3336   2.499   3.428   7.109  0.1149 -0.4004 -0.8186
   46CHL1   H4B 3337   2.466   3.590   7.180 -0.5170  0.1368  4.0221
   46CHL1    C5 3338   2.412   3.431   7.331 -0.3090  0.0550 -0.2398
   46CHL1    C6 3339   2.458   3.503   7.442  0.2219  0.4391  0.6195
   46CHL1    H6 3340   2.514   3.596   7.421  0.7859 -0.2259 -0.8945
   46CHL1    C7 3341   2.442   3.456   7.581 -0.3394 -0.0770 -0.3125
   46CHL1   H7A 3342   2.527   3.495   7.641  0.4360 -1.7628 -0.2828
   46CHL1   H7B 3343   2.348   3.503   7.619  1.2537  2.4809  0.5659
   46CHL1    C8 3344   2.425   3.303   7.587 -0.4302 -0.2717 -0.0227
   46CHL1    H8 3345   2.516   3.252   7.547  0.1025  0.6484  0.0122
   46CHL1   C14 3346   2.396   3.260   7.728  0.3812  0.2190  0.3798
   46CHL1   H14 3347   2.299   3.306   7.756 -0.5448 -1.5828  0.2426
   46CHL1   C15 3348   2.485   3.309   7.836 -0.3259  0.5559  0.0166
   46CHL1  H15A 3349   2.590   3.296   7.801 -0.1539 -0.8981  1.0350
   46CHL1  H15B 3350   2.459   3.415   7.855 -0.1764  0.3968  1.1531
   46CHL1   C16 3351   2.454   3.224   7.960  0.3842 -0.4048  0.3380
   46CHL1  H16A 3352   2.547   3.174   7.994  0.6237 -0.9409 -1.0712
   46CHL1  H16B 3353   2.405   3.294   8.031  1.5091  1.4325 -0.6522
   46CHL1   C17 3354   2.360   3.110   7.907 -0.7139  0.1329  0.4227
   46CHL1   H17 3355   2.259   3.152   7.928  0.5660  3.3452  0.3719
   46CHL1   C13 3356   2.379   3.111   7.752 -0.2929 -0.2456 -0.3443
   46CHL1   C18 3357   2.506   3.033   7.726 -0.5979  0.7542  0.6114
   46CHL1  H18A 3358   2.590   3.066   7.791 -0.4807 -0.9444  1.3488
   46CHL1  H18B 3359   2.493   2.923   7.729  2.3258  0.3473 -0.1234
   46CHL1  H18C 3360   2.551   3.066   7.630 -1.9680  2.5471  0.5631
   46CHL1   C12 3361   2.261   3.064   7.663 -0.5925 -0.4019 -0.3302
   46CHL1  H12A 3362   2.256   2.953   7.664 -0.7807 -0.4243 -2.2168
   46CHL1  H12B 3363   2.167   3.105   7.705  0.7326  1.7926  0.6204
   46CHL1   C11 3364   2.277   3.102   7.514  0.0418  0.8989 -0.0799
   46CHL1  H11A 3365   2.366   3.041   7.489  0.3087  0.7690  1.1533
   46CHL1  H11B 3366   2.195   3.063   7.450 -1.4161 -0.0081  2.2761
   46CHL1    C9 3367   2.317   3.253   7.490  0.4915 -0.2219 -0.0538
   46CHL1    H9 3368   2.226   3.309   7.520  0.0250  0.8192 -3.2299
   46CHL1   C10 3369   2.346   3.293   7.345 -0.0538  0.4074 -0.2519
   46CHL1   C19 3370   2.453   3.193   7.294  0.2179 -0.2819 -0.1870
   46CHL1  H19A 3371   2.470   3.213   7.186 -0.4270 -1.1004 -0.4470
   46CHL1  H19B 3372   2.549   3.216   7.344 -1.3032  0.8271  2.3437
   46CHL1  H19C 3373   2.434   3.084   7.297 -0.8580 -0.1858 -2.7630
   46CHL1    C1 3374   2.218   3.293   7.256  0.2647  0.1061 -1.0635
   46CHL1   H1A 3375   2.165   3.196   7.266 -0.5396  0.6317 -0.1019
   46CHL1   H1B 3376   2.156   3.375   7.298  2.1689  2.1089 -2.0717
   46CHL1    C2 3377   2.235   3.328   7.108 -0.4877 -0.2945 -0.0214
   46CHL1   H2A 3378   2.140   3.321   7.050  0.1460 -0.7335 -1.0291
   46CHL1   H2B 3379   2.308   3.260   7.060 -0.2258  0.6812 -1.0214
   46CHL1   C20 3380   2.384   2.977   7.979 -0.3279  0.2201  0.4001
   46CHL1   H20 3381   2.488   2.939   7.970 -0.6638 -0.9790  1.2980
   46CHL1   C21 3382   2.274   2.870   7.935 -0.7462 -0.2234  0.4686
   46CHL1  H21A 3383   2.169   2.901   7.951 -1.4233 -1.4589 -1.2836
   46CHL1  H21B 3384   2.299   2.772   7.983 -1.7391 -0.1407  1.1708
   46CHL1  H21C 3385   2.294   2.860   7.826 -3.1907 -0.8007  0.0480
   46CHL1   C22 3386   2.369   2.991   8.137  0.2885 -0.4457 -0.3157
   46CHL1  H22A 3387   2.385   2.895   8.189  1.3578 -1.4835 -2.5235
   46CHL1  H22B 3388   2.442   3.068   8.170  1.1058 -0.7344 -1.4336
   46CHL1   C23 3389   2.233   3.036   8.196 -0.0945  0.1060  0.4613
   46CHL1  H23A 3390   2.203   3.132   8.149 -0.3211  0.2844  0.9786
   46CHL1  H23B 3391   2.161   2.960   8.158 -0.0043  0.6159 -0.7718
   46CHL1   C24 3392   2.225   3.024   8.344  0.0747  0.3318 -0.3631
   46CHL1  H24A 3393   2.220   2.915   8.366  0.9912  0.4511  0.5090
   46CHL1  H24B 3394   2.317   3.070   8.387  0.3748  0.7430 -1.4300
   46CHL1   C25 3395   2.101   3.079   8.415 -0.0773 -0.5885  0.0015
   46CHL1   H25 3396   2.015   3.033   8.361 -1.4201  2.1201 -0.2787
   46CHL1   C26 3397   2.095   3.033   8.559  0.3461  0.1124  0.3411
   46CHL1  H26A 3398   2.175   3.073   8.624  0.6519 -1.5445  1.0235
   46CHL1  H26B 3399   1.997   3.065   8.602  0.0236 -2.1488  1.3766
   46CHL1  H26C 3400   2.109   2.923   8.565  1.2771  0.2358  0.5368
   46CHL1   C27 3401   2.085   3.231   8.406 -0.4290  1.2565  0.3862
   46CHL1  H27A 3402   2.157   3.285   8.471 -1.6768  2.7336  0.5572
   46CHL1  H27B 3403   2.093   3.265   8.301  1.1330  0.8207  0.3486
   46CHL1  H27C 3404   1.984   3.263   8.440 -0.3137  1.0227  0.9574
   47CHL1    C3 3405   0.647   2.867   6.508  0.4971 -0.1104  0.2695
   47CHL1    H3 3406   0.712   2.776   6.510 -0.5497 -0.8729  0.1540
   47CHL1    O3 3407   0.556   2.864   6.402  0.3187  0.4757 -0.2855
   47CHL1   H3' 3408   0.508   2.944   6.423 -0.1689  0.1234 -0.0436
   47CHL1    C4 3409   0.575   2.884   6.644  0.5929 -0.3146 -0.1425
   47CHL1   H4A 3410   0.526   2.983   6.638  0.9225 -0.2007 -1.0442
   47CHL1   H4B 3411   0.500   2.801   6.647 -0.0952  0.2932 -0.4603
   47CHL1    C5 3412   0.674   2.873   6.766  0.9082 -0.1402 -0.4294
   47CHL1    C6 3413   0.673   2.784   6.861 -0.8155  0.2919  0.2468
   47CHL1    H6 3414   0.598   2.704   6.857 -0.9930  0.4324  0.7186
   47CHL1    C7 3415   0.773   2.769   6.977 -0.9297  0.0501  0.3490
   47CHL1   H7A 3416   0.729   2.731   7.071 -0.0441  0.3423  0.8931
   47CHL1   H7B 3417   0.853   2.701   6.939  0.2087  0.6072  1.7281
   47CHL1    C8 3418   0.842   2.910   7.000 -0.2931 -0.4232  0.8885
   47CHL1    H8 3419   0.767   2.982   7.038  0.0262 -0.9695  2.5546
   47CHL1   C14 3420   0.969   2.893   7.089  0.0343 -0.5406  0.1913
   47CHL1   H14 3421   1.039   2.835   7.025 -2.9615 -2.3891 -1.5771
   47CHL1   C15 3422   0.946   2.819   7.220 -0.3328  0.2283  0.3139
   47CHL1  H15A 3423   0.847   2.832   7.269 -0.5290 -1.5690  0.4207
   47CHL1  H15B 3424   0.961   2.714   7.189  1.6529  0.0469  1.8171
   47CHL1   C16 3425   1.045   2.868   7.321 -0.8263  0.1157 -0.1619
   47CHL1  H16A 3426   0.997   2.917   7.408 -0.0778 -1.3104  1.1001
   47CHL1  H16B 3427   1.100   2.788   7.375 -2.9248 -1.2323  0.0185
   47CHL1   C17 3428   1.131   2.971   7.239  0.3133  0.5257 -0.0926
   47CHL1   H17 3429   1.210   2.920   7.182 -0.8688 -0.6771 -0.6864
   47CHL1   C13 3430   1.032   3.029   7.128 -0.1486 -0.2356 -0.3474
   47CHL1   C18 3431   0.931   3.123   7.192  0.5317 -0.4673  0.4684
   47CHL1  H18A 3432   0.971   3.222   7.223 -1.4301  0.5061 -0.0108
   47CHL1  H18B 3433   0.847   3.147   7.123 -0.1593 -0.6062  1.2541
   47CHL1  H18C 3434   0.885   3.064   7.274  2.3342  0.3839  2.1390
   47CHL1   C12 3435   1.086   3.079   6.998 -1.5025 -1.2157 -0.1664
   47CHL1  H12A 3436   1.157   3.165   7.003  0.2501 -2.5591 -1.3643
   47CHL1  H12B 3437   1.161   3.000   6.977 -0.0281 -0.5222  2.2791
   47CHL1   C11 3438   0.990   3.085   6.885  0.7097  1.0258 -0.0075
   47CHL1  H11A 3439   0.936   3.178   6.913 -1.8542 -0.4503  0.1529
   47CHL1  H11B 3440   1.043   3.107   6.790 -0.3551  0.4836 -0.7355
   47CHL1    C9 3441   0.889   2.962   6.863 -0.6445 -0.1382  0.2401
   47CHL1    H9 3442   0.956   2.883   6.823 -0.8509 -0.0892 -0.2090
   47CHL1   C10 3443   0.780   2.983   6.761  0.0939  0.0631  0.6463
   47CHL1   C19 3444   0.707   3.113   6.803 -0.5186 -0.1778 -0.0126
   47CHL1  H19A 3445   0.611   3.137   6.752 -2.5327 -3.7089  1.9326
   47CHL1  H19B 3446   0.696   3.125   6.913 -0.2768 -0.4094  0.0360
   47CHL1  H19C 3447   0.776   3.197   6.778 -0.4460 -0.0816  0.5081
   47CHL1    C1 3448   0.843   2.993   6.618  0.2605 -0.5400  0.2063
   47CHL1   H1A 3449   0.905   3.084   6.602  1.0188 -1.4783 -2.5943
   47CHL1   H1B 3450   0.916   2.911   6.604  1.9646  0.9432  0.1716
   47CHL1    C2 3451   0.743   2.983   6.499  0.6494 -0.3689  0.5036
   47CHL1   H2A 3452   0.800   2.974   6.404 -0.3133  1.5189 -0.2889
   47CHL1   H2B 3453   0.676   3.071   6.488 -1.2702 -2.0204 -1.6328
   47CHL1   C20 3454   1.207   3.072   7.334 -0.3287 -0.0135 -0.3401
   47CHL1   H20 3455   1.133   3.115   7.404 -0.9588  2.2266 -2.3211
   47CHL1   C21 3456   1.276   3.177   7.257 -0.5654 -0.1254 -0.0828
   47CHL1  H21A 3457   1.338   3.253   7.309 -1.8639  1.4226 -0.7572
   47CHL1  H21B 3458   1.203   3.234   7.196 -2.1117 -0.2128  1.6613
   47CHL1  H21C 3459   1.344   3.126   7.185  0.4077  0.2430  0.5649
   47CHL1   C22 3460   1.313   2.984   7.407 -0.3536 -0.3014  0.1135
   47CHL1  H22A 3461   1.259   2.897   7.450  0.7501 -2.2295 -2.3713
   47CHL1  H22B 3462   1.385   2.936   7.339  1.3806  2.8110 -0.3644
   47CHL1   C23 3463   1.393   3.065   7.510  0.4723  0.9345 -0.0088
   47CHL1  H23A 3464   1.461   2.994   7.563  0.5719 -0.5106 -2.0486
   47CHL1  H23B 3465   1.457   3.125   7.441  0.6872 -1.0762 -1.5887
   47CHL1   C24 3466   1.314   3.131   7.620 -0.5569  0.1945  0.0865
   47CHL1  H24A 3467   1.246   3.204   7.571 -0.8868  0.9482  1.6443
   47CHL1  H24B 3468   1.256   3.052   7.672 -0.8883  1.1280  1.1586
   47CHL1   C25 3469   1.407   3.205   7.720  0.1967 -0.2690  0.0389
   47CHL1   H25 3470   1.477   3.127   7.758  2.0649 -0.0971 -2.9085
   47CHL1   C26 3471   1.487   3.315   7.651  0.3253 -0.1795  0.4757
   47CHL1  H26A 3472   1.542   3.392   7.709 -1.2179  2.3506 -1.3329
   47CHL1  H26B 3473   1.551   3.260   7.579 -1.1163 -0.7146 -0.4190
   47CHL1  H26C 3474   1.417   3.387   7.603  0.3552 -0.4939 -0.0342
   47CHL1   C27 3475   1.327   3.248   7.839 -0.0273 -0.1462 -0.7752
   47CHL1  H27A 3476   1.249   3.175   7.869 -0.3335  1.1497  1.6543
   47CHL1  H27B 3477   1.386   3.292   7.922 -0.4321  1.0452 -1.1092
   47CHL1  H27C 3478   1.272   3.339   7.808  0.1222  0.7280  1.4374
   48CHL1    C3 3479   5.443   4.760   6.422 -0.2615  0.4068  0.0940
   48CHL1    H3 3480   5.554   4.751   6.426 -0.3303  0.2091  2.2534
   48CHL1    O3 3481   5.404   4.731   6.286  0.0285 -0.4669 -0.3276
   48CHL1   H3' 3482   5.423   4.808   6.233 -3.1582  0.0337 -0.8592
   48CHL1    C4 3483   5.375   4.664   6.525  0.4254 -0.4819 -0.6193
   48CHL1   H4A 3484   5.266   4.671   6.505  0.3579  0.6508  0.0888
   48CHL1   H4B 3485   5.409   4.561   6.501 -1.1865 -1.2643  0.3569
   48CHL1    C5 3486   5.398   4.701   6.672 -1.6169 -0.2534  0.3160
   48CHL1    C6 3487   5.454   4.612   6.751  0.4337 -0.0130  0.6253
   48CHL1    H6 3488   5.483   4.519   6.700 -0.1814 -0.3457  0.8733
   48CHL1    C7 3489   5.479   4.632   6.897  0.1453 -0.0224  0.2197
   48CHL1   H7A 3490   5.457   4.538   6.952 -0.3812  0.6364  1.1571
   48CHL1   H7B 3491   5.588   4.653   6.906 -0.2402  2.2093  0.0602
   48CHL1    C8 3492   5.410   4.762   6.951  0.5182  0.1369 -0.6625
   48CHL1    H8 3493   5.305   4.728   6.964  1.0543 -0.6186  2.0192
   48CHL1   C14 3494   5.475   4.805   7.085 -0.7624 -0.8519 -0.4547
   48CHL1   H14 3495   5.578   4.842   7.066 -0.3941 -1.3801  0.4589
   48CHL1   C15 3496   5.491   4.691   7.189 -0.0361  0.3273  0.1090
   48CHL1  H15A 3497   5.406   4.620   7.188  0.5677 -0.4220  0.9775
   48CHL1  H15B 3498   5.589   4.640   7.177  0.0108  1.1198 -3.3327
   48CHL1   C16 3499   5.491   4.768   7.318  0.1010  0.3929  0.3260
   48CHL1  H16A 3500   5.407   4.735   7.382  0.4804 -0.4461  0.4019
   48CHL1  H16B 3501   5.582   4.751   7.379  0.8628  2.0234 -0.3229
   48CHL1   C17 3502   5.478   4.917   7.283  0.2965  0.5577 -0.3421
   48CHL1   H17 3503   5.581   4.950   7.258  1.0656 -0.3282  1.5537
   48CHL1   C13 3504   5.406   4.922   7.148  0.8887  0.3878  0.2315
   48CHL1   C18 3505   5.256   4.896   7.172 -0.2041  0.3501 -0.6742
   48CHL1  H18A 3506   5.249   4.804   7.234 -0.9978 -1.1610 -2.9328
   48CHL1  H18B 3507   5.217   4.982   7.230  1.4494 -0.5134  1.8039
   48CHL1  H18C 3508   5.195   4.872   7.082  0.3932  1.1558 -1.3016
   48CHL1   C12 3509   5.430   5.046   7.058 -0.4332  0.2137 -0.1552
   48CHL1  H12A 3510   5.376   5.133   7.101 -0.2320  0.2815 -0.0364
   48CHL1  H12B 3511   5.538   5.065   7.038 -0.8447  1.3587 -1.3033
   48CHL1   C11 3512   5.374   5.012   6.914  0.1075  0.7494 -0.1705
   48CHL1  H11A 3513   5.264   5.014   6.922  0.1525  1.6926  0.3498
   48CHL1  H11B 3514   5.416   5.094   6.851  0.3793 -0.4793 -1.6107
   48CHL1    C9 3515   5.419   4.876   6.853 -1.1029  0.6176  0.3684
   48CHL1    H9 3516   5.530   4.880   6.849 -1.1316  1.9900  0.6992
   48CHL1   C10 3517   5.365   4.847   6.716  0.0616 -0.2566  0.0995
   48CHL1   C19 3518   5.212   4.853   6.719 -0.3669 -0.1028 -0.0705
   48CHL1  H19A 3519   5.167   4.787   6.797 -2.3146  0.6540 -0.5502
   48CHL1  H19B 3520   5.190   4.959   6.739  0.9997  0.1184  0.3212
   48CHL1  H19C 3521   5.171   4.830   6.618  0.2971  0.3101 -0.4398
   48CHL1    C1 3522   5.434   4.935   6.613  0.4551 -0.6445  0.3238
   48CHL1   H1A 3523   5.427   5.041   6.646 -0.2827 -0.1285 -1.4151
   48CHL1   H1B 3524   5.544   4.923   6.615  0.7045  1.3442 -0.5781
   48CHL1    C2 3525   5.405   4.908   6.464 -0.0333  0.3744 -0.0554
   48CHL1   H2A 3526   5.453   4.986   6.402 -2.5820 -0.6063 -3.4185
   48CHL1   H2B 3527   5.294   4.908   6.450 -0.2788 -3.2506  1.1267
   48CHL1   C20 3528   5.431   5.013   7.399 -0.0229 -0.6524  0.3821
   48CHL1   H20 3529   5.397   5.099   7.336  1.1022  1.8892  3.1147
   48CHL1   C21 3530   5.551   5.060   7.472 -0.2147 -0.9793 -0.2312
   48CHL1  H21A 3531   5.616   5.111   7.397 -0.1090 -2.3426 -1.0896
   48CHL1  H21B 3532   5.618   4.978   7.506  1.3534  0.0329 -0.7990
   48CHL1  H21C 3533   5.536   5.132   7.555  1.3645 -1.9712  0.9478
   48CHL1   C22 3534   5.324   4.950   7.495  0.7325 -0.1749 -0.5686
   48CHL1  H22A 3535   5.250   4.891   7.437 -1.2045  1.4120  0.2479
   48CHL1  H22B 3536   5.379   4.871   7.551 -1.1192 -0.9748  0.1464
   48CHL1   C23 3537   5.246   5.045   7.586  0.3918 -0.6347  0.2444
   48CHL1  H23A 3538   5.320   5.088   7.657  1.0685 -0.0517 -0.7936
   48CHL1  H23B 3539   5.194   5.131   7.540  0.2022  0.7170  2.8968
   48CHL1   C24 3540   5.140   4.970   7.666  0.2031  0.2689 -0.0193
   48CHL1  H24A 3541   5.054   4.941   7.602  1.3991  0.3268 -1.6892
   48CHL1  H24B 3542   5.188   4.878   7.704 -2.4409 -1.3726 -0.4952
   48CHL1   C25 3543   5.088   5.052   7.791 -0.8272  0.0301  0.4336
   48CHL1   H25 3544   5.162   5.128   7.825  0.9003 -0.4775 -2.1182
   48CHL1   C26 3545   4.959   5.133   7.764  0.8277 -0.0021  0.2697
   48CHL1  H26A 3546   4.870   5.069   7.751  1.1965 -0.8479  1.7782
   48CHL1  H26B 3547   4.945   5.201   7.851  0.9402  1.7645 -1.0596
   48CHL1  H26C 3548   4.974   5.197   7.674 -2.5417  1.0147  0.3504
   48CHL1   C27 3549   5.076   4.957   7.911 -0.3329 -0.5410 -0.2389
   48CHL1  H27A 3550   4.990   4.890   7.891 -0.9279 -0.0958  0.8048
   48CHL1  H27B 3551   5.176   4.912   7.929  0.7371  1.6520 -0.5031
   48CHL1  H27C 3552   5.045   5.014   8.001  0.5403  0.5220 -0.6017
   49CHL1    C3 3553   3.698   6.203   6.732  0.3059  0.0069  0.3459
   49CHL1    H3 3554   3.722   6.305   6.697 -0.6347  0.6128  1.4233
   49CHL1    O3 3555   3.678   6.126   6.616  0.0960  0.1399 -0.4942
   49CHL1   H3' 3556   3.749   6.164   6.563  1.6676 -1.4014  0.4355
   49CHL1    C4 3557   3.813   6.148   6.817 -0.1962 -0.5984 -0.6056
   49CHL1   H4A 3558   3.790   6.039   6.823 -1.6108 -0.2710  0.3353
   49CHL1   H4B 3559   3.902   6.153   6.752  1.2929  0.3984  1.4696
   49CHL1    C5 3560   3.826   6.227   6.947 -0.1049 -0.7443  0.1775
   49CHL1    C6 3561   3.936   6.294   6.978  0.5690 -0.3531  0.5568
   49CHL1    H6 3562   4.023   6.292   6.910 -0.9076  1.7751 -1.4730
   49CHL1    C7 3563   3.962   6.374   7.101  0.3718 -0.1977 -0.4357
   49CHL1   H7A 3564   4.057   6.342   7.149  0.5922  1.2386  0.1179
   49CHL1   H7B 3565   3.956   6.480   7.066 -1.3446 -0.6430 -1.5208
   49CHL1    C8 3566   3.853   6.351   7.210 -0.0735  0.5095  0.0049
   49CHL1    H8 3567   3.889   6.255   7.254 -0.2562 -0.8296 -2.6839
   49CHL1   C14 3568   3.847   6.456   7.318 -0.2087 -0.0847  0.0611
   49CHL1   H14 3569   3.814   6.547   7.265 -0.7323  0.3102  1.0644
   49CHL1   C15 3570   3.985   6.490   7.370 -0.3551 -0.3852  0.1844
   49CHL1  H15A 3571   4.051   6.400   7.377 -2.8756 -2.1978  1.6904
   49CHL1  H15B 3572   4.039   6.562   7.306  1.3401 -2.7793 -1.1615
   49CHL1   C16 3573   3.943   6.547   7.505 -0.1065 -0.1727 -0.5927
   49CHL1  H16A 3574   3.977   6.502   7.601 -2.7469  1.5346  1.2051
   49CHL1  H16B 3575   3.968   6.655   7.513  0.0398 -0.1663 -1.1470
   49CHL1   C17 3576   3.788   6.539   7.519 -0.2766 -0.3084 -0.3633
   49CHL1   H17 3577   3.751   6.635   7.477  0.2970  0.7157  1.4333
   49CHL1   C13 3578   3.747   6.431   7.424  0.1385 -0.7244  0.3959
   49CHL1   C18 3579   3.774   6.291   7.488  0.3829  0.5096  0.4666
   49CHL1  H18A 3580   3.880   6.270   7.515 -0.0423 -1.1333  0.9254
   49CHL1  H18B 3581   3.707   6.272   7.574 -1.4641 -0.2029 -1.1010
   49CHL1  H18C 3582   3.761   6.205   7.419 -2.2100  0.5132  0.9111
   49CHL1   C12 3583   3.608   6.446   7.351  0.4317 -0.5727  0.5798
   49CHL1  H12A 3584   3.529   6.436   7.428 -0.0501  2.5057  0.5449
   49CHL1  H12B 3585   3.596   6.552   7.321 -0.3110 -0.6029  0.7655
   49CHL1   C11 3586   3.592   6.338   7.238  0.2864  0.0132  0.2676
   49CHL1  H11A 3587   3.582   6.239   7.287  0.6611 -0.6585 -0.9934
   49CHL1  H11B 3588   3.500   6.353   7.178  0.4894  2.8251  0.5526
   49CHL1    C9 3589   3.710   6.345   7.138 -0.2905  0.1744  0.4510
   49CHL1    H9 3590   3.708   6.440   7.080 -0.4373  0.1329  0.3908
   49CHL1   C10 3591   3.698   6.233   7.025 -0.1090  0.3928 -0.6153
   49CHL1   C19 3592   3.683   6.095   7.091 -0.6048 -0.5202  0.1710
   49CHL1  H19A 3593   3.752   6.090   7.178 -1.0132  0.3222  0.5422
   49CHL1  H19B 3594   3.580   6.081   7.131 -1.4138  1.5306 -1.1421
   49CHL1  H19C 3595   3.698   6.003   7.030 -0.8170 -0.1909 -0.3845
   49CHL1    C1 3596   3.578   6.273   6.934 -0.2943  0.2104 -1.0692
   49CHL1   H1A 3597   3.490   6.252   6.998  0.7668  2.6033  1.2523
   49CHL1   H1B 3598   3.570   6.383   6.918  0.9983  0.4153 -0.3746
   49CHL1    C2 3599   3.564   6.192   6.805 -0.6512 -0.3261 -0.2704
   49CHL1   H2A 3600   3.480   6.229   6.742 -1.2335  0.6441  1.0718
   49CHL1   H2B 3601   3.540   6.086   6.830  1.3892 -0.3341  1.8132
   49CHL1   C20 3602   3.742   6.538   7.669 -0.6694 -0.1337  0.0751
   49CHL1   H20 3603   3.761   6.435   7.706 -1.8059 -1.2548 -2.3662
   49CHL1   C21 3604   3.598   6.570   7.684  0.2979  0.2969  0.2616
   49CHL1  H21A 3605   3.548   6.565   7.585  0.0503  1.2289  0.3298
   49CHL1  H21B 3606   3.573   6.669   7.728 -0.8255 -0.8293  2.1919
   49CHL1  H21C 3607   3.535   6.496   7.738 -0.4308  0.8897  0.2386
   49CHL1   C22 3608   3.817   6.632   7.767  0.6111 -0.4070  0.1281
   49CHL1  H22A 3609   3.926   6.613   7.753  0.8681  0.2248  1.1633
   49CHL1  H22B 3610   3.805   6.738   7.737  0.3092 -0.3065  0.5953
   49CHL1   C23 3611   3.771   6.602   7.917 -0.4044  0.4400  0.3063
   49CHL1  H23A 3612   3.675   6.652   7.941 -0.9813  1.5079 -3.7602
   49CHL1  H23B 3613   3.748   6.494   7.929 -0.2642  0.8033  4.4010
   49CHL1   C24 3614   3.876   6.658   8.012  0.4682  0.3270  0.2847
   49CHL1  H24A 3615   3.968   6.595   8.016  0.0283 -0.1941  2.3658
   49CHL1  H24B 3616   3.902   6.752   7.959 -0.3114 -0.0042 -0.6985
   49CHL1   C25 3617   3.819   6.672   8.147 -0.0205  0.1524 -0.4332
   49CHL1   H25 3618   3.718   6.717   8.134 -0.0658 -0.3545 -1.9327
   49CHL1   C26 3619   3.811   6.539   8.222 -0.5206  0.0305  0.0192
   49CHL1  H26A 3620   3.897   6.470   8.210 -0.2193 -0.0361  2.4289
   49CHL1  H26B 3621   3.785   6.548   8.329 -2.9190  0.4099 -0.5624
   49CHL1  H26C 3622   3.726   6.484   8.174 -1.6819  1.3386  0.5298
   49CHL1   C27 3623   3.898   6.773   8.229 -0.1249  0.8022  0.4104
   49CHL1  H27A 3624   3.841   6.777   8.324 -2.3532  1.1658 -0.9133
   49CHL1  H27B 3625   4.001   6.729   8.234  0.7986  2.7644 -0.9393
   49CHL1  H27C 3626   3.901   6.871   8.178 -2.8303  0.7033 -0.0018
   50CHL1    C3 3627   4.060   1.151   6.803  0.4375  0.8881  0.9729
   50CHL1    H3 3628   3.954   1.185   6.812  0.3202  1.1157 -1.0499
   50CHL1    O3 3629   4.083   1.114   6.666  0.2114 -0.3863  0.1714
   50CHL1   H3' 3630   4.124   1.028   6.655  0.0570 -0.1666 -2.3775
   50CHL1    C4 3631   4.163   1.263   6.842  0.1937 -0.1167 -0.6547
   50CHL1   H4A 3632   4.261   1.221   6.812  0.6790 -0.0505  0.7961
   50CHL1   H4B 3633   4.157   1.358   6.784  0.5445  0.9061  0.9644
   50CHL1    C5 3634   4.162   1.298   6.987  0.9807 -0.2514  0.6811
   50CHL1    C6 3635   4.141   1.427   7.023  0.5251 -0.4703  0.7103
   50CHL1    H6 3636   4.149   1.503   6.944 -1.7565 -0.4446  0.4618
   50CHL1    C7 3637   4.142   1.472   7.165  0.4464 -0.0118 -0.2883
   50CHL1   H7A 3638   4.203   1.565   7.162  2.2007 -1.1894 -3.1858
   50CHL1   H7B 3639   4.040   1.504   7.197 -0.1189  0.7339 -2.7157
   50CHL1    C8 3640   4.191   1.363   7.266  0.3789  0.0262 -0.3603
   50CHL1    H8 3641   4.300   1.357   7.247  0.4634 -0.2927  0.2452
   50CHL1   C14 3642   4.158   1.392   7.406 -0.9038  0.3776 -0.0097
   50CHL1   H14 3643   4.050   1.369   7.420 -0.8152  0.1711  0.3284
   50CHL1   C15 3644   4.179   1.531   7.456  0.5124 -0.3454 -0.7560
   50CHL1  H15A 3645   4.264   1.578   7.403 -0.3360  0.4324 -1.4523
   50CHL1  H15B 3646   4.092   1.594   7.427  1.1991  0.0936 -1.8731
   50CHL1   C16 3647   4.196   1.525   7.606 -0.6456 -0.4988 -0.0134
   50CHL1  H16A 3648   4.295   1.567   7.632 -0.2250 -0.7294 -1.2123
   50CHL1  H16B 3649   4.112   1.584   7.648  0.8431  2.3786 -0.9748
   50CHL1   C17 3650   4.186   1.377   7.643  0.7012 -0.4864 -0.8293
   50CHL1   H17 3651   4.077   1.364   7.658  0.6508  0.9378  0.1235
   50CHL1   C13 3652   4.224   1.305   7.513 -0.2310  0.8573 -0.1860
   50CHL1   C18 3653   4.373   1.310   7.504 -0.3608 -0.3714 -0.0714
   50CHL1  H18A 3654   4.402   1.284   7.400  2.3638  1.2762  0.2222
   50CHL1  H18B 3655   4.413   1.410   7.533 -1.6032  0.3547 -0.8315
   50CHL1  H18C 3656   4.429   1.233   7.562 -2.7042 -1.1326  1.2108
   50CHL1   C12 3657   4.172   1.162   7.481 -0.5684  0.0832  0.3961
   50CHL1  H12A 3658   4.217   1.082   7.544 -1.1850  0.1018  0.8685
   50CHL1  H12B 3659   4.065   1.143   7.504 -0.5908 -1.2095 -0.7253
   50CHL1   C11 3660   4.193   1.125   7.333 -0.0277  0.4864 -0.2357
   50CHL1  H11A 3661   4.301   1.109   7.314 -0.2088 -0.9496 -0.0652
   50CHL1  H11B 3662   4.146   1.027   7.313  1.9200 -0.3268 -0.9206
   50CHL1    C9 3663   4.139   1.229   7.226  0.4338 -0.3190 -0.7620
   50CHL1    H9 3664   4.030   1.243   7.238  0.5706  1.4929 -1.4595
   50CHL1   C10 3665   4.174   1.181   7.083  0.1061  0.0962  0.5182
   50CHL1   C19 3666   4.327   1.141   7.078  0.6799  0.4989 -0.1916
   50CHL1  H19A 3667   4.346   1.042   7.125  1.3002 -1.0085 -3.4159
   50CHL1  H19B 3668   4.355   1.129   6.971  2.8243 -0.2967  0.4267
   50CHL1  H19C 3669   4.392   1.222   7.119 -0.7390  0.8900  1.3121
   50CHL1    C1 3670   4.075   1.067   7.029  0.0663  0.2252 -0.0718
   50CHL1   H1A 3671   4.084   0.976   7.092  0.3905  0.5822  0.3978
   50CHL1   H1B 3672   3.976   1.117   7.035  1.4366  3.1334 -0.6869
   50CHL1    C2 3673   4.080   1.025   6.885  0.7346  0.7700 -0.2820
   50CHL1   H2A 3674   4.012   0.941   6.860  0.4153  0.4238  1.6319
   50CHL1   H2B 3675   4.184   0.996   6.857  0.4263  0.6012 -1.2450
   50CHL1   C20 3676   4.256   1.349   7.777  0.1528 -0.0639 -0.6442
   50CHL1   H20 3677   4.366   1.338   7.765  0.1196 -0.1585 -0.8641
   50CHL1   C21 3678   4.205   1.204   7.816  0.6919  0.5865  0.4239
   50CHL1  H21A 3679   4.096   1.204   7.832  0.8707  0.5827  1.6996
   50CHL1  H21B 3680   4.243   1.164   7.913 -2.8195  0.6789  1.9007
   50CHL1  H21C 3681   4.224   1.141   7.727  0.3681  2.4446 -0.9697
   50CHL1   C22 3682   4.227   1.459   7.885 -1.2030  0.0341  0.0218
   50CHL1  H22A 3683   4.284   1.554   7.883 -0.2197 -0.5356  0.2363
   50CHL1  H22B 3684   4.120   1.484   7.899 -1.0405  0.3925  0.6540
   50CHL1   C23 3685   4.265   1.409   8.032  0.7711  0.1546  0.2921
   50CHL1  H23A 3686   4.191   1.337   8.075  2.1373 -0.5655  1.4822
   50CHL1  H23B 3687   4.361   1.354   8.029  1.2999  1.1033 -0.2479
   50CHL1   C24 3688   4.289   1.520   8.147 -0.4384  0.2629  0.0897
   50CHL1  H24A 3689   4.391   1.562   8.143 -0.3514  0.1079  0.7057
   50CHL1  H24B 3690   4.226   1.605   8.111  2.7762  1.8274 -2.0466
   50CHL1   C25 3691   4.258   1.469   8.296  0.0294 -0.0153  0.9041
   50CHL1   H25 3692   4.158   1.422   8.299  0.2456 -0.6576 -0.9994
   50CHL1   C26 3693   4.357   1.355   8.328  0.6809 -0.7068  0.6165
   50CHL1  H26A 3694   4.358   1.281   8.245 -0.3634 -0.3482  0.2831
   50CHL1  H26B 3695   4.460   1.397   8.335  0.1976  0.2138  2.7249
   50CHL1  H26C 3696   4.342   1.302   8.425  2.2234 -1.1041  0.6579
   50CHL1   C27 3697   4.273   1.581   8.399 -0.0684 -0.3781  0.2518
   50CHL1  H27A 3698   4.248   1.543   8.500  1.7051  0.7807  1.1417
   50CHL1  H27B 3699   4.377   1.619   8.396 -0.7547  1.5632 -0.0693
   50CHL1  H27C 3700   4.209   1.666   8.366  1.1821 -0.0302 -1.3709
   51CHL1    C3 3701   4.114   0.181   6.995  0.1012  0.0154  0.2727
   51CHL1    H3 3702   4.082   0.287   7.008 -1.1057  0.0012 -2.2153
   51CHL1    O3 3703   4.076   0.150   6.863  0.2290 -0.1377  0.2607
   51CHL1   H3' 3704   4.147   0.097   6.826 -0.3997 -1.4851  0.9743
   51CHL1    C4 3705   4.259   0.148   7.012 -0.3031 -0.2461 -0.9099
   51CHL1   H4A 3706   4.264   0.040   6.987  0.6899 -0.6845  1.0742
   51CHL1   H4B 3707   4.323   0.203   6.940  1.5055  2.2679  2.4454
   51CHL1    C5 3708   4.302   0.192   7.149  0.5201 -1.0690 -0.3442
   51CHL1    C6 3709   4.399   0.279   7.171  0.1983 -1.5419 -0.7255
   51CHL1    H6 3710   4.461   0.315   7.087  1.2266  1.1489  1.1251
   51CHL1    C7 3711   4.447   0.317   7.303 -0.1818 -0.0149 -0.2801
   51CHL1   H7A 3712   4.558   0.322   7.307 -0.0426 -2.7745  0.5595
   51CHL1   H7B 3713   4.405   0.414   7.336  0.0720 -0.3790  1.1877
   51CHL1    C8 3714   4.404   0.221   7.414  0.0432  0.0450  0.0541
   51CHL1    H8 3715   4.445   0.122   7.386  1.2368  0.0931  1.6033
   51CHL1   C14 3716   4.423   0.287   7.555 -0.3491  0.1054  0.4822
   51CHL1   H14 3717   4.366   0.383   7.551  0.2441  0.4321 -0.3926
   51CHL1   C15 3718   4.565   0.308   7.588 -0.1487 -0.5061  0.7810
   51CHL1  H15A 3719   4.626   0.218   7.566 -2.6998 -1.7578 -1.3127
   51CHL1  H15B 3720   4.606   0.389   7.525  1.3917 -1.0343  1.0553
   51CHL1   C16 3721   4.575   0.330   7.737 -0.1163  0.4238 -0.0713
   51CHL1  H16A 3722   4.658   0.267   7.778  0.8507  2.8953  1.8810
   51CHL1  H16B 3723   4.614   0.433   7.753  1.9563 -0.2871 -0.3821
   51CHL1   C17 3724   4.431   0.296   7.793  1.0099  0.3874  0.2393
   51CHL1   H17 3725   4.385   0.396   7.785  1.7039  0.6936  0.0455
   51CHL1   C13 3726   4.360   0.212   7.675  0.1802 -0.4146  0.5963
   51CHL1   C18 3727   4.405   0.066   7.686 -0.0317  0.6165  0.1046
   51CHL1  H18A 3728   4.339   0.004   7.751 -1.8104  0.0193 -2.1837
   51CHL1  H18B 3729   4.393   0.010   7.591 -0.2526 -2.3537  1.7992
   51CHL1  H18C 3730   4.509   0.067   7.724 -0.4761  1.9637  1.3432
   51CHL1   C12 3731   4.211   0.223   7.655  0.0861  0.5325  0.0576
   51CHL1  H12A 3732   4.161   0.172   7.741 -0.2670  0.5491 -0.1387
   51CHL1  H12B 3733   4.171   0.326   7.669 -0.8232  0.3195 -0.9421
   51CHL1   C11 3734   4.167   0.153   7.526  0.4692 -0.4443  0.2438
   51CHL1  H11A 3735   4.187   0.044   7.527  1.7051 -0.2342 -0.6478
   51CHL1  H11B 3736   4.060   0.167   7.500 -0.3610  0.5446  3.9518
   51CHL1    C9 3737   4.250   0.208   7.402  0.5462 -0.4351  0.5827
   51CHL1    H9 3738   4.206   0.309   7.393  3.0665  0.7912  1.6857
   51CHL1   C10 3739   4.210   0.134   7.270  0.0226 -0.0100 -0.0629
   51CHL1   C19 3740   4.241  -0.017   7.277  0.4849  0.6426  0.1227
   51CHL1  H19A 3741   4.346  -0.046   7.302  0.0800 -0.3090  0.7466
   51CHL1  H19B 3742   4.162  -0.066   7.338 -0.5375  0.7128 -1.1284
   51CHL1  H19C 3743   4.230  -0.047   7.171  0.9027 -2.2324  0.8502
   51CHL1    C1 3744   4.058   0.159   7.233 -0.0405 -0.0892 -0.1329
   51CHL1   H1A 3745   3.994   0.104   7.306 -1.5663  3.2238  1.1524
   51CHL1   H1B 3746   4.021   0.264   7.231 -2.9817 -1.0404  0.8929
   51CHL1    C2 3747   4.019   0.106   7.091  0.5335 -0.4000  0.8790
   51CHL1   H2A 3748   3.914   0.124   7.059  1.3616  1.0059 -1.1535
   51CHL1   H2B 3749   4.054   0.001   7.084 -0.1343 -0.6359  1.0840
   51CHL1   C20 3750   4.424   0.254   7.937 -0.1886  0.0045  0.4191
   51CHL1   H20 3751   4.469   0.153   7.949 -0.1044  0.0259  0.2737
   51CHL1   C21 3752   4.278   0.231   7.983 -0.5386 -0.0384 -0.2106
   51CHL1  H21A 3753   4.226   0.142   7.942 -0.1261  0.7852 -2.5990
   51CHL1  H21B 3754   4.222   0.323   7.957  1.8083  0.8748 -2.1592
   51CHL1  H21C 3755   4.265   0.227   8.094 -3.2158 -0.1084 -0.5037
   51CHL1   C22 3756   4.492   0.352   8.023  0.9617  0.5689  0.3377
   51CHL1  H22A 3757   4.490   0.452   7.975 -0.4801 -0.6429 -2.2041
   51CHL1  H22B 3758   4.434   0.369   8.116  3.4030  1.2709  1.7840
   51CHL1   C23 3759   4.633   0.297   8.068 -0.5257 -0.5481  0.3502
   51CHL1  H23A 3760   4.625   0.189   8.093 -0.6499 -0.3225  1.3151
   51CHL1  H23B 3761   4.708   0.307   7.987  0.7541 -0.5861  1.5066
   51CHL1   C24 3762   4.676   0.376   8.190 -0.2274  0.0071 -0.3625
   51CHL1  H24A 3763   4.778   0.349   8.222 -0.3244 -0.7236 -0.6656
   51CHL1  H24B 3764   4.685   0.483   8.160 -2.3720  0.1495 -0.6313
   51CHL1   C25 3765   4.595   0.371   8.313  0.6088 -0.3575 -1.3238
   51CHL1   H25 3766   4.497   0.420   8.297  0.3649 -0.3567  0.1498
   51CHL1   C26 3767   4.563   0.232   8.361  0.3864 -0.3810 -0.3188
   51CHL1  H26A 3768   4.651   0.164   8.361  0.1148 -0.7320 -0.4786
   51CHL1  H26B 3769   4.508   0.228   8.457  2.0309  0.0603  0.6630
   51CHL1  H26C 3770   4.497   0.193   8.281 -0.3942 -0.2930  0.2872
   51CHL1   C27 3771   4.663   0.445   8.431 -0.5206  0.6154 -0.3604
   51CHL1  H27A 3772   4.710   0.537   8.390 -1.0692  0.5170 -1.2266
   51CHL1  H27B 3773   4.589   0.483   8.505  0.4134  0.0242  0.8857
   51CHL1  H27C 3774   4.737   0.380   8.481 -0.6992 -1.1179 -2.2893
   52CHL1    C3 3775   6.318   1.137   6.979 -0.6350 -0.6165  0.2196
   52CHL1    H3 3776   6.240   1.187   7.039 -1.2577 -0.5522 -0.6338
   52CHL1    O3 3777   6.291   1.166   6.843 -0.0774  0.7887  0.2690
   52CHL1   H3' 3778   6.302   1.261   6.847 -2.9308  1.2071 -0.3928
   52CHL1    C4 3779   6.457   1.194   7.008  0.1873  0.8149 -0.5905
   52CHL1   H4A 3780   6.529   1.144   6.940 -1.8842 -0.8516 -1.6248
   52CHL1   H4B 3781   6.465   1.301   6.980 -0.0210  0.4245 -2.1863
   52CHL1    C5 3782   6.491   1.165   7.154 -0.7193 -0.6256  0.3850
   52CHL1    C6 3783   6.511   1.273   7.233  0.0331  0.4653  0.2509
   52CHL1    H6 3784   6.509   1.370   7.181 -1.9088  0.5797  0.4886
   52CHL1    C7 3785   6.524   1.258   7.383  0.2852 -0.1177  0.5981
   52CHL1   H7A 3786   6.607   1.326   7.414 -0.9505  0.5375  2.5881
   52CHL1   H7B 3787   6.436   1.299   7.437  0.4164  1.4514 -0.3246
   52CHL1    C8 3788   6.553   1.120   7.439  0.3639 -0.0120  0.4621
   52CHL1    H8 3789   6.657   1.087   7.420  0.6615 -0.0872  2.0939
   52CHL1   C14 3790   6.534   1.117   7.588 -0.4493 -0.6502  0.3520
   52CHL1   H14 3791   6.427   1.143   7.604  0.2886  1.2787  2.3750
   52CHL1   C15 3792   6.617   1.211   7.673  0.0279 -0.0773  0.3336
   52CHL1  H15A 3793   6.719   1.191   7.634  0.0203  0.7276 -0.1247
   52CHL1  H15B 3794   6.602   1.321   7.664 -2.7001 -0.5951 -2.2556
   52CHL1   C16 3795   6.585   1.162   7.814  0.7016  0.6285 -0.0460
   52CHL1  H16A 3796   6.686   1.158   7.860  0.4263  0.6756  0.5692
   52CHL1  H16B 3797   6.517   1.231   7.868  2.2542 -0.2613  3.1313
   52CHL1   C17 3798   6.522   1.016   7.806  0.3226  0.6198  0.1082
   52CHL1   H17 3799   6.413   1.030   7.822  0.0661 -0.1483 -0.9942
   52CHL1   C13 3800   6.540   0.979   7.661  0.2533 -0.2609  0.6392
   52CHL1   C18 3801   6.676   0.916   7.644  0.4689  0.1645 -0.0460
   52CHL1  H18A 3802   6.704   0.917   7.537 -1.1429 -1.3751 -0.5076
   52CHL1  H18B 3803   6.751   0.985   7.689 -0.1433  1.5977 -1.1621
   52CHL1  H18C 3804   6.689   0.814   7.686 -0.1074  0.3622  0.6341
   52CHL1   C12 3805   6.425   0.897   7.597  0.1544 -0.6844  0.8309
   52CHL1  H12A 3806   6.419   0.795   7.641 -3.9046 -2.0167 -2.4283
   52CHL1  H12B 3807   6.326   0.941   7.621  0.4373 -0.9174  2.4337
   52CHL1   C11 3808   6.438   0.890   7.441 -0.4651  0.3589  0.9543
   52CHL1  H11A 3809   6.525   0.826   7.419 -0.3800  0.6084  0.5593
   52CHL1  H11B 3810   6.346   0.838   7.406  1.1158 -1.0646 -1.1351
   52CHL1    C9 3811   6.450   1.030   7.372  0.0626  0.7303 -0.6379
   52CHL1    H9 3812   6.355   1.085   7.386  0.8017  1.8122  0.3007
   52CHL1   C10 3813   6.464   1.024   7.215 -0.4232 -0.7074  0.8139
   52CHL1   C19 3814   6.594   0.943   7.177  0.0866  0.0892  0.4871
   52CHL1  H19A 3815   6.578   0.834   7.192  1.1921  0.0005  1.0818
   52CHL1  H19B 3816   6.635   0.954   7.074 -2.2083  0.4363 -0.4218
   52CHL1  H19C 3817   6.676   0.968   7.248 -0.1879 -1.8850  1.5265
   52CHL1    C1 3818   6.339   0.957   7.159 -0.0747  0.5019  0.0628
   52CHL1   H1A 3819   6.338   0.847   7.167 -0.1427  0.3752 -1.4315
   52CHL1   H1B 3820   6.250   0.993   7.215  0.1617 -0.9177  1.3809
   52CHL1    C2 3821   6.304   0.987   7.009  0.6734  0.2555 -0.4047
   52CHL1   H2A 3822   6.200   0.952   6.991  0.7371 -0.5564  0.7620
   52CHL1   H2B 3823   6.362   0.931   6.932 -1.6213 -0.9442 -1.2945
   52CHL1   C20 3824   6.563   0.929   7.920  0.2219  0.0162  0.1327
   52CHL1   H20 3825   6.671   0.901   7.917  0.0278 -0.7151 -0.0740
   52CHL1   C21 3826   6.482   0.808   7.921 -0.3838  0.5942  0.0332
   52CHL1  H21A 3827   6.521   0.747   8.005 -0.2627  1.1375  0.3768
   52CHL1  H21B 3828   6.487   0.750   7.826  2.0136 -0.1176  0.5686
   52CHL1  H21C 3829   6.375   0.828   7.941  0.0604  1.2508  1.8296
   52CHL1   C22 3830   6.544   1.008   8.055 -0.4396  0.0066 -0.2987
   52CHL1  H22A 3831   6.628   1.081   8.064 -0.4846 -0.0263  0.5030
   52CHL1  H22B 3832   6.444   1.054   8.042  0.3796  2.3888  1.5255
   52CHL1   C23 3833   6.547   0.922   8.184 -0.3604  0.1701  0.6763
   52CHL1  H23A 3834   6.458   0.856   8.178  1.2779 -1.8626 -2.1324
   52CHL1  H23B 3835   6.634   0.853   8.180 -0.1967  0.3874  0.4691
   52CHL1   C24 3836   6.554   1.005   8.310  0.1679 -0.4936 -0.3550
   52CHL1  H24A 3837   6.639   1.077   8.311  0.3737 -0.7197  1.3862
   52CHL1  H24B 3838   6.459   1.062   8.316 -0.2773 -1.3144  0.6638
   52CHL1   C25 3839   6.591   0.929   8.442 -0.0843 -0.1985 -0.2216
   52CHL1   H25 3840   6.645   0.994   8.515  0.5384 -1.3405  0.3461
   52CHL1   C26 3841   6.468   0.885   8.513  0.5211  0.1775  0.2071
   52CHL1  H26A 3842   6.498   0.820   8.598  0.8866  1.2148  0.8936
   52CHL1  H26B 3843   6.408   0.973   8.543  0.1708 -0.1978  0.5912
   52CHL1  H26C 3844   6.405   0.825   8.444 -0.5705 -1.2033  2.3694
   52CHL1   C27 3845   6.684   0.807   8.436  0.2231  0.2701 -0.2894
   52CHL1  H27A 3846   6.779   0.839   8.389  0.8537 -1.1312  0.0408
   52CHL1  H27B 3847   6.713   0.782   8.540  2.9014  2.3772 -0.4821
   52CHL1  H27C 3848   6.641   0.723   8.377  0.9396 -0.8719  0.8105
   53CHL1    C3 3849   2.144   4.920   7.107 -0.8079 -0.0002  0.5093
   53CHL1    H3 3850   2.177   5.019   7.145  1.8785 -1.7747  2.9793
   53CHL1    O3 3851   2.131   4.925   6.965  0.2008 -0.4302 -0.9597
   53CHL1   H3' 3852   2.096   5.013   6.950 -1.8704 -0.9048  0.7523
   53CHL1    C4 3853   2.243   4.812   7.152  0.3157  0.2071 -0.1469
   53CHL1   H4A 3854   2.202   4.717   7.112  0.1104  0.0656  0.3887
   53CHL1   H4B 3855   2.338   4.840   7.102 -0.5211 -0.0492 -1.9102
   53CHL1    C5 3856   2.248   4.814   7.305 -0.0381  0.1963 -0.0924
   53CHL1    C6 3857   2.361   4.839   7.367 -0.6253 -0.0257  0.7264
   53CHL1    H6 3858   2.449   4.856   7.303 -1.5089  1.7622 -0.0593
   53CHL1    C7 3859   2.367   4.845   7.517  0.5523  0.0615 -0.6270
   53CHL1   H7A 3860   2.465   4.801   7.544  0.2392 -0.4494 -0.3106
   53CHL1   H7B 3861   2.360   4.949   7.556  1.3132 -0.4651  0.9337
   53CHL1    C8 3862   2.257   4.772   7.590  0.3422  0.3346  0.2738
   53CHL1    H8 3863   2.269   4.662   7.584  0.5183  0.4667 -2.4984
   53CHL1   C14 3864   2.249   4.807   7.735  0.9361 -0.1526 -0.1189
   53CHL1   H14 3865   2.208   4.910   7.730 -0.6457 -0.7794 -0.3558
   53CHL1   C15 3866   2.370   4.808   7.822 -0.8294  0.6143  0.5886
   53CHL1  H15A 3867   2.430   4.718   7.798  0.5023  1.9321 -1.1983
   53CHL1  H15B 3868   2.421   4.906   7.815  0.7346 -0.2530 -0.3517
   53CHL1   C16 3869   2.320   4.792   7.964  0.3198 -0.3572  0.3419
   53CHL1  H16A 3870   2.361   4.697   8.003  0.1690 -2.5342 -4.3751
   53CHL1  H16B 3871   2.355   4.878   8.025  1.2864 -1.7930  1.8410
   53CHL1   C17 3872   2.161   4.785   7.959  0.0571 -0.5090 -0.2165
   53CHL1   H17 3873   2.130   4.890   7.976 -1.6139 -1.4016  2.4571
   53CHL1   C13 3874   2.129   4.741   7.817 -0.3945  0.3219  0.6107
   53CHL1   C18 3875   2.139   4.595   7.820 -0.4023  0.3576  0.4602
   53CHL1  H18A 3876   2.050   4.556   7.874  0.7930 -1.2421  1.3076
   53CHL1  H18B 3877   2.141   4.549   7.719  2.3070 -1.1621  1.1758
   53CHL1  H18C 3878   2.233   4.554   7.862  0.1678  1.6444  0.4797
   53CHL1   C12 3879   1.998   4.792   7.762 -0.4855 -0.0865 -0.6508
   53CHL1  H12A 3880   1.908   4.744   7.805 -0.9326  1.7845  0.5700
   53CHL1  H12B 3881   2.005   4.901   7.784  1.2909 -0.2305 -0.4127
   53CHL1   C11 3882   1.993   4.766   7.614 -0.7995  0.4303 -0.4767
   53CHL1  H11A 3883   1.974   4.657   7.608  5.3774 -0.9415  0.9098
   53CHL1  H11B 3884   1.903   4.815   7.570 -1.4979 -1.9126 -1.7435
   53CHL1    C9 3885   2.125   4.811   7.530 -0.2407  0.8263 -0.4862
   53CHL1    H9 3886   2.122   4.922   7.543 -1.1718  0.6936  0.5138
   53CHL1   C10 3887   2.113   4.789   7.373 -0.1654 -0.4936 -0.5192
   53CHL1   C19 3888   2.066   4.641   7.346 -0.6436 -0.5287  0.5216
   53CHL1  H19A 3889   2.068   4.615   7.239  1.9106  0.6190  0.2413
   53CHL1  H19B 3890   2.143   4.578   7.396  0.1633  1.0752  1.3539
   53CHL1  H19C 3891   1.967   4.621   7.393 -0.6849  3.0417  2.2082
   53CHL1    C1 3892   2.012   4.892   7.321 -0.1296 -0.6667 -0.0726
   53CHL1   H1A 3893   1.912   4.874   7.365 -0.1475  1.1904  0.6788
   53CHL1   H1B 3894   2.043   4.988   7.367 -0.8924 -0.2292 -0.4729
   53CHL1    C2 3895   2.001   4.910   7.172  0.1900  0.1647  0.4852
   53CHL1   H2A 3896   1.937   4.997   7.145  2.1080  1.5147  0.1292
   53CHL1   H2B 3897   1.950   4.818   7.136 -0.8967  1.2024 -0.6812
   53CHL1   C20 3898   2.093   4.721   8.082  0.1887  0.1370  0.2149
   53CHL1   H20 3899   2.108   4.612   8.071 -0.3631  0.2472 -1.7143
   53CHL1   C21 3900   1.947   4.751   8.097 -0.1573  0.3633  0.4322
   53CHL1  H21A 3901   1.925   4.860   8.097 -0.5434  0.2886  0.3810
   53CHL1  H21B 3902   1.900   4.702   8.185 -0.3129  1.0602  0.7412
   53CHL1  H21C 3903   1.889   4.707   8.013  3.1575 -1.4085 -0.9771
   53CHL1   C22 3904   2.176   4.755   8.212 -0.1608  0.0731  0.3142
   53CHL1  H22A 3905   2.281   4.723   8.196  0.0361  0.3898  0.9501
   53CHL1  H22B 3906   2.172   4.864   8.236  0.2221  0.1789 -0.0969
   53CHL1   C23 3907   2.123   4.701   8.343  1.0412 -0.1209 -0.2333
   53CHL1  H23A 3908   2.039   4.765   8.377  2.5146  1.9574 -0.3665
   53CHL1  H23B 3909   2.079   4.601   8.326  0.7062 -0.3085  1.6630
   53CHL1   C24 3910   2.228   4.690   8.457 -0.4422  0.6539  0.6755
   53CHL1  H24A 3911   2.269   4.792   8.473 -1.5192  1.3407 -0.8849
   53CHL1  H24B 3912   2.173   4.680   8.553 -2.1604  2.1736 -0.1223
   53CHL1   C25 3913   2.328   4.575   8.434 -0.3391 -0.1158  0.4469
   53CHL1   H25 3914   2.356   4.585   8.327 -1.0802  1.4033  0.3869
   53CHL1   C26 3915   2.456   4.577   8.517  0.6903 -0.1312 -0.0031
   53CHL1  H26A 3916   2.531   4.518   8.459  0.0021 -2.8216  1.7876
   53CHL1  H26B 3917   2.494   4.681   8.526  0.9315 -0.4307  2.9851
   53CHL1  H26C 3918   2.425   4.531   8.613  1.7478 -0.7883  0.0335
   53CHL1   C27 3919   2.260   4.430   8.443  0.1925 -0.0517  0.0815
   53CHL1  H27A 3920   2.239   4.403   8.548 -0.3187  0.9909  0.2554
   53CHL1  H27B 3921   2.161   4.428   8.392 -0.4851  0.6884  1.3309
   53CHL1  H27C 3922   2.332   4.352   8.412  0.6531 -0.2548  1.6437
   54CHL1    C3 3923   2.555   6.682   6.890 -0.4301  0.0030 -0.2518
   54CHL1    H3 3924   2.454   6.724   6.908  1.1097  1.9328  4.7217
   54CHL1    O3 3925   2.560   6.648   6.753 -0.5273 -0.3514  0.0733
   54CHL1   H3' 3926   2.649   6.613   6.741 -0.9920 -1.5741  0.0920
   54CHL1    C4 3927   2.663   6.788   6.923  0.6228 -0.0210 -0.7550
   54CHL1   H4A 3928   2.761   6.750   6.886  1.2120  1.7150 -1.0301
   54CHL1   H4B 3929   2.645   6.880   6.864  0.3183  0.3989 -0.0079
   54CHL1    C5 3930   2.670   6.811   7.075  0.3461  0.8382 -0.6811
   54CHL1    C6 3931   2.663   6.937   7.121  0.2418  0.5689  0.9485
   54CHL1    H6 3932   2.658   7.025   7.055 -1.0749  2.0714  2.9784
   54CHL1    C7 3933   2.676   6.971   7.262 -0.1042  0.8700  0.3657
   54CHL1   H7A 3934   2.768   7.033   7.263 -0.0206  0.7969 -1.4388
   54CHL1   H7B 3935   2.584   7.021   7.299 -0.9314  0.2254 -0.8044
   54CHL1    C8 3936   2.699   6.855   7.361  0.0146  0.1981 -0.0331
   54CHL1    H8 3937   2.804   6.818   7.363  0.1741  0.6772  2.0760
   54CHL1   C14 3938   2.672   6.890   7.513 -0.3191 -0.7448 -0.2688
   54CHL1   H14 3939   2.566   6.921   7.520 -0.7820 -1.7704 -2.4802
   54CHL1   C15 3940   2.747   7.005   7.577 -0.0959 -0.4559  0.0207
   54CHL1  H15A 3941   2.851   7.005   7.537 -0.3581  2.1161 -0.7583
   54CHL1  H15B 3942   2.707   7.105   7.549 -0.3800 -0.4770  0.3584
   54CHL1   C16 3943   2.738   6.970   7.726  1.1945 -0.5755  0.0884
   54CHL1  H16A 3944   2.837   6.946   7.769  0.9705  0.5240  1.2772
   54CHL1  H16B 3945   2.686   7.051   7.783 -0.5169 -0.3670 -1.6889
   54CHL1   C17 3946   2.654   6.844   7.740  0.4530 -0.7005  0.5098
   54CHL1   H17 3947   2.549   6.879   7.738  1.4660  2.5156  0.8651
   54CHL1   C13 3948   2.681   6.767   7.604 -1.5519 -0.2721 -0.9313
   54CHL1   C18 3949   2.832   6.727   7.606 -0.7226 -0.3146 -1.0706
   54CHL1  H18A 3950   2.850   6.677   7.509  0.4719 -0.1388 -0.9526
   54CHL1  H18B 3951   2.903   6.812   7.596 -0.5971 -0.2894 -0.0741
   54CHL1  H18C 3952   2.857   6.661   7.692 -0.8114  1.7990  0.6508
   54CHL1   C12 3953   2.588   6.655   7.558  0.0650 -0.0005 -0.2522
   54CHL1  H12A 3954   2.600   6.567   7.625  3.2055  0.8455  0.4021
   54CHL1  H12B 3955   2.482   6.684   7.576 -1.2941 -3.2699 -2.4914
   54CHL1   C11 3956   2.615   6.616   7.416  0.0271 -0.3178  0.8104
   54CHL1  H11A 3957   2.712   6.563   7.425  0.1334 -0.2888 -0.1647
   54CHL1  H11B 3958   2.545   6.537   7.382 -1.0286  2.1068 -2.8199
   54CHL1    C9 3959   2.615   6.731   7.315 -0.0460 -0.2277 -0.1334
   54CHL1    H9 3960   2.507   6.757   7.312 -0.5573 -1.6589  3.6559
   54CHL1   C10 3961   2.663   6.685   7.172 -0.0385  0.9189  1.0801
   54CHL1   C19 3962   2.801   6.617   7.175  0.3197  0.0134 -0.2068
   54CHL1  H19A 3963   2.845   6.618   7.073 -1.9135  0.7649 -1.2074
   54CHL1  H19B 3964   2.876   6.676   7.233 -0.2868 -0.9498  1.5907
   54CHL1  H19C 3965   2.795   6.514   7.216 -3.4122 -0.7463 -2.3823
   54CHL1    C1 3966   2.564   6.576   7.117  0.1937 -0.4170 -0.1640
   54CHL1   H1A 3967   2.571   6.482   7.176  0.6393 -0.8131 -0.8387
   54CHL1   H1B 3968   2.466   6.624   7.135  0.9474  1.2824 -0.4822
   54CHL1    C2 3969   2.569   6.553   6.966  0.4825  0.6884 -0.3721
   54CHL1   H2A 3970   2.477   6.495   6.942  0.0047  1.3477 -0.1387
   54CHL1   H2B 3971   2.664   6.499   6.945  0.3314 -0.8399  2.7166
   54CHL1   C20 3972   2.655   6.757   7.868 -0.2325  0.3011  0.0389
   54CHL1   H20 3973   2.638   6.654   7.828 -0.1943  0.1474  0.4207
   54CHL1   C21 3974   2.525   6.803   7.954 -0.3956 -0.5499 -0.5678
   54CHL1  H21A 3975   2.539   6.910   7.981 -0.8206 -0.7513  0.4823
   54CHL1  H21B 3976   2.511   6.738   8.043 -1.1431 -0.3389 -0.5350
   54CHL1  H21C 3977   2.436   6.787   7.890  0.4765 -1.2924 -1.6040
   54CHL1   C22 3978   2.780   6.762   7.942 -0.3331 -0.2918 -0.2265
   54CHL1  H22A 3979   2.866   6.740   7.874 -0.1270  1.8089 -0.6685
   54CHL1  H22B 3980   2.791   6.862   7.990 -0.2009 -0.8792  1.0018
   54CHL1   C23 3981   2.784   6.667   8.062 -0.4168 -0.0493  0.5497
   54CHL1  H23A 3982   2.715   6.690   8.146 -1.3929 -0.5208 -0.1020
   54CHL1  H23B 3983   2.753   6.570   8.016 -1.4444  1.3367 -1.7996
   54CHL1   C24 3984   2.918   6.657   8.137  0.2369 -0.7904 -1.0594
   54CHL1  H24A 3985   2.912   6.580   8.217 -1.9046  2.0165  1.6169
   54CHL1  H24B 3986   2.993   6.618   8.066 -1.0566 -1.5527 -2.0188
   54CHL1   C25 3987   2.966   6.784   8.209 -0.4066  0.1746  0.4571
   54CHL1   H25 3988   2.957   6.868   8.137 -2.5961 -0.6841 -0.3130
   54CHL1   C26 3989   2.887   6.807   8.336 -0.4972 -0.3454  0.6499
   54CHL1  H26A 3990   2.901   6.713   8.394  0.2348 -0.6148  0.0542
   54CHL1  H26B 3991   2.922   6.891   8.400 -2.0216 -0.1952  1.3202
   54CHL1  H26C 3992   2.780   6.822   8.309 -0.2127 -1.2649 -1.0674
   54CHL1   C27 3993   3.126   6.764   8.213 -0.4751  0.5365  0.4966
   54CHL1  H27A 3994   3.177   6.766   8.114  1.0611 -1.7354  1.2082
   54CHL1  H27B 3995   3.172   6.843   8.276  0.1714  0.6503 -0.1108
   54CHL1  H27C 3996   3.160   6.669   8.258  2.8838  0.9623 -0.9862
   55CHL1    C3 3997   2.286   1.914   7.003 -0.2238  0.4745 -0.0406
   55CHL1    H3 3998   2.184   1.959   7.009  0.5671  2.2965  0.1706
   55CHL1    O3 3999   2.347   1.925   6.875 -0.0341  0.0175 -0.4170
   55CHL1   H3' 4000   2.304   1.861   6.817 -0.2437 -1.5812  1.4461
   55CHL1    C4 4001   2.373   1.990   7.100 -0.4100 -0.2190 -0.2395
   55CHL1   H4A 4002   2.470   1.937   7.092 -1.4509 -2.0361 -1.2157
   55CHL1   H4B 4003   2.383   2.096   7.068  0.2904 -0.8653 -2.3000
   55CHL1    C5 4004   2.329   1.967   7.246 -0.9221 -0.0622  0.2312
   55CHL1    C6 4005   2.310   2.077   7.320  0.1391 -0.2086 -0.3332
   55CHL1    H6 4006   2.337   2.177   7.284 -0.7356  0.4207  0.7208
   55CHL1    C7 4007   2.268   2.072   7.465 -0.8165  0.0180 -0.0633
   55CHL1   H7A 4008   2.339   2.142   7.514  1.1520 -0.5099 -2.0936
   55CHL1   H7B 4009   2.167   2.117   7.474  0.3405  2.8421 -0.8625
   55CHL1    C8 4010   2.262   1.930   7.527 -0.1185  0.5977  0.3322
   55CHL1    H8 4011   2.367   1.905   7.556  0.3278  1.3609 -0.6001
   55CHL1   C14 4012   2.182   1.916   7.652  0.2010  0.2164  0.0413
   55CHL1   H14 4013   2.078   1.931   7.614 -0.2560 -1.1726  0.6956
   55CHL1   C15 4014   2.185   2.015   7.764  0.5136  0.2254  0.2595
   55CHL1  H15A 4015   2.292   2.043   7.779  0.5605 -0.0405  0.4101
   55CHL1  H15B 4016   2.142   2.108   7.721  0.6061  1.3905  2.6035
   55CHL1   C16 4017   2.113   1.949   7.879 -0.1310 -0.4525 -0.4923
   55CHL1  H16A 4018   2.181   1.924   7.963 -1.1220  0.6640  0.6702
   55CHL1  H16B 4019   2.032   2.015   7.918  0.3265 -0.7530  1.0126
   55CHL1   C17 4020   2.061   1.819   7.824 -0.1387 -0.4720 -0.0439
   55CHL1   H17 4021   1.967   1.843   7.770 -0.0922  2.3631  1.0459
   55CHL1   C13 4022   2.171   1.784   7.715  0.2521 -0.3547  0.3329
   55CHL1   C18 4023   2.303   1.739   7.781  0.2218 -0.3978 -0.0156
   55CHL1  H18A 4024   2.294   1.639   7.828  0.0884 -0.1195  0.5478
   55CHL1  H18B 4025   2.391   1.749   7.714  0.0924  2.9146  0.2437
   55CHL1  H18C 4026   2.334   1.812   7.858 -1.0058  1.4263 -1.2031
   55CHL1   C12 4027   2.125   1.676   7.604 -0.0202  0.4959 -0.3591
   55CHL1  H12A 4028   2.119   1.573   7.646 -2.7952  0.5665 -0.5214
   55CHL1  H12B 4029   2.018   1.695   7.581 -1.3171 -2.0293  3.1006
   55CHL1   C11 4030   2.216   1.680   7.484 -0.3945  0.4081 -0.4642
   55CHL1  H11A 4031   2.319   1.653   7.515  0.3257  0.5445 -2.6780
   55CHL1  H11B 4032   2.167   1.604   7.419 -1.9665  1.7532 -0.8659
   55CHL1    C9 4033   2.219   1.819   7.417 -0.5996  0.6794  0.3387
   55CHL1    H9 4034   2.114   1.853   7.402 -1.2399 -1.2693  0.3258
   55CHL1   C10 4035   2.308   1.824   7.289  0.9239  0.1382  0.5665
   55CHL1   C19 4036   2.445   1.752   7.312  0.3502 -0.0422 -0.3135
   55CHL1  H19A 4037   2.496   1.802   7.397 -0.7723 -0.9019  0.8799
   55CHL1  H19B 4038   2.433   1.643   7.331 -2.5232  0.6265  1.9364
   55CHL1  H19C 4039   2.517   1.748   7.227  0.2525  0.0802 -0.4001
   55CHL1    C1 4040   2.225   1.746   7.179 -0.1094 -0.1904 -1.1947
   55CHL1   H1A 4041   2.225   1.640   7.212  1.4261  1.0640  3.3268
   55CHL1   H1B 4042   2.123   1.787   7.166 -0.2883 -0.1834  0.1397
   55CHL1    C2 4043   2.279   1.761   7.038  0.0752  0.2055  0.4816
   55CHL1   H2A 4044   2.217   1.705   6.965  2.3387 -0.5825 -0.8817
   55CHL1   H2B 4045   2.374   1.705   7.025  0.2708  0.8343 -0.8994
   55CHL1   C20 4046   2.014   1.727   7.930  0.4614 -0.2936  0.1647
   55CHL1   H20 4047   2.091   1.710   8.008  1.2537 -1.5582 -0.8731
   55CHL1   C21 4048   1.996   1.580   7.880 -0.4084 -0.3034 -0.0342
   55CHL1  H21A 4049   2.094   1.541   7.845 -1.6942 -0.1123 -4.0650
   55CHL1  H21B 4050   1.924   1.572   7.797 -1.6101  0.3527  0.9354
   55CHL1  H21C 4051   1.972   1.516   7.968 -2.8142  0.1221 -0.3746
   55CHL1   C22 4052   1.879   1.780   7.996 -0.2650  0.0084  0.6007
   55CHL1  H22A 4053   1.874   1.891   8.003 -0.8844  0.1542 -1.6312
   55CHL1  H22B 4054   1.795   1.747   7.931 -1.9063  2.4465  1.4135
   55CHL1   C23 4055   1.855   1.717   8.126 -0.1282 -0.2976 -0.1576
   55CHL1  H23A 4056   1.845   1.608   8.103 -1.1298  0.1017 -1.7055
   55CHL1  H23B 4057   1.948   1.728   8.185 -0.7073  2.2668  0.3247
   55CHL1   C24 4058   1.745   1.792   8.200  0.2575 -0.4418  0.5129
   55CHL1  H24A 4059   1.774   1.893   8.237  3.3078 -1.0598 -0.0871
   55CHL1  H24B 4060   1.659   1.811   8.132  0.2913 -0.4446  0.4700
   55CHL1   C25 4061   1.683   1.721   8.322 -0.4004 -1.1061 -0.2135
   55CHL1   H25 4062   1.611   1.797   8.360 -1.0374 -0.8371 -1.9097
   55CHL1   C26 4063   1.597   1.595   8.281 -0.9811 -0.0713 -1.0440
   55CHL1  H26A 4064   1.655   1.516   8.227 -0.4234 -1.6323  1.7486
   55CHL1  H26B 4065   1.548   1.547   8.368  0.9012 -0.9064 -0.4066
   55CHL1  H26C 4066   1.519   1.641   8.216 -1.0067  0.1256 -0.8731
   55CHL1   C27 4067   1.786   1.686   8.429 -0.0324 -0.1762 -0.9592
   55CHL1  H27A 4068   1.834   1.593   8.392 -2.0499 -2.7785  2.7139
   55CHL1  H27B 4069   1.866   1.763   8.432  0.0345 -0.2491 -0.8811
   55CHL1  H27C 4070   1.738   1.649   8.521  1.9380 -0.0888  0.1320
   56CHL1    C3 4071   1.861   5.949   6.750  0.0371 -1.0302  0.3485
   56CHL1    H3 4072   1.961   5.954   6.799  0.7248 -2.3773 -0.9015
   56CHL1    O3 4073   1.853   5.854   6.652  0.0808  0.0795  0.2690
   56CHL1   H3' 4074   1.919   5.792   6.684 -1.1786  0.7155  4.3295
   56CHL1    C4 4075   1.757   5.913   6.858  0.1933  0.1509  0.3297
   56CHL1   H4A 4076   1.660   5.911   6.804  0.3308  2.7961 -0.0929
   56CHL1   H4B 4077   1.782   5.811   6.893  0.5069  0.2465  0.3841
   56CHL1    C5 4078   1.748   6.009   6.970 -0.2051  0.4061  0.0219
   56CHL1    C6 4079   1.776   5.978   7.097  0.6819  0.7345 -0.0681
   56CHL1    H6 4080   1.780   5.871   7.122  0.3072  0.2557 -1.9747
   56CHL1    C7 4081   1.767   6.074   7.216  0.1366 -0.1636 -0.3859
   56CHL1   H7A 4082   1.725   6.036   7.312  1.2294  0.0287  0.1702
   56CHL1   H7B 4083   1.872   6.103   7.237  0.0612 -0.5550  0.5721
   56CHL1    C8 4084   1.697   6.212   7.169 -0.4018  0.6011 -0.4976
   56CHL1    H8 4085   1.590   6.183   7.172 -0.3166  0.3849  0.4660
   56CHL1   C14 4086   1.732   6.320   7.270 -0.5516  0.2572  1.1798
   56CHL1   H14 4087   1.842   6.333   7.268 -0.5753  0.6500  2.1942
   56CHL1   C15 4088   1.698   6.295   7.421 -0.3261 -0.2864 -0.3345
   56CHL1  H15A 4089   1.598   6.246   7.421  0.0243 -1.0105 -0.2785
   56CHL1  H15B 4090   1.777   6.231   7.466  1.3532  3.0978  1.6843
   56CHL1   C16 4091   1.697   6.431   7.489  0.2700 -0.2718 -0.9047
   56CHL1  H16A 4092   1.604   6.441   7.548  0.1683 -0.5772 -1.0105
   56CHL1  H16B 4093   1.785   6.441   7.555 -1.1408  0.2365  0.9458
   56CHL1   C17 4094   1.700   6.531   7.369  0.1089 -0.4677  0.6054
   56CHL1   H17 4095   1.800   6.573   7.346 -0.3573 -0.3282 -1.2057
   56CHL1   C13 4096   1.667   6.451   7.239 -0.0859 -0.0166  0.5173
   56CHL1   C18 4097   1.512   6.434   7.232  0.4779  1.0108 -0.2969
   56CHL1  H18A 4098   1.475   6.392   7.328 -1.0379 -0.3631 -1.4570
   56CHL1  H18B 4099   1.467   6.534   7.215 -1.1303  0.0962 -1.5160
   56CHL1  H18C 4100   1.483   6.362   7.153  0.9665  0.8444 -0.3267
   56CHL1   C12 4101   1.737   6.506   7.108 -0.6202  0.2216 -0.1059
   56CHL1  H12A 4102   1.700   6.606   7.078 -1.0788 -0.0621 -0.5015
   56CHL1  H12B 4103   1.841   6.529   7.140 -1.3724  0.8854  1.9525
   56CHL1   C11 4104   1.722   6.407   6.997 -0.0014  0.0672  0.1042
   56CHL1  H11A 4105   1.616   6.418   6.964  0.0789  0.5478 -0.0021
   56CHL1  H11B 4106   1.781   6.430   6.906 -0.2320  1.2487  0.2457
   56CHL1    C9 4107   1.754   6.253   7.035 -0.1510  0.3237  0.1772
   56CHL1    H9 4108   1.863   6.258   7.054  0.3691 -0.6836 -2.3831
   56CHL1   C10 4109   1.725   6.157   6.921 -0.6165  0.5109 -0.5118
   56CHL1   C19 4110   1.586   6.184   6.867 -0.0015 -0.2476  0.3918
   56CHL1  H19A 4111   1.589   6.280   6.811 -1.5345 -0.6485 -0.4009
   56CHL1  H19B 4112   1.555   6.108   6.792 -2.4495 -0.1977  1.3010
   56CHL1  H19C 4113   1.503   6.192   6.940 -2.2217 -0.8437 -1.9630
   56CHL1    C1 4114   1.827   6.183   6.803 -0.0217  0.6422 -0.1055
   56CHL1   H1A 4115   1.799   6.283   6.762 -1.0335  0.7280  0.7983
   56CHL1   H1B 4116   1.925   6.200   6.852 -1.4951  4.2885  1.8098
   56CHL1    C2 4117   1.831   6.082   6.684  0.3367  0.4557 -0.4915
   56CHL1   H2A 4118   1.913   6.117   6.617 -1.3261  1.7217 -1.8991
   56CHL1   H2B 4119   1.738   6.088   6.624  0.3350  1.7674 -0.3814
   56CHL1   C20 4120   1.619   6.662   7.397 -0.4078  0.0467  0.5162
   56CHL1   H20 4121   1.512   6.634   7.410 -1.0558  1.7564 -0.8976
   56CHL1   C21 4122   1.619   6.767   7.281  0.2037 -0.2202 -0.0393
   56CHL1  H21A 4123   1.542   6.840   7.313 -1.1659 -1.2644 -0.9020
   56CHL1  H21B 4124   1.568   6.734   7.188  1.4142 -1.9161 -0.1346
   56CHL1  H21C 4125   1.715   6.820   7.268 -0.5204  1.1039 -0.0237
   56CHL1   C22 4126   1.674   6.735   7.530 -0.3786  0.3561 -0.5481
   56CHL1  H22A 4127   1.715   6.664   7.604  0.3118 -1.7154 -2.8362
   56CHL1  H22B 4128   1.755   6.807   7.506 -1.2757  2.4842  2.6136
   56CHL1   C23 4129   1.565   6.813   7.598 -0.1152 -0.2305 -0.2358
   56CHL1  H23A 4130   1.535   6.898   7.533 -1.7854 -1.2472 -0.8360
   56CHL1  H23B 4131   1.483   6.748   7.635 -0.0960 -2.0649 -3.2668
   56CHL1   C24 4132   1.631   6.879   7.724  0.2694  0.6307  0.2056
   56CHL1  H24A 4133   1.689   6.804   7.782  0.6522  1.7351  1.2546
   56CHL1  H24B 4134   1.699   6.953   7.676  1.0120 -1.8529 -2.7589
   56CHL1   C25 4135   1.529   6.951   7.812  0.1922 -0.7508  0.2201
   56CHL1   H25 4136   1.448   6.878   7.832 -0.6716  0.5048  1.4349
   56CHL1   C26 4137   1.597   6.996   7.941  0.1440 -0.0175  0.6956
   56CHL1  H26A 4138   1.629   6.900   7.986 -2.4839 -1.1527  0.2363
   56CHL1  H26B 4139   1.530   7.041   8.017 -1.4278  0.4275 -0.9028
   56CHL1  H26C 4140   1.685   7.063   7.927  1.6891 -1.8183  1.6373
   56CHL1   C27 4141   1.457   7.075   7.752  0.8534  0.4625 -0.0145
   56CHL1  H27A 4142   1.398   7.119   7.835  1.2822 -0.5114  0.8159
   56CHL1  H27B 4143   1.529   7.152   7.715  2.0681 -1.8902 -2.7320
   56CHL1  H27C 4144   1.383   7.040   7.678 -1.9981  0.8450  2.5820
   57SAPC     N 4145   2.094   2.655  10.804 -0.1645  0.7338  0.3360
   57SAPC   C12 4146   2.161   2.517  10.776 -0.6736 -1.2612  0.2195
   57SAPC  H12A 4147   2.251   2.501  10.835 -2.0755 -3.4668  1.8282
   57SAPC  H12B 4148   2.191   2.512  10.673  0.9029  0.5387  0.5469
   57SAPC   C13 4149   2.201   2.764  10.790  0.6992 -0.5454 -0.7533
   57SAPC  H13A 4150   2.153   2.861  10.798  2.4584  0.6052 -3.5340
   57SAPC  H13B 4151   2.277   2.753  10.866  0.7331  1.8248 -0.4024
   57SAPC  H13C 4152   2.257   2.761  10.698  1.4811  2.4295 -0.4141
   57SAPC   C14 4153   1.982   2.678  10.700 -0.8736  0.0866 -0.5591
   57SAPC  H14A 4154   1.919   2.759  10.733 -2.8201 -0.5830 -2.5209
   57SAPC  H14B 4155   2.028   2.693  10.603 -1.1010  2.2540 -0.3641
   57SAPC  H14C 4156   1.921   2.591  10.685  0.3949 -1.1548  1.2199
   57SAPC   C15 4157   2.043   2.657  10.944  0.3552 -0.4550 -0.0634
   57SAPC  H15A 4158   2.000   2.754  10.967  0.0052 -0.8217  0.8516
   57SAPC  H15B 4159   1.969   2.581  10.962  1.6657 -0.9537  3.4670
   57SAPC  H15C 4160   2.120   2.640  11.017 -0.9435  0.5512  1.5896
   57SAPC   C11 4161   2.078   2.389  10.798  0.3442  0.1069  0.0351
   57SAPC  H11A 4162   2.034   2.387  10.900  0.9582 -1.2532  0.2887
   57SAPC  H11B 4163   2.152   2.306  10.802  1.5037  0.9744 -2.6457
   57SAPC     P 4164   1.996   2.265  10.579 -0.0689  0.4134 -0.1561
   57SAPC   O13 4165   1.990   2.129  10.639 -0.1195 -0.1488 -0.4117
   57SAPC   O14 4166   1.902   2.295  10.472  0.5481 -0.1371  0.5841
   57SAPC   O12 4167   1.976   2.371  10.699  0.4681  0.3505  0.1993
   57SAPC   O11 4168   2.146   2.286  10.529 -0.2712 -0.7683  0.7147
   57SAPC    C1 4169   2.162   2.398  10.438 -0.2435  0.2486  0.2735
   57SAPC    HA 4170   2.086   2.479  10.444 -0.2362  0.1304  2.3129
   57SAPC    HB 4171   2.256   2.455  10.456 -1.3569  2.1199  0.3496
   57SAPC    C2 4172   2.177   2.350  10.290 -0.4861  0.7935 -0.0623
   57SAPC    HS 4173   2.093   2.281  10.267 -0.6495  0.0813  2.5798
   57SAPC   O21 4174   2.300   2.281  10.286 -0.1320  0.6009  0.7952
   57SAPC   C21 4175   2.306   2.185  10.201 -0.2358 -0.0500  0.1639
   57SAPC   O22 4176   2.221   2.135  10.135  0.2982 -0.2377 -0.0306
   57SAPC   C22 4177   2.454   2.147  10.198 -0.0885  0.3871  0.1819
   57SAPC   H2R 4178   2.513   2.238  10.176 -0.2951  0.2296 -1.0191
   57SAPC   H2S 4179   2.487   2.103  10.295  0.9590  0.3436 -0.1936
   57SAPC    C3 4180   2.174   2.463  10.181  0.1761  0.4637  0.4703
   57SAPC    HX 4181   2.255   2.535  10.203  1.7145 -1.5927  1.7540
   57SAPC    HY 4182   2.080   2.522  10.185  0.4791  0.8907  1.4969
   57SAPC   O31 4183   2.185   2.412  10.043  0.0586  0.7202 -0.1569
   57SAPC   C31 4184   2.082   2.343  10.001 -0.2333 -0.0323 -0.4177
   57SAPC   O32 4185   1.967   2.350  10.048 -0.6127  0.6518  0.2832
   57SAPC   C32 4186   2.111   2.271   9.874  0.1191  0.2024 -0.3622
   57SAPC   H2X 4187   2.049   2.179   9.867  1.3381 -0.5959 -0.8185
   57SAPC   H2Y 4188   2.213   2.227   9.877 -0.3196 -0.8143 -0.0146
   57SAPC   C23 4189   2.479   2.056  10.079  0.4422  1.0444 -0.7056
   57SAPC   H3R 4190   2.418   2.076   9.989 -0.4870  0.9247 -0.1115
   57SAPC   H3S 4191   2.464   1.951  10.112  0.5034  1.6308  1.2379
   57SAPC   C24 4192   2.615   2.062  10.021 -0.2885  0.7471 -0.2343
   57SAPC   H4R 4193   2.696   2.046  10.096 -0.4661 -3.0183 -0.7454
   57SAPC   H4S 4194   2.630   2.164   9.980  0.5188  0.7436  0.0263
   57SAPC   C25 4195   2.631   1.967   9.909  0.1325 -0.5039  1.1968
   57SAPC   H5R 4196   2.587   1.869   9.930  0.2441 -0.4837  1.5352
   57SAPC   C26 4197   2.687   1.986   9.785 -0.3715  0.2408 -0.0777
   57SAPC   H6R 4198   2.675   1.901   9.716 -1.4689 -0.5648  1.0781
   57SAPC   C27 4199   2.742   2.110   9.721 -0.6073 -0.3125  0.3506
   57SAPC   H7R 4200   2.818   2.084   9.643  0.9179 -0.3759  1.8262
   57SAPC   H7S 4201   2.791   2.175   9.796 -2.9125  0.6754  1.0145
   57SAPC   C28 4202   2.616   2.185   9.663 -1.2185 -0.0592 -0.3651
   57SAPC   H8R 4203   2.548   2.223   9.741 -2.2822 -0.6766 -0.9830
   57SAPC   C29 4204   2.576   2.182   9.531  0.0554  0.1084 -0.2396
   57SAPC   H9R 4205   2.487   2.238   9.499  0.8643  1.7142  0.2730
   57SAPC  C210 4206   2.646   2.101   9.425  0.2103 -0.1303 -0.1773
   57SAPC  H10R 4207   2.570   2.075   9.349 -2.1962 -0.1373  2.1445
   57SAPC  H10S 4208   2.682   2.003   9.463 -0.0687 -1.0298 -2.1891
   57SAPC  C211 4209   2.768   2.179   9.369 -0.3835  0.5175 -0.5255
   57SAPC  H11R 4210   2.794   2.270   9.427 -0.2808  0.7788 -0.9805
   57SAPC  C212 4211   2.841   2.139   9.266  0.3490 -0.1187  0.7291
   57SAPC  H12R 4212   2.915   2.214   9.235 -0.4627 -0.8466 -3.2271
   57SAPC  C213 4213   2.830   2.018   9.180 -0.1872 -0.8554  0.4565
   57SAPC  H13R 4214   2.829   2.057   9.076 -0.7573  1.2951  1.2557
   57SAPC  H13S 4215   2.736   1.962   9.200 -0.7037  0.3085  1.3369
   57SAPC  C214 4216   2.947   1.926   9.209 -0.4595  0.7423 -0.5794
   57SAPC  H14R 4217   2.922   1.843   9.278  2.7272 -0.0070 -0.2725
   57SAPC  C215 4218   3.066   1.923   9.145  0.2369  0.1380 -0.1238
   57SAPC  H15R 4219   3.133   1.836   9.158  0.8980  0.5161 -1.0194
   57SAPC  C216 4220   3.110   2.027   9.038 -0.8547 -0.6049 -0.5161
   57SAPC  H16R 4221   3.212   2.063   9.064 -1.3654 -0.9852  2.1690
   57SAPC  H16S 4222   3.037   2.111   9.034 -1.2698 -0.8885  0.7389
   57SAPC  C217 4223   3.103   1.980   8.891 -0.1669 -0.3946 -0.3434
   57SAPC  H17R 4224   2.996   1.973   8.863 -0.5261  1.9688  0.2767
   57SAPC  H17S 4225   3.152   1.881   8.881  0.9143  0.1292 -0.3757
   57SAPC  C218 4226   3.167   2.079   8.792 -0.0695  0.3671 -0.1114
   57SAPC  H18R 4227   3.268   2.101   8.832  0.1132 -0.5778 -0.0331
   57SAPC  H18S 4228   3.110   2.174   8.787  1.0162  0.9965 -0.8225
   57SAPC  C219 4229   3.173   2.025   8.649  0.3118  1.0050 -0.0175
   57SAPC  H19R 4230   3.070   1.998   8.618 -0.0405  0.3984  1.6286
   57SAPC  H19S 4231   3.239   1.935   8.655 -2.5905 -1.1045  1.6213
   57SAPC  C220 4232   3.236   2.129   8.560 -0.0368 -0.6532 -0.2190
   57SAPC  H20R 4233   3.346   2.148   8.559 -0.0890 -0.3615 -0.3456
   57SAPC  H20S 4234   3.199   2.225   8.603 -1.1389 -0.9201 -0.5778
   57SAPC  H20T 4235   3.216   2.115   8.452  2.6362 -2.5649 -0.5168
   57SAPC   C33 4236   2.107   2.362   9.747  0.3288 -0.9966  0.0036
   57SAPC   H3X 4237   2.154   2.463   9.752 -1.1128 -0.2479 -0.8681
   57SAPC   H3Y 4238   2.001   2.396   9.747 -0.0094 -2.0145  0.7304
   57SAPC   C34 4239   2.137   2.300   9.616  0.3225 -0.1182 -0.4831
   57SAPC   H4X 4240   2.049   2.238   9.590 -2.4562  2.9784  1.0632
   57SAPC   H4Y 4241   2.209   2.217   9.631  0.0348 -0.2316  0.2710
   57SAPC   C35 4242   2.194   2.395   9.511  0.2539 -0.3082  0.1520
   57SAPC   H5X 4243   2.290   2.439   9.543  0.6776 -1.2202  0.1486
   57SAPC   H5Y 4244   2.123   2.479   9.497  1.9322  1.1314  0.1271
   57SAPC   C36 4245   2.201   2.319   9.380  0.7191  0.2860  0.0645
   57SAPC   H6X 4246   2.103   2.266   9.375  0.3613  0.9148  0.3080
   57SAPC   H6Y 4247   2.281   2.243   9.389  0.6909  0.1325 -0.9235
   57SAPC   C37 4248   2.237   2.405   9.263  0.3576  0.0673  0.5379
   57SAPC   H7X 4249   2.335   2.455   9.279  0.6625 -0.6446  0.9317
   57SAPC   H7Y 4250   2.157   2.481   9.248  1.0042  0.7311  0.4123
   57SAPC   C38 4251   2.240   2.324   9.131 -0.3877 -0.3152  0.1245
   57SAPC   H8X 4252   2.215   2.385   9.042  1.4197 -1.1590 -0.9822
   57SAPC   H8Y 4253   2.167   2.240   9.138  0.7161 -1.4172 -1.0814
   57SAPC   C39 4254   2.375   2.257   9.120  0.2298 -0.0336  1.1911
   57SAPC   H9X 4255   2.387   2.188   9.206  2.7923 -0.4175  0.5540
   57SAPC   H9Y 4256   2.449   2.339   9.126  2.1963 -1.6173 -0.4433
   57SAPC  C310 4257   2.395   2.181   8.983 -0.4397  0.2966 -0.6796
   57SAPC  H10X 4258   2.352   2.232   8.895  0.1273  1.8162 -0.1003
   57SAPC  H10Y 4259   2.357   2.077   8.991 -0.3301  0.1893 -1.5697
   57SAPC  C311 4260   2.547   2.155   8.963  0.6278  0.8895  0.2392
   57SAPC  H11X 4261   2.570   2.064   9.022 -1.5701  0.4673  0.4784
   57SAPC  H11Y 4262   2.603   2.245   8.998  1.2661  1.0548 -1.1613
   57SAPC  C312 4263   2.584   2.133   8.814 -1.3711  0.2169  0.7119
   57SAPC  H12X 4264   2.533   2.212   8.754 -0.7935 -1.1172 -1.6257
   57SAPC  H12Y 4265   2.545   2.033   8.785 -1.8586  1.3502 -2.8691
   57SAPC  C313 4266   2.734   2.151   8.785 -0.0968  0.9742 -0.3918
   57SAPC  H13X 4267   2.794   2.082   8.849 -0.6066  1.0148  0.1278
   57SAPC  H13Y 4268   2.764   2.256   8.803 -1.2238  1.4892 -1.4601
   57SAPC  C314 4269   2.778   2.129   8.644  0.2758  0.0396 -0.3307
   57SAPC  H14X 4270   2.887   2.146   8.631  0.3173  0.1670  0.1901
   57SAPC  H14Y 4271   2.728   2.208   8.583  1.2085 -1.9881 -3.8694
   57SAPC  C315 4272   2.746   1.983   8.599  0.3016 -0.0432 -0.0158
   57SAPC  H15X 4273   2.642   1.954   8.624  0.1951  0.4302  0.0976
   57SAPC  H15Y 4274   2.811   1.915   8.657 -0.8356 -1.8426 -0.8164
   57SAPC  C316 4275   2.771   1.973   8.450 -0.4823 -0.4733 -1.1239
   57SAPC  H16X 4276   2.863   2.033   8.436 -0.8273  0.2994 -0.1588
   57SAPC  H16Y 4277   2.697   2.031   8.389 -1.7193 -1.4296 -0.5614
   57SAPC  C317 4278   2.780   1.830   8.403  0.1029  0.8771 -0.6311
   57SAPC  H17X 4279   2.684   1.784   8.372  0.5111  0.1210 -0.7715
   57SAPC  H17Y 4280   2.820   1.755   8.474 -0.0179  0.7995 -0.6452
   57SAPC  C318 4281   2.859   1.822   8.275  0.2075 -0.8231  0.0316
   57SAPC  H18X 4282   2.869   1.718   8.238  1.7871 -0.2005 -1.3728
   57SAPC  H18Y 4283   2.962   1.857   8.297 -1.5900  3.3957  2.2901
   57SAPC  H18Z 4284   2.809   1.886   8.199 -1.4874 -0.0663  1.7538
   58SAPC     N 4285   5.096   0.633  10.842 -0.7317 -0.1423 -0.1656
   58SAPC   C12 4286   5.159   0.526  10.743  0.3810  0.3061  0.0708
   58SAPC  H12A 4287   5.203   0.444  10.796  0.7729 -0.9301 -2.1353
   58SAPC  H12B 4288   5.232   0.583  10.687 -0.5302  0.7410 -0.7007
   58SAPC   C13 4289   5.203   0.664  10.940 -0.3337 -0.3254 -0.0211
   58SAPC  H13A 4290   5.172   0.732  11.018  1.4880 -0.1359  0.5592
   58SAPC  H13B 4291   5.231   0.582  11.005 -0.3876  0.8178  1.4705
   58SAPC  H13C 4292   5.273   0.723  10.884 -1.3159  1.0306  0.1698
   58SAPC   C14 4293   5.068   0.759  10.761 -0.4355  0.3976 -0.1302
   58SAPC  H14A 4294   4.987   0.736  10.694  0.7972 -1.2112 -1.1196
   58SAPC  H14B 4295   5.034   0.848  10.812 -1.9220  0.1602 -0.6864
   58SAPC  H14C 4296   5.149   0.787  10.695 -0.4294 -0.2080 -0.3808
   58SAPC   C15 4297   4.977   0.583  10.914 -0.4652 -0.2740  0.8530
   58SAPC  H15A 4298   4.893   0.580  10.846  0.6264  0.8780 -0.5561
   58SAPC  H15B 4299   4.995   0.486  10.958  0.4453 -0.0571  0.9497
   58SAPC  H15C 4300   4.948   0.652  10.992  0.7555  2.1651 -0.8135
   58SAPC   C11 4301   5.051   0.459  10.641  0.2525  0.1887  0.6737
   58SAPC  H11A 4302   4.972   0.415  10.706  0.0654  1.6061  1.4212
   58SAPC  H11B 4303   5.111   0.380  10.591  0.0906 -0.1603  1.0251
   58SAPC     P 4304   4.836   0.581  10.524  0.2674 -0.3188  0.0539
   58SAPC   O13 4305   4.762   0.560  10.651  0.1640  0.2292 -0.1578
   58SAPC   O14 4306   4.820   0.720  10.467 -0.0368  0.3571 -0.4900
   58SAPC   O12 4307   4.994   0.556  10.549 -0.3380  0.2306 -0.6864
   58SAPC   O11 4308   4.783   0.476  10.409 -0.7322  0.5674 -0.0135
   58SAPC    C1 4309   4.828   0.339  10.388 -0.2951 -0.1136 -0.0119
   58SAPC    HA 4310   4.846   0.291  10.486  2.2248 -1.9284 -1.2996
   58SAPC    HB 4311   4.740   0.295  10.336  0.1587 -2.6699  1.2972
   58SAPC    C2 4312   4.953   0.326  10.295 -0.4311 -0.2969  0.6059
   58SAPC    HS 4313   5.041   0.382  10.335  0.7349 -0.9491 -0.9711
   58SAPC   O21 4314   4.929   0.351  10.151 -0.2425 -0.7182 -0.2416
   58SAPC   C21 4315   4.916   0.479  10.124  0.4050  0.0822  0.2467
   58SAPC   O22 4316   4.937   0.576  10.193 -0.0388 -0.2461  0.0170
   58SAPC   C22 4317   4.881   0.497   9.979  0.6548 -0.7505 -0.2268
   58SAPC   H2R 4318   4.772   0.474   9.974  0.0744  1.9859 -1.1742
   58SAPC   H2S 4319   4.884   0.607   9.964 -0.5917 -0.7862 -0.7744
   58SAPC    C3 4320   5.007   0.174  10.306  0.6224 -0.1040  0.1193
   58SAPC    HX 4321   5.021   0.139  10.410 -1.1709  1.2906  0.8636
   58SAPC    HY 4322   5.106   0.181  10.257  1.2062  1.5461  1.5132
   58SAPC   O31 4323   4.923   0.080  10.231 -0.5526  0.3622  0.2677
   58SAPC   C31 4324   4.812   0.023  10.292 -0.2792  0.1657 -0.5051
   58SAPC   O32 4325   4.782   0.040  10.410  0.0262  0.1988  0.5013
   58SAPC   C32 4326   4.736  -0.065  10.200  0.0606 -0.0329  0.2891
   58SAPC   H2X 4327   4.760  -0.173  10.216 -0.1143 -0.0566  0.3893
   58SAPC   H2Y 4328   4.757  -0.042  10.093 -0.0341  2.3632  0.7668
   58SAPC   C23 4329   4.964   0.424   9.872  0.9231 -0.1327  0.0578
   58SAPC   H3R 4330   4.972   0.322   9.915  0.5580  0.0220  0.4866
   58SAPC   H3S 4331   5.066   0.461   9.848  0.9085 -0.5720 -0.7193
   58SAPC   C24 4332   4.882   0.401   9.741 -1.0107  0.0479  0.6418
   58SAPC   H4R 4333   4.774   0.400   9.766 -0.9125  0.5637  1.0931
   58SAPC   H4S 4334   4.927   0.312   9.692  1.6581  0.1210  2.8327
   58SAPC   C25 4335   4.886   0.514   9.642 -0.2062  0.8419  0.5304
   58SAPC   H5R 4336   4.855   0.609   9.688  0.6258  2.1453 -1.5578
   58SAPC   C26 4337   4.933   0.517   9.512 -0.3557 -0.3979  0.1383
   58SAPC   H6R 4338   4.935   0.609   9.452  0.0852  0.2243  1.0898
   58SAPC   C27 4339   5.007   0.407   9.443  0.6182 -0.8418  0.1046
   58SAPC   H7R 4340   4.939   0.364   9.366 -1.4237  1.5938  0.4975
   58SAPC   H7S 4341   5.029   0.322   9.512  1.1059 -1.7926 -1.1983
   58SAPC   C28 4342   5.143   0.450   9.393 -0.6901 -0.1996 -0.5232
   58SAPC   H8R 4343   5.218   0.475   9.469  0.5961  2.0005 -2.4195
   58SAPC   C29 4344   5.190   0.459   9.265 -0.4028 -0.2448  0.2006
   58SAPC   H9R 4345   5.294   0.494   9.256  0.1198 -1.8817 -0.4547
   58SAPC  C210 4346   5.119   0.433   9.140  0.1295  0.0526  0.1133
   58SAPC  H10R 4347   5.161   0.509   9.071  1.5306 -1.0647 -0.2870
   58SAPC  H10S 4348   5.009   0.444   9.148 -0.1309 -1.4866 -1.2539
   58SAPC  C211 4349   5.164   0.300   9.085  0.4351  0.3270  0.2777
   58SAPC  H11R 4350   5.272   0.283   9.085  0.3583 -0.2719  2.3268
   58SAPC  C212 4351   5.085   0.215   9.018  0.0344 -0.5761  0.6639
   58SAPC  H12R 4352   5.139   0.126   8.982 -1.5596 -1.1761 -0.2612
   58SAPC  C213 4353   4.933   0.220   9.003  0.3121 -0.9857 -0.0259
   58SAPC  H13R 4354   4.883   0.306   9.051  3.1400  1.3336 -1.0959
   58SAPC  H13S 4355   4.892   0.127   9.049 -0.2959  0.1976  1.8971
   58SAPC  C214 4356   4.909   0.217   8.856  0.0090  0.5367 -0.7279
   58SAPC  H14R 4357   4.898   0.121   8.803  1.3948  1.2201 -2.2914
   58SAPC  C215 4358   4.902   0.322   8.771 -0.4354  0.4856  0.1981
   58SAPC  H15R 4359   4.888   0.305   8.663 -1.7330  0.1282  0.4107
   58SAPC  C216 4360   4.906   0.469   8.806  0.2579 -0.3544  0.5005
   58SAPC  H16R 4361   4.919   0.482   8.916 -0.7338  1.1399  0.4478
   58SAPC  H16S 4362   4.806   0.514   8.789  1.1322  1.8878  1.2065
   58SAPC  C217 4363   5.021   0.560   8.733 -0.4467  0.6340 -0.1809
   58SAPC  H17R 4364   5.036   0.648   8.799 -0.1514 -0.4117  1.1702
   58SAPC  H17S 4365   4.997   0.585   8.627 -1.3741  0.4237 -0.0190
   58SAPC  C218 4366   5.156   0.479   8.717  0.6132  0.1950  0.9167
   58SAPC  H18R 4367   5.144   0.392   8.650  1.9786  0.8465 -0.2008
   58SAPC  H18S 4368   5.179   0.434   8.816 -0.3763 -1.8066  0.2525
   58SAPC  C219 4369   5.277   0.563   8.679 -0.2730  0.3267 -0.8045
   58SAPC  H19R 4370   5.276   0.597   8.573  0.5216  0.6620 -0.7148
   58SAPC  H19S 4371   5.366   0.498   8.691  0.1625  1.0022 -0.2933
   58SAPC  C220 4372   5.293   0.680   8.778 -0.6931  0.2705 -0.5750
   58SAPC  H20R 4373   5.220   0.763   8.767 -0.2606  0.5400 -1.4634
   58SAPC  H20S 4374   5.393   0.728   8.777 -1.0452  1.0153 -0.4959
   58SAPC  H20T 4375   5.274   0.642   8.881  0.2581 -1.4581 -1.0219
   58SAPC   C33 4376   4.583  -0.041  10.219 -0.8502  0.2125 -0.0929
   58SAPC   H3X 4377   4.567   0.069  10.213  0.1772  0.4460  1.3807
   58SAPC   H3Y 4378   4.539  -0.072  10.316 -1.7479  0.5192 -0.3900
   58SAPC   C34 4379   4.506  -0.108  10.101 -0.4830 -0.0406 -0.5534
   58SAPC   H4X 4380   4.401  -0.133  10.128 -1.2273  1.3077 -2.1148
   58SAPC   H4Y 4381   4.558  -0.201  10.069  1.2691  0.8825 -0.4617
   58SAPC   C35 4382   4.498  -0.021   9.972  0.5277  0.0401  1.0481
   58SAPC   H5X 4383   4.598   0.025   9.953  0.3057  0.7575  1.5923
   58SAPC   H5Y 4384   4.427   0.063   9.990 -0.8406 -1.2188  1.6427
   58SAPC   C36 4385   4.447  -0.103   9.855 -0.1216 -0.1312 -0.4375
   58SAPC   H6X 4386   4.423  -0.027   9.777 -1.1163  0.5060  0.4773
   58SAPC   H6Y 4387   4.353  -0.158   9.878 -0.0747  0.1046  0.3037
   58SAPC   C37 4388   4.540  -0.211   9.798  0.5356 -0.4201 -0.6294
   58SAPC   H7X 4389   4.531  -0.302   9.860 -1.5465  0.0134 -0.2777
   58SAPC   H7Y 4390   4.645  -0.172   9.801  1.1117 -1.9467 -0.7954
   58SAPC   C38 4391   4.507  -0.267   9.656 -0.6656  0.1629  0.7440
   58SAPC   H8X 4392   4.404  -0.310   9.664 -1.2685  1.0016 -1.8826
   58SAPC   H8Y 4393   4.585  -0.344   9.636 -0.4325  0.9138 -1.3630
   58SAPC   C39 4394   4.511  -0.161   9.545  0.2971  0.2382  0.0857
   58SAPC   H9X 4395   4.609  -0.108   9.543  1.3445 -1.6120  0.4068
   58SAPC   H9Y 4396   4.435  -0.082   9.559 -0.8355 -0.5903 -1.2701
   58SAPC  C310 4397   4.481  -0.222   9.412  0.1247  0.5952 -0.3601
   58SAPC  H10X 4398   4.423  -0.149   9.351 -1.6213 -1.5279 -1.3362
   58SAPC  H10Y 4399   4.416  -0.311   9.425  2.9764 -1.4536  0.2570
   58SAPC  C311 4400   4.616  -0.266   9.350  0.4196 -0.0767  0.9500
   58SAPC  H11X 4401   4.646  -0.357   9.405 -2.6225 -1.5561  0.2368
   58SAPC  H11Y 4402   4.694  -0.186   9.356 -0.4695  0.8360  0.5517
   58SAPC  C312 4403   4.606  -0.307   9.198  0.3894 -0.2422  0.2708
   58SAPC  H12X 4404   4.559  -0.407   9.208 -0.3475  0.1684  1.0591
   58SAPC  H12Y 4405   4.705  -0.330   9.153  0.6002  1.4725 -0.1888
   58SAPC  C313 4406   4.535  -0.213   9.110  0.3909 -0.0640 -0.4961
   58SAPC  H13X 4407   4.582  -0.114   9.131  0.2577 -0.4998  1.9869
   58SAPC  H13Y 4408   4.425  -0.204   9.121  0.5850  2.6063 -0.2739
   58SAPC  C314 4409   4.560  -0.258   8.961  0.0085 -0.1954 -0.1149
   58SAPC  H14X 4410   4.531  -0.361   8.931 -0.1667 -0.5201  1.1501
   58SAPC  H14Y 4411   4.671  -0.258   8.957  0.0275  1.8115  0.0138
   58SAPC  C315 4412   4.513  -0.154   8.856  0.0724  0.7007  0.3811
   58SAPC  H15X 4413   4.403  -0.144   8.872 -0.0032  1.5095 -0.6646
   58SAPC  H15Y 4414   4.542  -0.196   8.757 -0.7870 -0.8981  0.7855
   58SAPC  C316 4415   4.579  -0.021   8.864 -0.5036  0.0581 -0.0060
   58SAPC  H16X 4416   4.682  -0.042   8.900 -1.1758 -1.3138  1.1606
   58SAPC  H16Y 4417   4.525   0.048   8.932  0.5627  0.7600  0.1422
   58SAPC  C317 4418   4.587   0.061   8.739 -0.2625 -0.0538  0.6056
   58SAPC  H17X 4419   4.627   0.157   8.777 -0.8059  0.1822  0.5987
   58SAPC  H17Y 4420   4.490   0.093   8.694 -0.1907  0.6593  0.9448
   58SAPC  C318 4421   4.665  -0.006   8.632  0.4103  0.3655  0.2641
   58SAPC  H18X 4422   4.754  -0.053   8.678  1.2775  1.8106  0.1073
   58SAPC  H18Y 4423   4.705   0.060   8.552  0.9814 -2.4847 -1.8885
   58SAPC  H18Z 4424   4.603  -0.079   8.576  1.2136  0.9440 -1.4159
   59SAPC     N 4425   6.601   2.397  11.350 -0.1419 -0.1176 -0.3566
   59SAPC   C12 4426   6.500   2.365  11.241 -0.0446  0.0745  0.1995
   59SAPC  H12A 4427   6.558   2.350  11.151  0.2374  0.8266  0.2519
   59SAPC  H12B 4428   6.430   2.444  11.218  1.1066  1.3312  0.9614
   59SAPC   C13 4429   6.656   2.541  11.338  0.3717  0.4282 -0.6062
   59SAPC  H13A 4430   6.750   2.538  11.285 -0.0945 -0.3306 -1.4067
   59SAPC  H13B 4431   6.591   2.610  11.286  1.5141  2.5959  0.7764
   59SAPC  H13C 4432   6.677   2.583  11.435 -2.5505  0.8993 -0.1180
   59SAPC   C14 4433   6.537   2.390  11.485  0.2680  0.0702  1.1782
   59SAPC  H14A 4434   6.467   2.468  11.510 -0.3858  0.4404 -1.6421
   59SAPC  H14B 4435   6.492   2.293  11.500 -0.8859  0.3853 -0.1552
   59SAPC  H14C 4436   6.617   2.404  11.557  2.5608  2.6124 -1.7262
   59SAPC   C15 4437   6.715   2.299  11.349  0.0755 -0.8671 -0.1415
   59SAPC  H15A 4438   6.675   2.201  11.368  1.9824 -1.9891 -1.7721
   59SAPC  H15B 4439   6.757   2.295  11.250 -2.6890 -0.0824 -1.3948
   59SAPC  H15C 4440   6.786   2.337  11.421 -1.3463 -1.6854  1.7283
   59SAPC   C11 4441   6.419   2.236  11.248 -0.5888  0.8152  0.3269
   59SAPC  H11A 4442   6.354   2.238  11.158 -2.0342 -4.6052  1.0714
   59SAPC  H11B 4443   6.354   2.251  11.337  1.3612  1.7063  1.6496
   59SAPC     P 4444   6.543   2.037  11.141  0.8019 -0.7845 -0.0910
   59SAPC   O13 4445   6.686   2.054  11.130  0.0762  0.2522 -0.6175
   59SAPC   O14 4446   6.489   1.903  11.152  0.4407 -0.4028 -0.4530
   59SAPC   O12 4447   6.494   2.117  11.264 -0.3991  0.0076 -0.1731
   59SAPC   O11 4448   6.481   2.101  11.010 -0.1983 -0.2791  0.0503
   59SAPC    C1 4449   6.377   2.036  10.940 -0.2364 -0.0669  0.9063
   59SAPC    HA 4450   6.327   1.956  10.999 -0.7905  0.0077  0.5420
   59SAPC    HB 4451   6.306   2.116  10.910  0.2787  0.6795  1.6667
   59SAPC    C2 4452   6.427   1.975  10.807 -0.2599  0.4862  0.9664
   59SAPC    HS 4453   6.508   1.901  10.823  0.1081  0.1485 -2.0574
   59SAPC   O21 4454   6.478   2.085  10.729 -0.3365 -0.2912  0.1337
   59SAPC   C21 4455   6.558   2.051  10.636  0.7617  0.4553 -0.3628
   59SAPC   O22 4456   6.607   1.938  10.614  0.0617 -0.3916 -0.8972
   59SAPC   C22 4457   6.579   2.167  10.542  0.1679 -0.5366 -0.4296
   59SAPC   H2R 4458   6.493   2.235  10.527 -0.1920 -1.3734 -2.2430
   59SAPC   H2S 4459   6.651   2.232  10.596 -1.0099  1.1774 -0.8837
   59SAPC    C3 4460   6.316   1.903  10.737  0.0877 -0.7056 -0.2551
   59SAPC    HX 4461   6.291   1.826  10.813  0.2335  0.4232  0.9442
   59SAPC    HY 4462   6.351   1.858  10.642 -0.5089 -0.3292 -0.6595
   59SAPC   O31 4463   6.200   1.991  10.719 -0.2367 -0.5177 -0.1675
   59SAPC   C31 4464   6.095   1.933  10.662 -0.3907 -0.0024  0.1478
   59SAPC   O32 4465   6.099   1.819  10.623  0.0383  0.1303 -0.6356
   59SAPC   C32 4466   5.983   2.036  10.652  0.3349 -0.0115 -0.2834
   59SAPC   H2X 4467   6.023   2.140  10.642 -2.2245  0.9488 -0.8648
   59SAPC   H2Y 4468   5.916   2.029  10.740  0.2236  2.9216 -0.0664
   59SAPC   C23 4469   6.636   2.119  10.409  0.4044 -0.6172 -0.2616
   59SAPC   H3R 4470   6.712   2.040  10.425  1.5645  0.5193 -0.1226
   59SAPC   H3S 4471   6.707   2.197  10.375  0.6463 -0.4749  0.5677
   59SAPC   C24 4472   6.534   2.076  10.301  0.6986 -0.4022  0.7227
   59SAPC   H4R 4473   6.589   2.074  10.204  0.1906 -0.4078  0.4325
   59SAPC   H4S 4474   6.445   2.143  10.294  0.6824 -0.2216  2.5317
   59SAPC   C25 4475   6.489   1.938  10.328 -0.9714  0.1809 -0.0180
   59SAPC   H5R 4476   6.500   1.909  10.433  0.4425  2.5448  0.5058
   59SAPC   C26 4477   6.440   1.840  10.245  0.4455  0.2802 -0.2584
   59SAPC   H6R 4478   6.416   1.745  10.295 -0.1680  1.5060  1.8624
   59SAPC   C27 4479   6.415   1.857  10.098 -0.3765  1.4714  0.1318
   59SAPC   H7R 4480   6.428   1.763  10.039 -0.0844  0.6876  1.4249
   59SAPC   H7S 4481   6.488   1.935  10.067  0.3989  1.7314  2.4772
   59SAPC   C28 4482   6.281   1.902  10.055  0.6106  0.3900  0.1084
   59SAPC   H8R 4483   6.212   1.937  10.134 -1.4539 -1.0322 -1.0230
   59SAPC   C29 4484   6.254   1.918   9.921  0.1376  0.4807  0.0415
   59SAPC   H9R 4485   6.156   1.962   9.894  0.7804  2.1209  0.3233
   59SAPC  C210 4486   6.350   1.883   9.810  0.2733  0.2663  0.0396
   59SAPC  H10R 4487   6.427   1.815   9.852  1.0182  1.3191  0.4092
   59SAPC  H10S 4488   6.408   1.976   9.791  0.3796  0.3765  0.8793
   59SAPC  C211 4489   6.266   1.819   9.702 -0.7852 -0.5826 -0.9572
   59SAPC  H11R 4490   6.206   1.740   9.749  0.8023  0.5189  3.1511
   59SAPC  C212 4491   6.266   1.846   9.567  0.2750  0.1034 -0.0163
   59SAPC  H12R 4492   6.189   1.798   9.505  1.4277  1.3746 -2.5020
   59SAPC  C213 4493   6.344   1.950   9.493  0.7929 -0.0163  0.4027
   59SAPC  H13R 4494   6.434   1.901   9.451  0.6720 -0.6216  0.8375
   59SAPC  H13S 4495   6.375   2.027   9.566 -1.5603  0.4856  0.9327
   59SAPC  C214 4496   6.267   2.021   9.385  0.4891 -0.3098 -0.2861
   59SAPC  H14R 4497   6.172   2.057   9.427 -0.8648 -1.9794 -1.8388
   59SAPC  C215 4498   6.282   2.034   9.251 -0.4592  0.4575  0.1790
   59SAPC  H15R 4499   6.211   2.088   9.186  0.1230  0.3824 -0.5208
   59SAPC  C216 4500   6.393   1.984   9.173  1.0261 -0.2464  0.3584
   59SAPC  H16R 4501   6.488   1.984   9.229 -0.6354  0.2016  3.2754
   59SAPC  H16S 4502   6.408   2.042   9.079  2.8767 -1.9547 -0.4539
   59SAPC  C217 4503   6.382   1.850   9.106 -0.7710  0.1125 -0.4505
   59SAPC  H17R 4504   6.351   1.774   9.181  0.5604 -0.4692 -0.4610
   59SAPC  H17S 4505   6.488   1.820   9.086 -0.0564  1.9449  0.5465
   59SAPC  C218 4506   6.285   1.861   8.988  0.5501 -0.1570 -0.0773
   59SAPC  H18R 4507   6.276   1.956   8.932  1.4589  0.3939  0.7032
   59SAPC  H18S 4508   6.185   1.835   9.029  1.4174 -0.6725  1.7443
   59SAPC  C219 4509   6.314   1.754   8.884  0.0120 -0.0225  0.7145
   59SAPC  H19R 4510   6.423   1.733   8.887  0.1671  0.7973  1.0210
   59SAPC  H19S 4511   6.285   1.792   8.783  0.4837 -2.7401 -0.4835
   59SAPC  C220 4512   6.236   1.626   8.913  0.4645 -0.2868  0.4775
   59SAPC  H20R 4513   6.189   1.631   9.014 -1.4980  0.7330 -0.4499
   59SAPC  H20S 4514   6.296   1.533   8.900  1.3369  0.7823 -4.1715
   59SAPC  H20T 4515   6.145   1.628   8.850  1.2549 -1.3514 -0.7278
   59SAPC   C33 4516   5.903   2.021  10.524 -0.3632  0.0808  0.2193
   59SAPC   H3X 4517   5.831   2.105  10.514  0.4779  1.1696  2.9073
   59SAPC   H3Y 4518   5.843   1.928  10.513  0.6713 -0.3914 -1.5818
   59SAPC   C34 4519   6.004   2.045  10.405  0.2883  0.1450 -0.0634
   59SAPC   H4X 4520   6.076   1.960  10.403  2.3948  1.9001 -0.4647
   59SAPC   H4Y 4521   6.064   2.137  10.417  0.4702 -0.1212  1.1359
   59SAPC   C35 4522   5.940   2.030  10.272  0.8143 -0.3129 -0.1683
   59SAPC   H5X 4523   5.868   1.946  10.283  0.8733 -0.3675 -0.1981
   59SAPC   H5Y 4524   6.003   1.997  10.187 -0.4434  1.0675 -1.6719
   59SAPC   C36 4525   5.876   2.159  10.209 -0.1051  0.9851  0.3307
   59SAPC   H6X 4526   5.961   2.230  10.199  2.1816 -1.7284  0.1818
   59SAPC   H6Y 4527   5.807   2.202  10.285 -0.3466  0.1752  0.5677
   59SAPC   C37 4528   5.798   2.155  10.076  0.4335 -0.3355 -0.1371
   59SAPC   H7X 4529   5.770   2.261  10.057 -0.0301 -0.7400 -1.8131
   59SAPC   H7Y 4530   5.703   2.100  10.094  1.2886 -1.2335  1.7695
   59SAPC   C38 4531   5.873   2.082   9.968  0.1127  0.4019  0.3164
   59SAPC   H8X 4532   5.875   1.977  10.003 -1.6307 -0.3445 -1.6707
   59SAPC   H8Y 4533   5.976   2.123   9.957 -0.0042  1.1366  1.8340
   59SAPC   C39 4534   5.800   2.088   9.829  0.4269  0.3169  0.3884
   59SAPC   H9X 4535   5.798   2.195   9.801 -1.3557  0.0705 -0.4500
   59SAPC   H9Y 4536   5.694   2.059   9.846 -0.0219  0.4272 -1.9904
   59SAPC  C310 4537   5.874   2.015   9.725 -0.5797  0.3295  0.1291
   59SAPC  H10X 4538   5.849   1.907   9.731 -0.2937  0.2911  0.6335
   59SAPC  H10Y 4539   5.981   2.036   9.746 -0.6412 -1.1965  2.1716
   59SAPC  C311 4540   5.841   2.064   9.582 -0.3934 -0.1407  0.3956
   59SAPC  H11X 4541   5.886   2.165   9.571 -0.0534 -0.6259 -3.2859
   59SAPC  H11Y 4542   5.731   2.062   9.571 -0.3221  0.2162 -0.4829
   59SAPC  C312 4543   5.901   1.988   9.466 -1.1038  0.0422  0.3713
   59SAPC  H12X 4544   5.847   1.893   9.447 -0.1605 -0.2834 -0.6887
   59SAPC  H12Y 4545   6.000   1.945   9.493 -2.2703 -2.5642  0.6586
   59SAPC  C313 4546   5.914   2.075   9.345  0.3507  0.0417 -0.0698
   59SAPC  H13X 4547   5.972   2.016   9.271 -1.1797  0.4747 -1.6533
   59SAPC  H13Y 4548   5.978   2.165   9.357 -2.5773  2.2195 -0.2501
   59SAPC  C314 4549   5.784   2.120   9.273  0.6116 -0.2160 -0.7441
   59SAPC  H14X 4550   5.741   2.209   9.325 -0.0678 -1.0583  0.1530
   59SAPC  H14Y 4551   5.707   2.040   9.266  2.0335 -1.9786  2.5479
   59SAPC  C315 4552   5.813   2.186   9.140 -0.0486  0.6355 -0.1013
   59SAPC  H15X 4553   5.879   2.275   9.148  0.5994  0.2351 -0.9591
   59SAPC  H15Y 4554   5.715   2.221   9.101 -0.0897  0.9567  0.2815
   59SAPC  C316 4555   5.866   2.089   9.030  0.4207  0.1839  0.0297
   59SAPC  H16X 4556   5.816   1.990   9.041  0.3368  0.3833  1.5970
   59SAPC  H16Y 4557   5.975   2.067   9.036  0.3694 -0.9115 -2.3465
   59SAPC  C317 4558   5.850   2.134   8.882 -0.6543 -0.2692  0.7391
   59SAPC  H17X 4559   5.744   2.158   8.862  0.5942  3.0727 -2.3508
   59SAPC  H17Y 4560   5.885   2.054   8.813  0.6665 -0.1004  1.1970
   59SAPC  C318 4561   5.923   2.264   8.851 -0.5512  1.0181 -0.3050
   59SAPC  H18X 4562   5.863   2.351   8.887 -0.5432  0.1147  2.0186
   59SAPC  H18Y 4563   5.936   2.284   8.743  1.9152  3.3066  0.3840
   59SAPC  H18Z 4564   6.021   2.260   8.902  0.4951  0.9759 -2.2997
   60SAPC     N 4565   0.949   0.346  11.272 -0.0239  0.3723  0.0933
   60SAPC   C12 4566   1.014   0.430  11.159 -0.6022  0.1308 -0.1820
   60SAPC  H12A 4567   1.078   0.505  11.203 -2.2059  0.7764  1.1143
   60SAPC  H12B 4568   0.927   0.469  11.110  0.2274  3.3073  0.7388
   60SAPC   C13 4569   0.873   0.445  11.362 -0.3429  0.3134 -0.4600
   60SAPC  H13A 4570   0.838   0.391  11.449 -1.1901 -1.3077 -1.7653
   60SAPC  H13B 4571   0.945   0.515  11.400 -0.2622  1.5440 -2.8201
   60SAPC  H13C 4572   0.791   0.494  11.313  0.8740  1.5153 -1.3265
   60SAPC   C14 4573   0.863   0.241  11.208 -0.5205 -0.6439  0.0688
   60SAPC  H14A 4574   0.831   0.166  11.279  1.3830 -0.6506  0.9487
   60SAPC  H14B 4575   0.783   0.288  11.153  0.7743 -0.4481 -1.6702
   60SAPC  H14C 4576   0.917   0.185  11.134  0.0497  0.2804 -0.2133
   60SAPC   C15 4577   1.056   0.283  11.364 -0.6329  0.4675  0.1610
   60SAPC  H15A 4578   1.094   0.191  11.321 -0.3860  0.1029  1.1440
   60SAPC  H15B 4579   1.143   0.348  11.372  0.7947 -1.7387  3.9652
   60SAPC  H15C 4580   1.020   0.253  11.461  0.7643 -2.7063 -0.2614
   60SAPC   C11 4581   1.104   0.361  11.056  0.2418 -0.0973 -0.1959
   60SAPC  H11A 4582   1.184   0.298  11.100  0.7324  1.8427  1.8292
   60SAPC  H11B 4583   1.163   0.429  10.991  0.9183 -0.3840  0.1090
   60SAPC     P 4584   0.957   0.340  10.835  0.5472  0.5532  0.3369
   60SAPC   O13 4585   0.832   0.258  10.821 -0.4799  0.4851 -0.6853
   60SAPC   O14 4586   0.930   0.486  10.847 -0.6932 -0.2228 -0.5381
   60SAPC   O12 4587   1.024   0.278  10.964 -0.4397 -0.0676  0.2796
   60SAPC   O11 4588   1.057   0.310  10.727  0.3492  0.2099 -0.1026
   60SAPC    C1 4589   1.158   0.401  10.688  0.1397 -0.1472  0.3995
   60SAPC    HA 4590   1.146   0.502  10.732 -0.0631  0.0879 -0.1875
   60SAPC    HB 4591   1.255   0.357  10.720  1.0872 -0.1224 -2.3541
   60SAPC    C2 4592   1.149   0.440  10.539  0.2989 -0.2498 -0.0133
   60SAPC    HS 4593   1.059   0.502  10.518 -0.0625 -1.1241 -1.1241
   60SAPC   O21 4594   1.147   0.316  10.463  0.5295 -0.4705 -0.6800
   60SAPC   C21 4595   1.108   0.320  10.345 -0.3717  0.7916 -0.3929
   60SAPC   O22 4596   1.019   0.399  10.304  0.5808  0.1557  0.1263
   60SAPC   C22 4597   1.152   0.189  10.269 -0.1601  0.2168 -0.9034
   60SAPC   H2R 4598   1.263   0.192  10.268 -0.0542 -1.6429  0.8682
   60SAPC   H2S 4599   1.126   0.098  10.328 -2.3951  1.2936 -0.1791
   60SAPC    C3 4600   1.266   0.524  10.497  0.2916 -0.6134  0.0471
   60SAPC    HX 4601   1.359   0.465  10.509  1.2108  0.8983  0.5167
   60SAPC    HY 4602   1.290   0.606  10.569  1.5436 -1.6463  0.8161
   60SAPC   O31 4603   1.256   0.566  10.357 -0.8232 -0.2891  0.6750
   60SAPC   C31 4604   1.180   0.667  10.316 -0.4968  0.5117  0.2092
   60SAPC   O32 4605   1.102   0.725  10.390 -0.1671 -0.1816  0.6386
   60SAPC   C32 4606   1.201   0.690  10.166  0.8516  0.0266 -0.0084
   60SAPC   H2X 4607   1.187   0.592  10.117  1.3758 -0.1325  0.1568
   60SAPC   H2Y 4608   1.308   0.720  10.163  0.8606  0.2703  1.7549
   60SAPC   C23 4609   1.080   0.175  10.134 -0.0097  0.2866 -0.0273
   60SAPC   H3R 4610   0.973   0.205  10.145  0.3085  0.9469  1.3773
   60SAPC   H3S 4611   1.073   0.069  10.101 -1.2471 -0.3702  2.2527
   60SAPC   C24 4612   1.150   0.249  10.022  0.1999 -0.2852  0.4367
   60SAPC   H4R 4613   1.140   0.360  10.032  1.5812 -0.0757 -0.2247
   60SAPC   H4S 4614   1.100   0.223   9.927  2.1706 -2.7347  0.0254
   60SAPC   C25 4615   1.297   0.206   9.996 -0.1001 -0.4319  0.0903
   60SAPC   H5R 4616   1.310   0.097   9.996 -0.0970 -0.4317 -0.2168
   60SAPC   C26 4617   1.408   0.278   9.990  0.1044  0.3950 -0.4079
   60SAPC   H6R 4618   1.500   0.222   9.970 -1.1446 -1.5205 -0.9007
   60SAPC   C27 4619   1.415   0.431   9.995  0.3838 -0.0794  0.2461
   60SAPC   H7R 4620   1.431   0.451  10.103  1.0646 -1.7428  0.4592
   60SAPC   H7S 4621   1.324   0.479   9.952  0.4211  0.0782  0.3439
   60SAPC   C28 4622   1.520   0.496   9.918 -0.5182 -0.8768 -0.0079
   60SAPC   H8R 4623   1.612   0.519   9.975 -1.0481  2.4884 -0.4126
   60SAPC   C29 4624   1.521   0.520   9.781 -0.2077  0.5049  0.4608
   60SAPC   H9R 4625   1.605   0.567   9.729 -2.0778  0.6589 -2.5814
   60SAPC  C210 4626   1.420   0.476   9.683  0.5902  0.0963 -0.2207
   60SAPC  H10R 4627   1.421   0.539   9.591  0.2350 -0.8211 -0.8645
   60SAPC  H10S 4628   1.319   0.502   9.718  1.0902  1.2546  0.3667
   60SAPC  C211 4629   1.431   0.330   9.646  0.0398 -0.1226 -0.9941
   60SAPC  H11R 4630   1.426   0.263   9.733  0.9535  0.5245 -0.4414
   60SAPC  C212 4631   1.474   0.281   9.527  0.2276 -0.0819  0.6416
   60SAPC  H12R 4632   1.466   0.172   9.511 -2.7148  0.3680 -1.4559
   60SAPC  C213 4633   1.516   0.365   9.409 -0.8713 -0.7026  0.8315
   60SAPC  H13R 4634   1.433   0.394   9.341  1.6443  0.4627 -1.8457
   60SAPC  H13S 4635   1.577   0.294   9.348  0.3284  1.4375 -0.4944
   60SAPC  C214 4636   1.614   0.483   9.434  0.1320  0.2248 -0.0146
   60SAPC  H14R 4637   1.669   0.488   9.529  2.4088  0.7179 -1.3181
   60SAPC  C215 4638   1.635   0.585   9.348  0.5536  0.2410  0.3222
   60SAPC  H15R 4639   1.690   0.673   9.384  0.4023  0.1605  0.7554
   60SAPC  C216 4640   1.560   0.623   9.216 -0.3849 -0.3579 -0.1322
   60SAPC  H16R 4641   1.525   0.534   9.159  1.7431  0.6132 -3.1195
   60SAPC  H16S 4642   1.631   0.671   9.145 -0.4373 -2.1544 -1.4532
   60SAPC  C217 4643   1.446   0.718   9.237  0.1124 -0.7872  0.0222
   60SAPC  H17R 4644   1.478   0.806   9.297  1.7044 -0.2792 -1.5328
   60SAPC  H17S 4645   1.360   0.667   9.284 -0.3131 -1.6865 -1.6860
   60SAPC  C218 4646   1.393   0.782   9.103  0.2075 -0.0140 -0.3446
   60SAPC  H18R 4647   1.344   0.704   9.041 -2.5289 -0.0561  1.7145
   60SAPC  H18S 4648   1.473   0.821   9.037  0.3804 -1.2767 -0.8831
   60SAPC  C219 4649   1.300   0.900   9.127 -0.5269 -0.3796 -0.5707
   60SAPC  H19R 4650   1.357   0.977   9.182  0.1132 -0.7283 -0.7339
   60SAPC  H19S 4651   1.223   0.858   9.195  0.2260 -0.1768  0.4257
   60SAPC  C220 4652   1.235   0.961   9.007  0.3787 -0.1903 -0.2513
   60SAPC  H20R 4653   1.170   1.043   9.045  2.3798  1.8596 -1.0986
   60SAPC  H20S 4654   1.178   0.886   8.950 -2.8013  1.0633  1.1626
   60SAPC  H20T 4655   1.305   1.008   8.935 -0.4002 -1.0090 -1.5400
   60SAPC   C33 4656   1.100   0.798  10.107  0.1179  0.8291 -0.3043
   60SAPC   H3X 4657   1.108   0.892  10.164  0.5310 -0.8159  2.4538
   60SAPC   H3Y 4658   0.996   0.764  10.130 -0.0994  0.1372 -2.1792
   60SAPC   C34 4659   1.114   0.836   9.965  0.0128 -0.0774  0.4110
   60SAPC   H4X 4660   1.205   0.899   9.959 -0.1824  0.0501 -1.2713
   60SAPC   H4Y 4661   1.035   0.908   9.933  0.6202 -0.2746 -1.5298
   60SAPC   C35 4662   1.127   0.717   9.865  0.1529 -0.4237 -0.3418
   60SAPC   H5X 4663   1.216   0.659   9.898 -0.5821 -0.8274  0.9664
   60SAPC   H5Y 4664   1.144   0.752   9.761  3.2314  0.8089  0.4957
   60SAPC   C36 4665   1.008   0.617   9.882  0.2748 -0.3016  0.4884
   60SAPC   H6X 4666   0.911   0.669   9.869  0.2922 -0.5024 -0.4972
   60SAPC   H6Y 4667   1.013   0.581   9.987 -1.6790  0.6493  0.9432
   60SAPC   C37 4668   1.021   0.496   9.787 -0.2256 -0.4966  0.1300
   60SAPC   H7X 4669   0.955   0.411   9.813  1.2095 -2.1256 -1.3735
   60SAPC   H7Y 4670   1.127   0.463   9.800  0.2043  0.1216 -1.6141
   60SAPC   C38 4671   1.009   0.538   9.645  0.1339 -0.8067  0.2242
   60SAPC   H8X 4672   1.089   0.607   9.611  0.5724 -1.3390  0.1773
   60SAPC   H8Y 4673   0.909   0.586   9.630 -0.3656 -1.7936  0.3684
   60SAPC   C39 4674   1.019   0.413   9.543  0.1006  0.1120 -0.1752
   60SAPC   H9X 4675   0.925   0.361   9.570 -0.1524  0.7438  0.1753
   60SAPC   H9Y 4676   1.106   0.356   9.582 -1.1917 -0.8520  1.3538
   60SAPC  C310 4677   1.016   0.459   9.399  0.3071 -0.2914 -0.2810
   60SAPC  H10X 4678   1.106   0.524   9.391 -0.2488  0.7253  1.4380
   60SAPC  H10Y 4679   0.925   0.513   9.366  0.7791  0.6256 -0.1157
   60SAPC  C311 4680   1.036   0.339   9.307 -0.3057 -0.0608 -0.0385
   60SAPC  H11X 4681   0.947   0.273   9.313 -1.1215  1.1164  0.9854
   60SAPC  H11Y 4682   1.127   0.286   9.342 -0.3556  0.0982  0.3354
   60SAPC  C312 4683   1.064   0.397   9.158 -0.2214  0.2159 -0.0048
   60SAPC  H12X 4684   1.139   0.323   9.122  1.2452  1.8287 -0.3219
   60SAPC  H12Y 4685   1.118   0.494   9.163  3.6170 -1.4817 -4.2793
   60SAPC  C313 4686   0.944   0.418   9.067  0.2221 -0.1618  0.4321
   60SAPC  H13X 4687   0.888   0.508   9.099 -1.4351 -0.6778 -0.9279
   60SAPC  H13Y 4688   0.870   0.335   9.071  0.1283 -0.1860 -1.3530
   60SAPC  C314 4689   0.978   0.436   8.920  0.6345 -0.4976 -0.3288
   60SAPC  H14X 4690   1.046   0.356   8.884  1.9832 -0.0607  1.1567
   60SAPC  H14Y 4691   1.038   0.529   8.911  1.3164 -0.7667  1.1968
   60SAPC  C315 4692   0.860   0.462   8.828  0.5816 -0.1381  0.6853
   60SAPC  H15X 4693   0.808   0.555   8.858 -1.0851 -1.3084  1.5565
   60SAPC  H15Y 4694   0.785   0.381   8.841  0.9515 -0.9298 -1.8509
   60SAPC  C316 4695   0.894   0.464   8.680 -0.3567 -0.5063 -0.1580
   60SAPC  H16X 4696   0.951   0.377   8.641 -0.9418 -1.6606  1.4619
   60SAPC  H16Y 4697   0.963   0.547   8.659  1.6321 -2.9673 -3.8551
   60SAPC  C317 4698   0.788   0.477   8.573 -0.7983  0.2671 -0.8978
   60SAPC  H17X 4699   0.840   0.471   8.475 -0.4389  0.4098 -0.7174
   60SAPC  H17Y 4700   0.732   0.572   8.587 -1.2130 -0.2174  0.8783
   60SAPC  C318 4701   0.691   0.359   8.577 -0.6992 -0.4261 -0.7617
   60SAPC  H18X 4702   0.656   0.335   8.474  0.4127 -3.0035 -0.5930
   60SAPC  H18Y 4703   0.607   0.382   8.646  1.0023  2.2193  0.4752
   60SAPC  H18Z 4704   0.738   0.262   8.605  1.7657  0.4124 -1.9295
   61SAPC     N 4705   2.113   5.812  11.054  0.1810  0.8107  0.0811
   61SAPC   C12 4706   2.062   5.935  10.991  0.2826 -0.0784 -0.2513
   61SAPC  H12A 4707   2.142   5.966  10.925 -0.3336  0.7955 -0.5922
   61SAPC  H12B 4708   2.046   6.014  11.064  2.0580  0.8624 -0.8551
   61SAPC   C13 4709   2.029   5.783  11.182 -0.6160  0.0252  0.4461
   61SAPC  H13A 4710   2.057   5.855  11.257 -2.1965 -1.4007  2.4665
   61SAPC  H13B 4711   1.922   5.792  11.172 -0.7875 -3.3745 -1.5871
   61SAPC  H13C 4712   2.055   5.686  11.223 -2.8228 -1.4539 -1.5238
   61SAPC   C14 4713   2.110   5.706  10.949 -0.0808  0.0984  0.4075
   61SAPC  H14A 4714   2.138   5.609  10.987 -1.5193  0.1793  1.6900
   61SAPC  H14B 4715   2.006   5.703  10.919 -0.4456  1.5123  1.4825
   61SAPC  H14C 4716   2.174   5.724  10.864  2.1097 -0.0875  1.9690
   61SAPC   C15 4717   2.252   5.838  11.102  0.4793  0.2751  0.4897
   61SAPC  H15A 4718   2.248   5.897  11.192 -0.0778 -2.0185  2.0183
   61SAPC  H15B 4719   2.300   5.748  11.140 -2.3045 -1.0418  1.0061
   61SAPC  H15C 4720   2.319   5.866  11.022  1.5975 -1.3403  0.8201
   61SAPC   C11 4721   1.930   5.923  10.908  0.3633  0.2107 -0.3167
   61SAPC  H11A 4722   1.941   5.874  10.809 -2.4631 -0.3620 -0.4147
   61SAPC  H11B 4723   1.911   6.025  10.870 -0.0788  1.4242  2.9573
   61SAPC     P 4724   1.689   5.817  10.926 -0.2444  0.3691 -0.0435
   61SAPC   O13 4725   1.675   5.671  10.938  0.3715  0.0273 -0.2120
   61SAPC   O14 4726   1.578   5.905  10.976 -0.1409 -0.4629 -0.0166
   61SAPC   O12 4727   1.822   5.864  10.990 -0.5723  0.2409 -0.5286
   61SAPC   O11 4728   1.710   5.845  10.763 -0.1732  0.2832  0.3483
   61SAPC    C1 4729   1.589   5.861  10.685 -0.1687  0.1726 -0.1701
   61SAPC    HA 4730   1.534   5.765  10.686 -1.7826  1.0718  0.7195
   61SAPC    HB 4731   1.518   5.934  10.731  0.5681 -0.3705  1.8787
   61SAPC    C2 4732   1.611   5.921  10.538  0.1678  0.7973  0.2179
   61SAPC    HS 4733   1.513   5.950  10.495 -1.1774  0.7694  3.1330
   61SAPC   O21 4734   1.676   5.819  10.455 -0.2827  0.0130  0.4626
   61SAPC   C21 4735   1.586   5.725  10.422  0.0413 -0.2001  0.6563
   61SAPC   O22 4736   1.469   5.724  10.454 -0.0281 -0.0129  0.1976
   61SAPC   C22 4737   1.659   5.608  10.353 -0.2294  0.7216 -0.0677
   61SAPC   H2R 4738   1.702   5.647  10.258  0.1423  1.8821  0.5632
   61SAPC   H2S 4739   1.741   5.579  10.422 -2.0184 -0.7052  1.5226
   61SAPC    C3 4740   1.702   6.038  10.533 -0.1874 -0.2928  0.1009
   61SAPC    HX 4741   1.811   6.026  10.554  0.1354 -0.6266 -1.6481
   61SAPC    HY 4742   1.671   6.104  10.617 -0.8557  1.0864 -1.1994
   61SAPC   O31 4743   1.665   6.119  10.415  0.1049  0.0368 -0.0729
   61SAPC   C31 4744   1.718   6.093  10.302  0.1561 -0.3728  0.3069
   61SAPC   O32 4745   1.817   6.024  10.288 -0.6039  0.2700  0.3754
   61SAPC   C32 4746   1.656   6.175  10.185  0.6011 -0.6213  0.5959
   61SAPC   H2X 4747   1.693   6.279  10.193 -1.4166  0.2167 -0.5783
   61SAPC   H2Y 4748   1.546   6.180  10.197  0.8785  2.1584  2.2305
   61SAPC   C23 4749   1.563   5.491  10.336  0.1456 -0.0972  0.5783
   61SAPC   H3R 4750   1.498   5.498  10.246  0.2247 -2.8285  0.2701
   61SAPC   H3S 4751   1.502   5.484  10.428 -0.4065  2.9466  0.4928
   61SAPC   C24 4752   1.641   5.360  10.334  0.5501  0.8137 -0.0750
   61SAPC   H4R 4753   1.570   5.280  10.301 -1.4768  0.8325  3.9426
   61SAPC   H4S 4754   1.682   5.347  10.436  1.8263 -1.1270 -0.8042
   61SAPC   C25 4755   1.764   5.351  10.240  0.6243 -0.5684  0.5274
   61SAPC   H5R 4756   1.856   5.381  10.293  0.7799 -2.1770  1.1969
   61SAPC   C26 4757   1.767   5.311  10.111  0.7856 -0.2599 -0.2295
   61SAPC   H6R 4758   1.865   5.293  10.064  0.5690  1.9139 -1.5939
   61SAPC   C27 4759   1.643   5.271  10.034 -0.4438  0.1649  0.2200
   61SAPC   H7R 4760   1.629   5.344   9.951  0.4556  0.4154  0.2852
   61SAPC   H7S 4761   1.552   5.281  10.097 -1.3067 -0.4958 -0.8947
   61SAPC   C28 4762   1.655   5.136   9.971 -0.0556  0.7661 -0.0984
   61SAPC   H8R 4763   1.677   5.064  10.051 -0.6488  1.9497  1.1352
   61SAPC   C29 4764   1.647   5.088   9.849 -0.2150 -0.5067 -0.4268
   61SAPC   H9R 4765   1.662   4.979   9.841  2.5276 -0.1610 -0.4326
   61SAPC  C210 4766   1.603   5.164   9.729  0.2416  0.0388 -0.7250
   61SAPC  H10R 4767   1.500   5.201   9.748 -0.2592 -2.2236  1.1757
   61SAPC  H10S 4768   1.607   5.093   9.643  1.1390 -2.2848  1.1861
   61SAPC  C211 4769   1.699   5.277   9.699  0.0727  0.2880 -0.1644
   61SAPC  H11R 4770   1.783   5.288   9.769 -0.9885 -2.0607  1.5794
   61SAPC  C212 4771   1.681   5.368   9.599  0.0066  0.1732 -0.1128
   61SAPC  H12R 4772   1.764   5.438   9.578 -0.5069  0.7827 -0.1343
   61SAPC  C213 4773   1.563   5.374   9.505  0.1245  0.6084  0.6145
   61SAPC  H13R 4774   1.557   5.477   9.462 -2.3810 -0.0831 -0.8041
   61SAPC  H13S 4775   1.467   5.363   9.559 -1.7095 -3.6113 -3.1857
   61SAPC  C214 4776   1.574   5.263   9.401 -0.5700 -0.6502 -0.3072
   61SAPC  H14R 4777   1.533   5.165   9.432  1.7266 -1.3574  0.6017
   61SAPC  C215 4778   1.621   5.269   9.275  0.5914 -0.7404 -0.0438
   61SAPC  H15R 4779   1.621   5.177   9.215 -0.8406 -0.1542 -0.9933
   61SAPC  C216 4780   1.683   5.391   9.218  0.0449 -0.3382  0.2532
   61SAPC  H16R 4781   1.694   5.471   9.294 -0.9818  0.4387 -0.4168
   61SAPC  H16S 4782   1.608   5.433   9.148  2.1972  1.8088 -0.8619
   61SAPC  C217 4783   1.803   5.363   9.129 -0.3224  0.4233 -0.1037
   61SAPC  H17R 4784   1.780   5.278   9.060  0.6877 -0.0308  0.1160
   61SAPC  H17S 4785   1.883   5.329   9.198  0.0310  1.2799 -0.0894
   61SAPC  C218 4786   1.849   5.481   9.046 -0.9162  0.5070  0.0817
   61SAPC  H18R 4787   1.881   5.563   9.113 -1.8569 -1.2033  2.6803
   61SAPC  H18S 4788   1.763   5.499   8.978 -0.9650 -0.6707 -0.1850
   61SAPC  C219 4789   1.963   5.435   8.958  0.0438 -0.9168  0.1939
   61SAPC  H19R 4790   1.917   5.360   8.890 -0.4537 -0.5429  0.1145
   61SAPC  H19S 4791   2.041   5.379   9.013  2.0449 -0.9356 -2.5678
   61SAPC  C220 4792   2.021   5.539   8.871  0.5824  0.0821 -0.3826
   61SAPC  H20R 4793   1.944   5.594   8.812  1.1366  0.8128 -0.4304
   61SAPC  H20S 4794   2.095   5.483   8.810  1.5450 -0.6265  1.4144
   61SAPC  H20T 4795   2.065   5.620   8.934  0.3636 -0.6802  0.7499
   61SAPC   C33 4796   1.697   6.113  10.040  0.2053 -0.0793  1.0824
   61SAPC   H3X 4797   1.666   6.008  10.024  0.5839 -0.3016  1.8086
   61SAPC   H3Y 4798   1.807   6.102  10.033 -0.1278 -1.8195 -2.3879
   61SAPC   C34 4799   1.640   6.190   9.917  0.4173  0.3691 -0.5412
   61SAPC   H4X 4800   1.706   6.186   9.828  2.6186 -0.1193  1.0635
   61SAPC   H4Y 4801   1.645   6.293   9.958 -1.8635  0.2672  0.0568
   61SAPC   C35 4802   1.499   6.144   9.893  0.5755 -0.0169  0.4108
   61SAPC   H5X 4803   1.428   6.176   9.972 -1.8343 -1.0130 -1.2908
   61SAPC   H5Y 4804   1.491   6.035   9.872 -1.2702  0.2292 -0.3069
   61SAPC   C36 4805   1.436   6.197   9.758 -0.5541 -0.1018  0.0191
   61SAPC   H6X 4806   1.453   6.306   9.748  1.4025 -0.3875  0.0675
   61SAPC   H6Y 4807   1.327   6.180   9.749 -0.7290  0.5729  0.8788
   61SAPC   C37 4808   1.505   6.125   9.642  0.0363  1.1304 -1.0531
   61SAPC   H7X 4809   1.500   6.015   9.656  1.2460  1.1370 -0.4576
   61SAPC   H7Y 4810   1.614   6.144   9.635  0.9688 -3.4230 -0.3970
   61SAPC   C38 4811   1.446   6.151   9.502 -0.1598 -0.1819  0.1354
   61SAPC   H8X 4812   1.336   6.159   9.513  0.2152  2.6096  2.4333
   61SAPC   H8Y 4813   1.470   6.069   9.431  1.8876  1.9798 -1.7668
   61SAPC   C39 4814   1.496   6.282   9.437 -0.1869  0.1357 -0.0629
   61SAPC   H9X 4815   1.604   6.271   9.416 -0.0949 -0.1409  0.5438
   61SAPC   H9Y 4816   1.484   6.368   9.506  0.0673  0.8833 -0.9465
   61SAPC  C310 4817   1.416   6.314   9.311 -0.4835  0.5856 -0.5667
   61SAPC  H10X 4818   1.454   6.411   9.271 -0.1195  1.1517  1.1249
   61SAPC  H10Y 4819   1.310   6.339   9.334 -0.0592  2.9720 -1.0872
   61SAPC  C311 4820   1.421   6.203   9.202 -0.6389 -0.7257 -0.3826
   61SAPC  H11X 4821   1.375   6.106   9.231 -0.5896 -1.3559 -2.3350
   61SAPC  H11Y 4822   1.527   6.175   9.187 -0.4644 -0.3153  0.0614
   61SAPC  C312 4823   1.351   6.248   9.076  0.0024 -0.1694 -0.8171
   61SAPC  H12X 4824   1.241   6.263   9.083  0.1541  0.1742  1.1941
   61SAPC  H12Y 4825   1.366   6.173   8.996 -0.0649 -0.1339 -0.8622
   61SAPC  C313 4826   1.403   6.383   9.027 -0.0240  0.8834 -0.3657
   61SAPC  H13X 4827   1.514   6.379   9.030 -0.0768 -2.2813 -0.0918
   61SAPC  H13Y 4828   1.363   6.469   9.085  1.5999  1.2775  0.1837
   61SAPC  C314 4829   1.367   6.418   8.883  0.3845  0.1912  0.3739
   61SAPC  H14X 4830   1.266   6.464   8.869  0.7977  0.5452 -1.6194
   61SAPC  H14Y 4831   1.376   6.331   8.815  0.8344  1.2527 -0.9460
   61SAPC  C315 4832   1.455   6.534   8.832 -0.1299 -0.6718 -0.6135
   61SAPC  H15X 4833   1.563   6.509   8.832 -0.1665 -0.9625  2.3281
   61SAPC  H15Y 4834   1.437   6.631   8.883 -0.5143 -1.6521  1.1610
   61SAPC  C316 4835   1.423   6.566   8.689 -0.8275  0.2273 -0.6585
   61SAPC  H16X 4836   1.313   6.579   8.699 -0.9654 -1.3766  0.0207
   61SAPC  H16Y 4837   1.456   6.482   8.623  0.3961 -0.6890  1.0819
   61SAPC  C317 4838   1.483   6.696   8.634  0.0331  0.4669 -0.6327
   61SAPC  H17X 4839   1.594   6.691   8.632  0.1010  1.2328  0.5709
   61SAPC  H17Y 4840   1.461   6.777   8.707  1.2166  0.8256 -0.6645
   61SAPC  C318 4841   1.417   6.738   8.499  0.0167 -0.2035 -0.1819
   61SAPC  H18X 4842   1.455   6.668   8.421  1.6785 -0.2584  0.6420
   61SAPC  H18Y 4843   1.458   6.838   8.473 -1.6232  0.6608  0.5172
   61SAPC  H18Z 4844   1.308   6.745   8.519 -0.1093  1.8244 -1.4110
   62SAPC     N 4845   0.757   4.670  10.953  0.6882 -0.0760 -0.4132
   62SAPC   C12 4846   0.849   4.715  10.844 -0.5196 -0.1276 -0.0301
   62SAPC  H12A 4847   0.858   4.636  10.771 -3.4662  1.4037 -2.1396
   62SAPC  H12B 4848   0.947   4.734  10.887 -1.0994  0.6612  0.9579
   62SAPC   C13 4849   0.622   4.646  10.894  0.1724  0.6077 -0.3365
   62SAPC  H13A 4850   0.557   4.615  10.974  0.0249  1.4559 -0.1136
   62SAPC  H13B 4851   0.580   4.725  10.832 -0.1746  0.4619 -0.2892
   62SAPC  H13C 4852   0.620   4.559  10.830 -0.3755  0.1389  0.3197
   62SAPC   C14 4853   0.799   4.543  11.022 -0.8608 -0.7913 -0.4362
   62SAPC  H14A 4854   0.805   4.462  10.951  0.7910 -0.3093 -0.8678
   62SAPC  H14B 4855   0.903   4.547  11.051 -0.6397 -2.4868 -0.9641
   62SAPC  H14C 4856   0.745   4.524  11.114  1.3664 -1.4548  0.7881
   62SAPC   C15 4857   0.744   4.777  11.060  0.0008 -0.1946  0.0358
   62SAPC  H15A 4858   0.673   4.745  11.135  0.5557 -1.8072 -0.1003
   62SAPC  H15B 4859   0.835   4.796  11.115 -0.3468  3.3130 -0.4613
   62SAPC  H15C 4860   0.716   4.874  11.020 -0.5638 -0.5045 -0.3248
   62SAPC   C11 4861   0.824   4.835  10.752  0.1870 -0.2214 -0.0186
   62SAPC  H11A 4862   0.726   4.812  10.704 -0.5132 -0.7611  1.6254
   62SAPC  H11B 4863   0.895   4.829  10.667  2.2099 -0.6374  1.6532
   62SAPC     P 4864   0.836   5.097  10.740 -0.0121 -0.3047  0.2993
   62SAPC   O13 4865   0.701   5.118  10.689 -0.0166  0.2440  0.2751
   62SAPC   O14 4866   0.889   5.205  10.823 -0.1219  0.0056 -0.1873
   62SAPC   O12 4867   0.851   4.957  10.822  0.4461  0.0620  0.5153
   62SAPC   O11 4868   0.930   5.081  10.615 -0.7458 -0.0085 -0.0172
   62SAPC    C1 4869   1.075   5.070  10.641 -0.6103 -0.5329 -0.0741
   62SAPC    HA 4870   1.113   5.146  10.713  0.1984  0.2991 -1.3647
   62SAPC    HB 4871   1.079   4.966  10.679 -1.0001 -0.5246 -0.0068
   62SAPC    C2 4872   1.158   5.074  10.512 -0.1550  0.1597 -0.8989
   62SAPC    HS 4873   1.266   5.073  10.538 -0.1275 -1.4236 -1.0390
   62SAPC   O21 4874   1.121   5.199  10.446 -0.0675 -0.0025  0.0465
   62SAPC   C21 4875   1.183   5.309  10.488  0.1591  0.3057  0.1345
   62SAPC   O22 4876   1.282   5.312  10.559  0.1866  0.2901  0.0965
   62SAPC   C22 4877   1.101   5.436  10.439 -1.3891 -0.0292 -0.2476
   62SAPC   H2R 4878   1.004   5.395  10.404 -2.0154  1.0047  0.2499
   62SAPC   H2S 4879   1.077   5.503  10.524 -1.2636  0.9896 -1.0061
   62SAPC    C3 4880   1.139   4.947  10.418 -0.1708 -0.5172  0.3008
   62SAPC    HX 4881   1.030   4.951  10.396 -0.2072  0.3151  0.6286
   62SAPC    HY 4882   1.154   4.850  10.469 -1.7228  0.1429  2.0528
   62SAPC   O31 4883   1.216   4.955  10.298 -0.4133  0.1000  0.1458
   62SAPC   C31 4884   1.150   5.001  10.194  0.2131  0.1468  0.0455
   62SAPC   O32 4885   1.035   5.050  10.189 -0.1843 -0.2292 -0.0356
   62SAPC   C32 4886   1.251   4.996  10.077 -0.1612  0.4812  0.6241
   62SAPC   H2X 4887   1.319   4.911  10.099 -2.0060 -1.1815  0.0203
   62SAPC   H2Y 4888   1.318   5.085  10.077 -1.6803  1.6669 -0.5515
   62SAPC   C23 4889   1.184   5.518  10.340 -1.0867  0.3476 -0.0520
   62SAPC   H3R 4890   1.284   5.551  10.375 -0.8035 -1.7379  1.1836
   62SAPC   H3S 4891   1.136   5.618  10.328  0.4281  1.0469 -0.3992
   62SAPC   C24 4892   1.214   5.441  10.205  0.5028  0.5773 -1.1882
   62SAPC   H4R 4893   1.292   5.366  10.229 -0.4465 -0.0111  0.1344
   62SAPC   H4S 4894   1.252   5.510  10.127 -1.2419  0.0272 -2.5570
   62SAPC   C25 4895   1.098   5.368  10.142 -0.1932  0.0891 -0.0071
   62SAPC   H5R 4896   1.055   5.294  10.212  1.1400  0.1749  0.9143
   62SAPC   C26 4897   1.038   5.368  10.022 -0.9549  1.1232 -0.2802
   62SAPC   H6R 4898   0.936   5.327  10.016 -0.3224 -0.5902  0.5030
   62SAPC   C27 4899   1.078   5.451   9.901 -0.0112 -0.2027 -1.0413
   62SAPC   H7R 4900   1.136   5.376   9.842  1.8975 -0.5592  1.2153
   62SAPC   H7S 4901   1.155   5.525   9.932 -0.1707 -0.0811 -0.9364
   62SAPC   C28 4902   0.952   5.515   9.832 -0.7302  0.3658  0.1682
   62SAPC   H8R 4903   0.930   5.615   9.871  0.1096  0.0897  1.3869
   62SAPC   C29 4904   0.881   5.457   9.733 -0.2166 -0.0170  0.2670
   62SAPC   H9R 4905   0.786   5.500   9.698 -0.2803 -0.8968 -0.6480
   62SAPC  C210 4906   0.901   5.320   9.677  0.1055  0.2282  0.5113
   62SAPC  H10R 4907   0.856   5.252   9.753  1.3289 -0.3751  0.7227
   62SAPC  H10S 4908   1.009   5.295   9.668 -0.3968 -1.4770 -1.0590
   62SAPC  C211 4909   0.832   5.296   9.547 -0.3195  1.0458  0.4227
   62SAPC  H11R 4910   0.742   5.234   9.539  1.6682 -1.6102 -2.5619
   62SAPC  C212 4911   0.870   5.353   9.428 -0.1208 -0.0360  0.3916
   62SAPC  H12R 4912   0.808   5.329   9.341  0.8799 -2.0146  0.1914
   62SAPC  C213 4913   0.987   5.452   9.401 -0.1639 -0.2052  0.5100
   62SAPC  H13R 4914   0.968   5.532   9.477  1.3093  1.1501 -0.5141
   62SAPC  H13S 4915   0.965   5.502   9.305  0.8119  2.7406  1.7602
   62SAPC  C214 4916   1.134   5.406   9.403 -0.4781 -0.4743  0.4366
   62SAPC  H14R 4917   1.168   5.388   9.506  1.4250 -1.3101 -0.3188
   62SAPC  C215 4918   1.211   5.380   9.292  0.2997  0.1222  0.1794
   62SAPC  H15R 4919   1.313   5.343   9.306  1.1955  1.7031 -1.8662
   62SAPC  C216 4920   1.174   5.392   9.146  0.7931  0.1178  0.0032
   62SAPC  H16R 4921   1.100   5.473   9.130 -2.0238 -2.4412 -0.2061
   62SAPC  H16S 4922   1.140   5.288   9.129  1.4721 -0.3187  1.2363
   62SAPC  C217 4923   1.298   5.431   9.059  0.6093  0.0678  0.3866
   62SAPC  H17R 4924   1.370   5.348   9.045  0.0990 -0.3334  0.1464
   62SAPC  H17S 4925   1.351   5.522   9.096  0.3612  0.0109  0.8782
   62SAPC  C218 4926   1.253   5.479   8.916 -0.2681 -0.1610 -0.5599
   62SAPC  H18R 4927   1.171   5.552   8.929  0.5672  0.6490  0.2909
   62SAPC  H18S 4928   1.207   5.390   8.868 -2.4523 -0.7711  2.5013
   62SAPC  C219 4929   1.375   5.531   8.841  0.3844 -0.1359 -0.0101
   62SAPC  H19R 4930   1.424   5.615   8.894 -1.6271  1.6769 -0.8764
   62SAPC  H19S 4931   1.329   5.581   8.752  2.2841  1.9759  0.1351
   62SAPC  C220 4932   1.472   5.419   8.808 -0.2183 -0.3896 -0.5120
   62SAPC  H20R 4933   1.522   5.388   8.902  0.6012 -0.6556 -1.0300
   62SAPC  H20S 4934   1.552   5.457   8.740 -0.3235  0.5299 -0.1317
   62SAPC  H20T 4935   1.427   5.332   8.755  0.5747 -1.7717  1.0649
   62SAPC   C33 4936   1.196   4.979   9.931  0.2335 -0.0213  0.2883
   62SAPC   H3X 4937   1.109   5.043   9.907  0.8328  1.2048  1.3289
   62SAPC   H3Y 4938   1.158   4.876   9.915  1.8818 -0.5638 -0.2761
   62SAPC   C34 4939   1.300   5.005   9.820 -0.1005  0.0988  0.1250
   62SAPC   H4X 4940   1.393   4.945   9.830  0.1081  0.1836 -1.2404
   62SAPC   H4Y 4941   1.321   5.114   9.817 -0.0298  0.0650 -0.5571
   62SAPC   C35 4942   1.243   4.970   9.681 -0.1018  0.0286 -0.5320
   62SAPC   H5X 4943   1.157   5.040   9.673 -0.3593 -0.1406  0.7111
   62SAPC   H5Y 4944   1.223   4.862   9.695  2.1751 -0.3303  0.2306
   62SAPC   C36 4945   1.331   4.997   9.557  0.5100  0.4029 -1.0504
   62SAPC   H6X 4946   1.425   4.937   9.553  1.0395  1.1648 -0.2220
   62SAPC   H6Y 4947   1.359   5.103   9.574  0.6838  0.4697 -1.7175
   62SAPC   C37 4948   1.241   4.984   9.429 -0.0241  0.3671  0.4943
   62SAPC   H7X 4949   1.195   5.084   9.410 -2.4309 -0.5739  1.1740
   62SAPC   H7Y 4950   1.159   4.911   9.443 -1.3535  1.2591 -2.2336
   62SAPC   C38 4951   1.321   4.954   9.302 -0.6767 -0.3743  0.7131
   62SAPC   H8X 4952   1.335   4.844   9.306 -1.1754 -0.4419  0.5680
   62SAPC   H8Y 4953   1.420   5.003   9.316 -0.6009 -0.3862  0.2448
   62SAPC   C39 4954   1.248   5.001   9.180  0.2122 -0.8694 -0.3772
   62SAPC   H9X 4955   1.237   5.111   9.189 -2.4823 -1.1038 -0.3429
   62SAPC   H9Y 4956   1.145   4.961   9.177 -0.3317  0.5885 -2.1722
   62SAPC  C310 4957   1.319   4.950   9.059 -0.1320 -0.5946 -0.2224
   62SAPC  H10X 4958   1.243   4.926   8.982  0.2084 -1.4691 -0.2862
   62SAPC  H10Y 4959   1.359   4.849   9.080 -0.1033 -0.5973 -0.2913
   62SAPC  C311 4960   1.424   5.057   9.010  0.8862 -0.6550  0.6105
   62SAPC  H11X 4961   1.461   5.121   9.093  0.8088 -0.4642  0.4971
   62SAPC  H11Y 4962   1.362   5.129   8.953 -4.1072 -3.7016  1.8519
   62SAPC  C312 4963   1.541   4.995   8.932  0.4999  0.5931 -0.0002
   62SAPC  H12X 4964   1.605   4.928   8.993 -0.9229 -0.8257 -0.0419
   62SAPC  H12Y 4965   1.614   5.073   8.899  0.5420  0.6383  0.1951
   62SAPC  C313 4966   1.504   4.901   8.815 -0.0077  0.1860 -0.0135
   62SAPC  H13X 4967   1.454   4.816   8.868  0.6988 -1.0800 -1.3422
   62SAPC  H13Y 4968   1.589   4.868   8.752 -0.7647 -0.0405 -0.9242
   62SAPC  C314 4969   1.393   4.966   8.722  0.3235 -0.0627 -0.0504
   62SAPC  H14X 4970   1.431   5.027   8.637  2.2986  1.3157  1.7659
   62SAPC  H14Y 4971   1.331   5.031   8.787  0.0480 -1.3591  0.9972
   62SAPC  C315 4972   1.294   4.863   8.674 -0.4085 -0.4825  0.6649
   62SAPC  H15X 4973   1.199   4.910   8.640 -0.7969 -1.1120  0.8684
   62SAPC  H15Y 4974   1.253   4.787   8.744 -2.9364 -1.2024 -1.4856
   62SAPC  C316 4975   1.347   4.792   8.544  0.2289 -0.5361 -0.1185
   62SAPC  H16X 4976   1.447   4.746   8.558  1.4896  1.8819 -0.8658
   62SAPC  H16Y 4977   1.356   4.867   8.462  1.8169 -0.5716  0.0013
   62SAPC  C317 4978   1.245   4.691   8.514 -0.3090  0.2560  0.4520
   62SAPC  H17X 4979   1.142   4.721   8.484 -0.2769 -0.1601 -0.0748
   62SAPC  H17Y 4980   1.236   4.633   8.608  2.6976  1.2407  1.4011
   62SAPC  C318 4981   1.284   4.587   8.401  0.0724 -0.2975  0.2517
   62SAPC  H18X 4982   1.388   4.551   8.413  0.3514  0.5127  0.2942
   62SAPC  H18Y 4983   1.288   4.639   8.303  0.1070  1.3015  1.0810
   62SAPC  H18Z 4984   1.204   4.510   8.393 -0.2846  0.2126 -1.1894
   63SAPC     N 4985   4.653   4.193   6.094  0.2329  0.4834  0.3773
   63SAPC   C12 4986   4.541   4.095   6.081  0.4348 -0.1326 -0.2745
   63SAPC  H12A 4987   4.546   4.065   5.977  1.1973  0.4946 -0.4260
   63SAPC  H12B 4988   4.448   4.147   6.094  1.6158  1.6782  1.2054
   63SAPC   C13 4989   4.669   4.240   6.231  0.1087  0.0064  0.2667
   63SAPC  H13A 4990   4.590   4.303   6.270  0.7871 -0.2183  2.0367
   63SAPC  H13B 4991   4.684   4.153   6.292 -0.0542  0.9353  1.6502
   63SAPC  H13C 4992   4.756   4.303   6.238  1.1514 -1.4794  0.7379
   63SAPC   C14 4993   4.786   4.134   6.052  0.3398 -0.1060  0.0636
   63SAPC  H14A 4994   4.856   4.204   6.096 -1.6898  2.8195 -1.2044
   63SAPC  H14B 4995   4.789   4.039   6.103  1.6056  0.9085  1.9705
   63SAPC  H14C 4996   4.799   4.119   5.946 -1.3531 -1.3381  0.0206
   63SAPC   C15 4997   4.619   4.319   6.011 -0.6487 -0.1294 -0.4897
   63SAPC  H15A 4998   4.695   4.394   6.025 -0.8034  0.1028 -0.8708
   63SAPC  H15B 4999   4.615   4.303   5.904 -0.2188 -2.8091 -0.1221
   63SAPC  H15C 5000   4.526   4.366   6.042 -0.1029  0.1888  0.6599
   63SAPC   C11 5001   4.540   3.982   6.180  0.5124 -0.8905  0.1420
   63SAPC  H11A 5002   4.448   3.920   6.167  0.0227 -0.1483 -0.0064
   63SAPC  H11B 5003   4.525   4.014   6.285 -0.3303  0.8161 -0.4758
   63SAPC     P 5004   4.694   3.809   6.298  0.0390 -0.0570  0.2171
   63SAPC   O13 5005   4.587   3.748   6.383  0.7379  0.2149  0.1872
   63SAPC   O14 5006   4.812   3.717   6.268 -0.2987 -0.4313  0.2106
   63SAPC   O12 5007   4.642   3.883   6.170 -0.2402 -0.2523 -0.6717
   63SAPC   O11 5008   4.756   3.930   6.389 -0.0564 -0.2234  0.9742
   63SAPC    C1 5009   4.896   3.955   6.385 -0.2448 -0.1677  0.1859
   63SAPC    HA 5010   4.948   3.919   6.294  1.4004  2.5695 -0.0034
   63SAPC    HB 5011   4.921   4.063   6.394 -3.5375  0.6263  0.5159
   63SAPC    C2 5012   4.960   3.874   6.503  0.3679  0.5418  0.3695
   63SAPC    HS 5013   4.947   3.767   6.479 -0.9796  0.7337  0.2547
   63SAPC   O21 5014   4.893   3.905   6.624  0.7685 -0.2775 -0.0096
   63SAPC   C21 5015   4.857   3.807   6.702 -0.2471 -0.3946 -0.4355
   63SAPC   O22 5016   4.881   3.689   6.688 -0.5928  0.3637  0.3479
   63SAPC   C22 5017   4.777   3.860   6.832 -0.6356  0.3921 -0.4253
   63SAPC   H2R 5018   4.669   3.854   6.809 -0.4430 -2.3884 -0.7806
   63SAPC   H2S 5019   4.799   3.791   6.915  2.7235  0.8168 -0.8837
   63SAPC    C3 5020   5.113   3.907   6.507 -0.5692 -0.1076 -0.2502
   63SAPC    HX 5021   5.181   3.871   6.426 -1.2929 -1.4337 -0.2849
   63SAPC    HY 5022   5.153   3.841   6.587 -1.3763  0.7972  0.9001
   63SAPC   O31 5023   5.138   4.051   6.542 -0.0300  0.1398  0.5093
   63SAPC   C31 5024   5.155   4.085   6.667 -0.5218 -1.1650 -0.2440
   63SAPC   O32 5025   5.190   4.007   6.754  0.0596 -0.3734  0.3093
   63SAPC   C32 5026   5.130   4.233   6.693  0.1860 -0.5609 -0.1934
   63SAPC   H2X 5027   5.051   4.257   6.768  1.2682 -0.3407  0.8981
   63SAPC   H2Y 5028   5.093   4.274   6.597 -1.5625 -0.5107  0.4944
   63SAPC   C23 5029   4.824   3.996   6.875  0.0676 -0.2522 -0.7654
   63SAPC   H3R 5030   4.798   4.076   6.802  2.1985  1.4785  0.2826
   63SAPC   H3S 5031   4.934   3.999   6.893 -0.5558  2.7472  3.3754
   63SAPC   C24 5032   4.752   4.030   7.003 -0.2578  0.0183  0.4484
   63SAPC   H4R 5033   4.757   3.947   7.077  0.7495  1.6448  2.2308
   63SAPC   H4S 5034   4.646   4.052   6.979 -0.9604 -2.3344  1.2639
   63SAPC   C25 5035   4.810   4.147   7.072 -0.1573  0.2137  0.9243
   63SAPC   H5R 5036   4.754   4.238   7.047  2.4876  1.4473 -0.7774
   63SAPC   C26 5037   4.899   4.159   7.169 -0.5074  0.0537  0.5555
   63SAPC   H6R 5038   4.924   4.258   7.211  1.4608  0.7595 -2.1405
   63SAPC   C27 5039   4.971   4.055   7.246  0.7550  0.1374  0.1754
   63SAPC   H7R 5040   5.059   4.101   7.296  0.6082  1.8045 -1.0463
   63SAPC   H7S 5041   4.998   3.975   7.174  1.0412  1.4084 -1.1466
   63SAPC   C28 5042   4.872   3.994   7.340 -0.3583  0.5871  0.4742
   63SAPC   H8R 5043   4.815   3.911   7.297  0.8991  0.1153 -0.3156
   63SAPC   C29 5044   4.858   4.034   7.468 -0.3550  0.4637  0.3037
   63SAPC   H9R 5045   4.779   3.981   7.523  0.4741 -1.2791 -0.1472
   63SAPC  C210 5046   4.937   4.146   7.548  0.6786  0.5768  0.6114
   63SAPC  H10R 5047   4.967   4.224   7.474 -0.7000 -0.1935 -0.7931
   63SAPC  H10S 5048   5.034   4.105   7.585  1.2660 -0.0338 -1.5135
   63SAPC  C211 5049   4.859   4.206   7.662  0.1436  0.4143  0.3073
   63SAPC  H11R 5050   4.817   4.306   7.644 -0.2349  0.3260  0.6928
   63SAPC  C212 5051   4.827   4.138   7.772 -0.1986  0.5827  1.2221
   63SAPC  H12R 5052   4.772   4.199   7.845  1.1254 -0.3170  3.0177
   63SAPC  C213 5053   4.856   3.995   7.814 -0.4033 -0.0865 -0.2631
   63SAPC  H13R 5054   4.965   3.987   7.836 -0.9569  1.4962  3.3126
   63SAPC  H13S 5055   4.833   3.929   7.727  0.0854  0.8366 -1.1061
   63SAPC  C214 5056   4.762   3.951   7.921  0.2821  0.1588 -0.0230
   63SAPC  H14R 5057   4.669   3.902   7.889  1.3330 -0.8233 -1.6294
   63SAPC  C215 5058   4.794   3.963   8.050  0.2568 -0.5498 -0.1092
   63SAPC  H15R 5059   4.717   3.935   8.123 -3.0993  1.8914 -2.5792
   63SAPC  C216 5060   4.904   4.039   8.116  0.4841  0.3106 -0.0856
   63SAPC  H16R 5061   4.861   4.117   8.183  0.1137  0.9498 -1.0687
   63SAPC  H16S 5062   4.972   4.097   8.051  0.2939  0.0054 -0.5539
   63SAPC  C217 5063   4.973   3.942   8.208  0.5257 -0.3840 -0.6299
   63SAPC  H17R 5064   5.020   3.861   8.149  0.7521  0.1938 -1.2552
   63SAPC  H17S 5065   4.902   3.902   8.283 -0.0742 -1.3063 -1.6859
   63SAPC  C218 5066   5.069   4.017   8.298  0.4743 -0.0253 -0.3486
   63SAPC  H18R 5067   5.012   4.095   8.353  0.9257  0.1765 -0.1607
   63SAPC  H18S 5068   5.152   4.059   8.237 -1.0163  0.0916 -2.3222
   63SAPC  C219 5069   5.124   3.930   8.407 -0.1814 -0.4629  0.1171
   63SAPC  H19R 5070   5.044   3.880   8.465 -1.3917  1.3615  0.0504
   63SAPC  H19S 5071   5.185   3.993   8.475 -1.6278 -0.3286  1.3108
   63SAPC  C220 5072   5.226   3.818   8.354 -0.2550  0.0632 -1.1479
   63SAPC  H20R 5073   5.202   3.760   8.262  0.3597  0.3223 -1.4768
   63SAPC  H20S 5074   5.246   3.745   8.435  2.7000  2.2359  0.2131
   63SAPC  H20T 5075   5.322   3.872   8.335 -0.5146  1.0281  0.1639
   63SAPC   C33 5076   5.262   4.294   6.737 -0.1992 -0.2043 -0.2096
   63SAPC   H3X 5077   5.251   4.404   6.727 -0.3788 -0.0685  1.3834
   63SAPC   H3Y 5078   5.347   4.273   6.670 -0.5682  2.2248 -1.5192
   63SAPC   C34 5079   5.300   4.262   6.883  0.2188  0.8218  0.0403
   63SAPC   H4X 5080   5.401   4.308   6.891 -0.2923  2.0163 -0.2158
   63SAPC   H4Y 5081   5.311   4.155   6.912  2.2237  1.0547  0.1779
   63SAPC   C35 5082   5.217   4.336   6.985  0.1431 -0.4899 -0.0493
   63SAPC   H5X 5083   5.109   4.314   6.993  0.0226 -0.0028 -0.2816
   63SAPC   H5Y 5084   5.220   4.446   6.969  2.1675 -0.5974 -0.6243
   63SAPC   C36 5085   5.283   4.308   7.118  0.1395 -0.3890  0.1034
   63SAPC   H6X 5086   5.393   4.319   7.105  0.1477 -1.9592 -1.4464
   63SAPC   H6Y 5087   5.263   4.203   7.148  2.2667 -0.7823  0.2361
   63SAPC   C37 5088   5.225   4.404   7.218  0.6692 -0.3604  0.1010
   63SAPC   H7X 5089   5.115   4.392   7.205  0.6995  0.0370 -0.5726
   63SAPC   H7Y 5090   5.258   4.504   7.182  1.8051 -0.4530  0.8779
   63SAPC   C38 5091   5.261   4.365   7.362  0.4869 -0.0882  0.0431
   63SAPC   H8X 5092   5.372   4.367   7.370  0.6132  0.3944 -1.6291
   63SAPC   H8Y 5093   5.222   4.264   7.384  1.7030 -1.3378 -3.1692
   63SAPC   C39 5094   5.209   4.456   7.466 -0.5914  0.2494 -0.4987
   63SAPC   H9X 5095   5.099   4.457   7.449 -0.9364 -1.5419  1.3223
   63SAPC   H9Y 5096   5.248   4.559   7.452  0.3026 -0.0083  0.0276
   63SAPC  C310 5097   5.226   4.399   7.608 -0.6552  0.3997  0.4398
   63SAPC  H10X 5098   5.331   4.410   7.642 -0.6110 -2.6341  1.4659
   63SAPC  H10Y 5099   5.206   4.290   7.612  0.4833  0.1427 -0.4016
   63SAPC  C311 5100   5.134   4.475   7.712  0.7445 -0.7736  0.1128
   63SAPC  H11X 5101   5.031   4.497   7.675  1.8450  1.1014 -1.8908
   63SAPC  H11Y 5102   5.185   4.571   7.731 -1.3110 -0.0560  2.2141
   63SAPC  C312 5103   5.120   4.414   7.849  0.3241  1.0282 -0.3896
   63SAPC  H12X 5104   5.221   4.399   7.893  0.4816  0.6653 -0.8764
   63SAPC  H12Y 5105   5.072   4.314   7.853  1.4897  0.3416 -2.7493
   63SAPC  C313 5106   5.053   4.502   7.960 -0.0450 -0.0350  0.3283
   63SAPC  H13X 5107   4.954   4.532   7.918  0.8269 -1.4752 -2.9432
   63SAPC  H13Y 5108   5.107   4.597   7.974 -0.5020  0.1179  1.0824
   63SAPC  C314 5109   5.031   4.430   8.096  0.4036  0.2635  0.4452
   63SAPC  H14X 5110   5.135   4.403   8.124  0.3727 -1.5192 -1.0170
   63SAPC  H14Y 5111   4.965   4.341   8.086  0.9633 -0.0672 -0.3749
   63SAPC  C315 5112   4.962   4.524   8.199  0.4408  0.3045  0.2929
   63SAPC  H15X 5113   4.983   4.469   8.293 -0.2246 -2.5254 -1.1730
   63SAPC  H15Y 5114   4.852   4.528   8.184  0.6061 -0.8972 -1.2745
   63SAPC  C316 5115   5.030   4.663   8.205  0.4793 -0.0407 -0.2876
   63SAPC  H16X 5116   4.994   4.726   8.122 -1.0136  0.2383  0.5500
   63SAPC  H16Y 5117   5.139   4.638   8.199  0.0692 -1.8645 -0.5913
   63SAPC  C317 5118   5.013   4.734   8.340 -0.2752 -0.4366 -0.3378
   63SAPC  H17X 5119   5.076   4.684   8.416  1.2763  0.0104 -1.3208
   63SAPC  H17Y 5120   4.906   4.733   8.370 -0.2672  0.6976 -0.2560
   63SAPC  C318 5121   5.056   4.877   8.346  0.0733 -0.0796 -0.0546
   63SAPC  H18X 5122   5.003   4.930   8.429 -0.5179 -3.1508  1.6022
   63SAPC  H18Y 5123   5.026   4.919   8.248  1.3738 -0.7299 -0.7365
   63SAPC  H18Z 5124   5.164   4.892   8.366 -0.3187 -0.9583  2.9666
   64SAPC     N 5125   0.121   4.472   5.617  0.3745 -0.1293  0.2548
   64SAPC   C12 5126   0.158   4.526   5.748  0.8933  0.5737 -0.6441
   64SAPC  H12A 5127   0.114   4.624   5.760  0.9166  0.5039  0.0191
   64SAPC  H12B 5128   0.265   4.543   5.745  1.1878 -0.6218  1.9234
   64SAPC   C13 5129   0.175   4.338   5.598  0.0535 -0.6151 -0.5610
   64SAPC  H13A 5130   0.132   4.280   5.678 -0.8298 -0.4566 -0.9102
   64SAPC  H13B 5131   0.152   4.303   5.499  1.7730 -2.7848 -0.2080
   64SAPC  H13C 5132   0.283   4.340   5.603 -0.0072 -0.3447  0.8994
   64SAPC   C14 5133  -0.034   4.472   5.612  0.0678 -0.3703  0.1515
   64SAPC  H14A 5134  -0.060   4.435   5.514 -1.1822 -1.6117  0.9372
   64SAPC  H14B 5135  -0.067   4.403   5.688  0.5449 -2.4608 -1.4682
   64SAPC  H14C 5136  -0.072   4.572   5.622 -3.3429 -1.5695 -0.3178
   64SAPC   C15 5137   0.181   4.559   5.514 -0.0120  1.0797  0.3873
   64SAPC  H15A 5138   0.146   4.539   5.414 -0.3402 -0.0952  0.7335
   64SAPC  H15B 5139   0.169   4.664   5.537 -1.0125  0.8242  1.0486
   64SAPC  H15C 5140   0.287   4.546   5.496  0.2714  2.4644  1.0318
   64SAPC   C11 5141   0.125   4.459   5.883 -0.0502 -0.0380 -0.0062
   64SAPC  H11A 5142   0.014   4.448   5.891 -0.2068  1.0085 -0.7163
   64SAPC  H11B 5143   0.165   4.537   5.950 -0.0058  0.1391 -0.2393
   64SAPC     P 5144   0.168   4.240   6.013  0.0693 -0.1064  0.4048
   64SAPC   O13 5145   0.041   4.166   5.991 -0.1816 -0.0541 -0.5364
   64SAPC   O14 5146   0.288   4.159   6.012 -0.2516 -0.1851 -0.4096
   64SAPC   O12 5147   0.196   4.339   5.904  0.4619 -0.1171  0.1621
   64SAPC   O11 5148   0.162   4.322   6.159 -0.0482 -0.3605  0.0518
   64SAPC    C1 5149   0.268   4.408   6.197  0.1107 -0.3170  1.1404
   64SAPC    HA 5150   0.369   4.370   6.172 -0.6897 -1.0926 -1.0333
   64SAPC    HB 5151   0.270   4.507   6.145  2.0615 -1.4940 -1.1295
   64SAPC    C2 5152   0.267   4.432   6.347  0.2832 -0.5267 -0.1946
   64SAPC    HS 5153   0.360   4.478   6.388 -0.9283  1.5413  0.3273
   64SAPC   O21 5154   0.249   4.306   6.414 -0.2423 -0.4169  0.5635
   64SAPC   C21 5155   0.351   4.224   6.413  0.5901 -0.2391  0.0803
   64SAPC   O22 5156   0.450   4.232   6.342  0.1799  0.1619  0.5921
   64SAPC   C22 5157   0.327   4.117   6.516  1.0296 -0.9621 -0.3412
   64SAPC   H2R 5158   0.245   4.054   6.475  0.3043 -1.1979  1.4322
   64SAPC   H2S 5159   0.423   4.062   6.525  2.3313  1.5582  1.8754
   64SAPC    C3 5160   0.146   4.527   6.390 -0.0349  0.0489 -0.1973
   64SAPC    HX 5161   0.051   4.474   6.366  0.3614  0.0775 -1.9505
   64SAPC    HY 5162   0.158   4.616   6.324  0.7382 -0.2152 -0.4239
   64SAPC   O31 5163   0.147   4.580   6.522  0.3890 -0.0668 -0.3137
   64SAPC   C31 5164   0.053   4.674   6.551 -0.6802 -0.1658  0.2237
   64SAPC   O32 5165  -0.036   4.713   6.476 -0.0948  0.0578  0.3940
   64SAPC   C32 5166   0.082   4.731   6.691 -0.1576  0.6410 -0.0519
   64SAPC   H2X 5167  -0.012   4.781   6.724  0.2675  0.4965  1.4103
   64SAPC   H2Y 5168   0.157   4.813   6.696 -0.0950  0.7346 -2.3939
   64SAPC   C23 5169   0.293   4.167   6.663 -0.0243  0.1475 -0.1896
   64SAPC   H3R 5170   0.248   4.077   6.710  0.5534 -1.0244 -1.8371
   64SAPC   H3S 5171   0.209   4.239   6.664  0.3247  0.5578 -0.0823
   64SAPC   C24 5172   0.403   4.226   6.746 -0.6781  0.4117 -0.1367
   64SAPC   H4R 5173   0.355   4.269   6.837 -1.3727  0.0097 -0.3149
   64SAPC   H4S 5174   0.448   4.308   6.685  0.4132 -1.2279 -1.5813
   64SAPC   C25 5175   0.525   4.142   6.779  0.3234 -0.5638  0.8719
   64SAPC   H5R 5176   0.585   4.137   6.687 -2.0393 -1.4011 -0.6705
   64SAPC   C26 5177   0.543   4.059   6.884 -0.3930 -0.7895 -0.0300
   64SAPC   H6R 5178   0.645   4.019   6.888  0.5500  1.3645 -1.7492
   64SAPC   C27 5179   0.448   4.045   6.999 -0.1858 -0.2163  0.3316
   64SAPC   H7R 5180   0.345   4.022   6.963 -0.1643 -0.8513  0.6697
   64SAPC   H7S 5181   0.426   4.144   7.044  0.4539  1.0286 -1.9928
   64SAPC   C28 5182   0.492   3.934   7.095  0.3519 -0.1108 -0.2838
   64SAPC   H8R 5183   0.523   3.839   7.050 -0.8242 -0.1400 -1.0358
   64SAPC   C29 5184   0.483   3.941   7.229 -0.1358  0.1177  0.0008
   64SAPC   H9R 5185   0.494   3.846   7.285 -1.4664 -0.7775 -1.2148
   64SAPC  C210 5186   0.423   4.060   7.302  0.4617  0.7774  0.4362
   64SAPC  H10R 5187   0.384   4.141   7.236 -3.1011 -1.2874 -0.1175
   64SAPC  H10S 5188   0.511   4.101   7.356  0.1863 -0.7721  2.0840
   64SAPC  C211 5189   0.309   4.028   7.397 -0.1254  0.3770  0.0443
   64SAPC  H11R 5190   0.212   4.009   7.350 -0.3727 -0.1037  0.7436
   64SAPC  C212 5191   0.323   4.012   7.525  0.5704  0.5212 -0.3445
   64SAPC  H12R 5192   0.228   4.006   7.581  0.5389  0.6987 -0.3783
   64SAPC  C213 5193   0.446   4.023   7.611  0.6543 -1.0106  0.4554
   64SAPC  H13R 5194   0.529   4.060   7.549 -1.6559 -1.5895 -3.1212
   64SAPC  H13S 5195   0.481   3.924   7.645 -2.1507 -1.7131  1.4911
   64SAPC  C214 5196   0.419   4.128   7.722 -1.0352  0.9579  0.4647
   64SAPC  H14R 5197   0.366   4.217   7.686  0.0409  0.9497 -1.1895
   64SAPC  C215 5198   0.447   4.117   7.856  0.0598  0.5117 -0.3613
   64SAPC  H15R 5199   0.428   4.207   7.917 -1.1300  0.3095 -0.4215
   64SAPC  C216 5200   0.524   4.007   7.922 -0.0450  0.3412  0.5379
   64SAPC  H16R 5201   0.632   4.032   7.924  0.0884 -0.0214 -1.4801
   64SAPC  H16S 5202   0.510   3.911   7.867  0.3630  1.5790 -1.7723
   64SAPC  C217 5203   0.485   4.004   8.065 -0.4778  0.0178 -0.2099
   64SAPC  H17R 5204   0.520   3.911   8.115 -1.7137  0.1927  1.0201
   64SAPC  H17S 5205   0.374   4.005   8.074 -0.3725  1.8141  1.2405
   64SAPC  C218 5206   0.545   4.118   8.157 -0.0553 -0.1384  0.4794
   64SAPC  H18R 5207   0.525   4.221   8.120 -0.1280 -0.5018 -0.5103
   64SAPC  H18S 5208   0.656   4.121   8.153 -0.0077 -0.8831  1.1566
   64SAPC  C219 5209   0.503   4.118   8.306  0.5090 -0.4252 -0.5450
   64SAPC  H19R 5210   0.503   4.014   8.346  2.2079 -1.0788 -2.1805
   64SAPC  H19S 5211   0.397   4.152   8.309  1.1872  2.0531 -2.7603
   64SAPC  C220 5212   0.581   4.207   8.394  0.4710  0.3504  0.6236
   64SAPC  H20R 5213   0.558   4.186   8.501  0.7399  3.4352  1.3176
   64SAPC  H20S 5214   0.554   4.315   8.388 -1.3874  0.0560  2.7579
   64SAPC  H20T 5215   0.690   4.197   8.376  1.0597  3.9435  1.7810
   64SAPC   C33 5216   0.119   4.619   6.796  0.1246 -0.3008  0.6513
   64SAPC   H3X 5217   0.217   4.586   6.756 -0.2928  1.1958 -1.7368
   64SAPC   H3Y 5218   0.045   4.536   6.788  0.9563 -0.8537 -1.6754
   64SAPC   C34 5219   0.130   4.654   6.954  0.4005 -0.9122  0.2141
   64SAPC   H4X 5220   0.044   4.718   6.982  2.1711  0.9433  1.5412
   64SAPC   H4Y 5221   0.220   4.714   6.979 -1.5606  1.6955  1.2872
   64SAPC   C35 5222   0.139   4.522   7.030 -0.0325  0.1001 -0.0508
   64SAPC   H5X 5223   0.229   4.463   7.002 -0.4536 -2.1831  3.0821
   64SAPC   H5Y 5224   0.041   4.472   7.013 -0.3641  0.4360  0.8643
   64SAPC   C36 5225   0.168   4.543   7.180  1.0078  0.1916  0.1193
   64SAPC   H6X 5226   0.099   4.619   7.222  0.3277 -1.5648  2.2803
   64SAPC   H6Y 5227   0.272   4.581   7.190  0.6779  0.6467  1.8684
   64SAPC   C37 5228   0.164   4.411   7.263  0.1940  0.3334 -0.1178
   64SAPC   H7X 5229   0.246   4.351   7.219  0.6170 -0.1665  1.2994
   64SAPC   H7Y 5230   0.070   4.354   7.247  0.8421 -0.2551 -1.9158
   64SAPC   C38 5231   0.186   4.427   7.415  0.2868 -0.4218 -0.3881
   64SAPC   H8X 5232   0.293   4.457   7.416  0.6097 -1.3955 -3.1803
   64SAPC   H8Y 5233   0.184   4.325   7.458 -0.7417 -0.5909 -0.8168
   64SAPC   C39 5234   0.104   4.533   7.488 -0.1654 -0.3123 -0.0175
   64SAPC   H9X 5235  -0.005   4.516   7.503 -0.0890  1.9953  3.5183
   64SAPC   H9Y 5236   0.122   4.627   7.432 -1.0428  0.2296  0.6082
   64SAPC  C310 5237   0.166   4.560   7.628 -0.1443  0.1611  0.7097
   64SAPC  H10X 5238   0.116   4.647   7.676 -0.6086  1.0017 -1.2294
   64SAPC  H10Y 5239   0.275   4.579   7.622 -0.1151  0.2073  1.3506
   64SAPC  C311 5240   0.150   4.435   7.718  0.5609 -0.5313 -0.5227
   64SAPC  H11X 5241   0.228   4.358   7.699 -0.3238 -1.3417 -0.8833
   64SAPC  H11Y 5242   0.051   4.395   7.690  0.3699 -0.4196 -0.0161
   64SAPC  C312 5243   0.137   4.477   7.867 -0.3350  0.2797  0.8504
   64SAPC  H12X 5244   0.040   4.527   7.886 -0.4518 -0.5846  2.6466
   64SAPC  H12Y 5245   0.222   4.535   7.908 -0.2456  0.1231  0.8877
   64SAPC  C313 5246   0.135   4.345   7.955 -0.6058  0.8396 -0.7613
   64SAPC  H13X 5247   0.243   4.320   7.963 -0.6843 -0.0113 -2.1708
   64SAPC  H13Y 5248   0.087   4.268   7.891 -1.9143 -0.2670  1.4930
   64SAPC  C314 5249   0.067   4.356   8.093  0.0673  0.4312  0.3513
   64SAPC  H14X 5250   0.057   4.248   8.115  0.4114  0.2781 -0.2197
   64SAPC  H14Y 5251  -0.041   4.383   8.091 -0.6180 -2.2218 -0.4811
   64SAPC  C315 5252   0.143   4.444   8.189  0.1715  0.4055  0.2317
   64SAPC  H15X 5253   0.165   4.539   8.135 -2.3710 -0.0880 -1.7446
   64SAPC  H15Y 5254   0.240   4.395   8.210 -1.1524 -2.4444 -0.1106
   64SAPC  C316 5255   0.069   4.469   8.322 -0.7383 -1.1037 -0.3927
   64SAPC  H16X 5256   0.038   4.370   8.362  1.2716 -2.2901 -1.6762
   64SAPC  H16Y 5257  -0.024   4.528   8.309  0.9102  2.2744  2.3429
   64SAPC  C317 5258   0.148   4.554   8.422 -0.4441  0.3900  0.7754
   64SAPC  H17X 5259   0.174   4.651   8.374 -2.2882  0.3105 -0.4283
   64SAPC  H17Y 5260   0.243   4.496   8.426 -0.8835 -0.4666 -0.8189
   64SAPC  C318 5261   0.080   4.571   8.560 -0.3307 -0.0841 -0.1296
   64SAPC  H18X 5262   0.027   4.482   8.599 -0.0156 -0.5397 -0.7277
   64SAPC  H18Y 5263   0.002   4.649   8.565  1.2455  1.4359  1.5427
   64SAPC  H18Z 5264   0.160   4.590   8.636 -0.8211 -2.0370  0.9259
   65SAPC     N 5265   5.766   0.284   5.551 -0.1433 -0.0402 -0.2358
   65SAPC   C12 5266   5.888   0.232   5.618 -0.3878  1.1801  0.0491
   65SAPC  H12A 5267   5.934   0.312   5.674  0.8468 -0.1474  0.9616
   65SAPC  H12B 5268   5.957   0.191   5.546  0.3380  0.2954  1.2346
   65SAPC   C13 5269   5.700   0.398   5.627 -0.2022  0.9287 -0.0873
   65SAPC  H13A 5270   5.683   0.361   5.727  0.0688 -1.6101 -0.9531
   65SAPC  H13B 5271   5.757   0.489   5.639 -0.3073  1.0117 -0.2146
   65SAPC  H13C 5272   5.610   0.429   5.577 -1.5880 -1.2332  1.0077
   65SAPC   C14 5273   5.795   0.337   5.417 -0.0255  0.8241 -0.1370
   65SAPC  H14A 5274   5.712   0.382   5.365 -0.7091  1.0994  1.1917
   65SAPC  H14B 5275   5.868   0.416   5.423 -0.3524  1.2784 -1.8610
   65SAPC  H14C 5276   5.830   0.260   5.349 -1.1302  0.3145 -0.1299
   65SAPC   C15 5277   5.658   0.181   5.544  0.0939 -0.1442 -0.5208
   65SAPC  H15A 5278   5.570   0.228   5.504 -1.7489 -2.1491  1.0855
   65SAPC  H15B 5279   5.699   0.098   5.487  1.9459  0.9954 -0.8817
   65SAPC  H15C 5280   5.624   0.152   5.642 -1.4614 -0.9768 -1.3005
   65SAPC   C11 5281   5.861   0.121   5.725 -0.5593  0.5778 -0.6410
   65SAPC  H11A 5282   5.961   0.096   5.768 -0.2305  1.4149 -0.9128
   65SAPC  H11B 5283   5.822   0.031   5.674  0.4314  0.1741 -0.7003
   65SAPC     P 5284   5.821   0.249   5.940 -0.0396 -0.2727  0.3856
   65SAPC   O13 5285   5.959   0.208   5.968 -0.6511 -0.0976  0.1143
   65SAPC   O14 5286   5.780   0.391   5.914 -0.6825 -0.2490 -0.1329
   65SAPC   O12 5287   5.766   0.162   5.824 -0.6567  0.1320  0.6536
   65SAPC   O11 5288   5.734   0.195   6.055  0.1859 -0.3192 -0.4545
   65SAPC    C1 5289   5.712   0.059   6.079 -0.0718  0.8144 -0.2542
   65SAPC    HA 5290   5.603   0.041   6.082  0.0064  0.2670 -0.5808
   65SAPC    HB 5291   5.751  -0.005   5.996 -1.2866  2.3084 -2.0058
   65SAPC    C2 5292   5.772   0.018   6.221 -0.6004  0.3041 -0.6314
   65SAPC    HS 5293   5.739  -0.087   6.239  0.6190 -0.0560 -0.4639
   65SAPC   O21 5294   5.722   0.099   6.326  0.0708 -0.0192 -0.7515
   65SAPC   C21 5295   5.608   0.056   6.382  0.1644  0.0896  0.2268
   65SAPC   O22 5296   5.541  -0.039   6.349 -0.2307 -0.0505 -0.1232
   65SAPC   C22 5297   5.594   0.140   6.501 -0.1013 -0.4407  0.2023
   65SAPC   H2R 5298   5.692   0.165   6.548 -0.4083  1.4928 -0.1854
   65SAPC   H2S 5299   5.561   0.242   6.473 -1.0109 -0.9899 -0.7374
   65SAPC    C3 5300   5.924   0.015   6.228  0.3536 -0.6457  0.7379
   65SAPC    HX 5301   5.975   0.108   6.194 -1.2540  0.1034  0.3314
   65SAPC    HY 5302   5.942  -0.067   6.156  1.0332  1.7530 -1.9128
   65SAPC   O31 5303   5.970  -0.029   6.357  0.5274 -0.5293 -0.4860
   65SAPC   C31 5304   6.089  -0.086   6.353 -0.2391 -0.8398 -0.3684
   65SAPC   O32 5305   6.137  -0.127   6.246 -0.4512  0.5601 -0.2086
   65SAPC   C32 5306   6.142  -0.108   6.496  0.1811  0.0858  0.0234
   65SAPC   H2X 5307   6.064  -0.151   6.562 -0.7689  2.5984  0.6092
   65SAPC   H2Y 5308   6.167  -0.012   6.547 -0.6889  1.3184 -1.8118
   65SAPC   C23 5309   5.504   0.080   6.614  0.0679  0.7711 -0.1226
   65SAPC   H3R 5310   5.406   0.066   6.563 -0.2879 -0.8363  0.9857
   65SAPC   H3S 5311   5.498   0.144   6.705  2.9394  1.5244 -0.4008
   65SAPC   C24 5312   5.535  -0.068   6.653 -0.0208 -0.5252  0.6950
   65SAPC   H4R 5313   5.515  -0.131   6.564  1.0644  1.3376 -0.9195
   65SAPC   H4S 5314   5.472  -0.115   6.731  0.1054 -3.0660 -0.6668
   65SAPC   C25 5315   5.679  -0.069   6.700  0.3848  0.4579  0.0350
   65SAPC   H5R 5316   5.751  -0.059   6.617 -0.8495  3.1485 -0.7418
   65SAPC   C26 5317   5.719  -0.073   6.827  0.3347 -0.0557 -0.3612
   65SAPC   H6R 5318   5.823  -0.060   6.859  0.4827 -1.5077 -0.2157
   65SAPC   C27 5319   5.624  -0.059   6.947  0.0585 -0.6321 -0.0222
   65SAPC   H7R 5320   5.671  -0.088   7.044  0.9269 -0.0250 -0.2561
   65SAPC   H7S 5321   5.536  -0.126   6.934 -1.1521  0.8134  0.4670
   65SAPC   C28 5322   5.577   0.085   6.963 -0.1320 -0.4774  0.2140
   65SAPC   H8R 5323   5.482   0.116   6.916 -0.5454  1.4776  2.2441
   65SAPC   C29 5324   5.638   0.182   7.034  0.4637  0.4028 -0.2402
   65SAPC   H9R 5325   5.594   0.282   7.036 -0.6155 -0.0524 -0.7671
   65SAPC  C210 5326   5.760   0.165   7.117 -0.1241  0.3336 -0.2809
   65SAPC  H10R 5327   5.818   0.078   7.078 -0.6080 -0.0081 -0.2550
   65SAPC  H10S 5328   5.729   0.142   7.221 -0.3775  1.3099 -0.1425
   65SAPC  C211 5329   5.833   0.294   7.112  0.4765 -0.0757 -0.1301
   65SAPC  H11R 5330   5.908   0.310   7.034  0.4361 -1.5559 -0.4817
   65SAPC  C212 5331   5.803   0.393   7.206 -0.4150 -0.2999 -0.0785
   65SAPC  H12R 5332   5.864   0.485   7.215  2.1109 -1.9315  0.0929
   65SAPC  C213 5333   5.704   0.378   7.318  0.6168  0.8255  0.4484
   65SAPC  H13R 5334   5.749   0.315   7.397 -0.1437  1.5342  1.4524
   65SAPC  H13S 5335   5.621   0.315   7.280  0.8211  1.3898 -0.9737
   65SAPC  C214 5336   5.652   0.508   7.386  0.4543  0.1257  0.3264
   65SAPC  H14R 5337   5.701   0.536   7.480  1.5066  0.6927 -0.3836
   65SAPC  C215 5338   5.549   0.575   7.329  0.2051  0.6406  0.1021
   65SAPC  H15R 5339   5.506   0.665   7.375  0.8412  0.3977  1.1774
   65SAPC  C216 5340   5.479   0.536   7.201 -0.8904 -0.4842  0.3142
   65SAPC  H16R 5341   5.544   0.482   7.129 -0.8833 -0.6322  0.4318
   65SAPC  H16S 5342   5.427   0.623   7.154 -0.7745 -1.8748 -2.4292
   65SAPC  C217 5343   5.354   0.450   7.225 -0.2855 -0.9083 -0.0143
   65SAPC  H17R 5344   5.280   0.505   7.287  1.2791 -0.5879  1.6169
   65SAPC  H17S 5345   5.380   0.360   7.285  0.8365  0.4096  1.5408
   65SAPC  C218 5346   5.285   0.396   7.100 -0.7381  0.0774 -0.7672
   65SAPC  H18R 5347   5.359   0.334   7.045 -0.9977 -1.1863  0.2895
   65SAPC  H18S 5348   5.258   0.484   7.038  3.7826  2.0436 -0.1380
   65SAPC  C219 5349   5.159   0.306   7.131 -0.3802 -0.3921 -0.3633
   65SAPC  H19R 5350   5.092   0.349   7.208  2.2182  1.2094  1.0853
   65SAPC  H19S 5351   5.187   0.205   7.167  1.1080 -0.1876 -0.9191
   65SAPC  C220 5352   5.077   0.285   7.002 -0.1692  0.1316 -0.9271
   65SAPC  H20R 5353   5.029   0.376   6.959 -2.3925 -0.8118 -0.5079
   65SAPC  H20S 5354   4.993   0.226   7.043 -0.6258  1.4395  0.0692
   65SAPC  H20T 5355   5.141   0.239   6.924  0.4152  0.0920 -0.4235
   65SAPC   C33 5356   6.269  -0.200   6.505  1.0468  0.3341  0.1877
   65SAPC   H3X 5357   6.348  -0.152   6.444 -0.1741 -2.3204 -3.7301
   65SAPC   H3Y 5358   6.268  -0.295   6.446  1.0011  0.3143  0.2197
   65SAPC   C34 5359   6.326  -0.237   6.646 -0.1654  0.1943  0.6033
   65SAPC   H4X 5360   6.237  -0.269   6.704 -1.7292  0.7157 -1.4576
   65SAPC   H4Y 5361   6.363  -0.141   6.687 -0.3388  0.1754  0.8075
   65SAPC   C35 5362   6.445  -0.338   6.650 -0.1617  0.3112 -0.2498
   65SAPC   H5X 5363   6.540  -0.293   6.615  0.7811 -0.7362  0.8872
   65SAPC   H5Y 5364   6.438  -0.435   6.595  0.2189 -0.0145  0.2700
   65SAPC   C36 5365   6.484  -0.389   6.786 -0.7248 -0.2409  0.0667
   65SAPC   H6X 5366   6.553  -0.475   6.769  1.3936  1.4944 -0.3363
   65SAPC   H6Y 5367   6.403  -0.438   6.844  0.1235 -0.8513  0.7669
   65SAPC   C37 5368   6.567  -0.289   6.868  0.5474 -0.1836 -0.6015
   65SAPC   H7X 5369   6.489  -0.223   6.913 -0.3974 -0.1830 -2.1982
   65SAPC   H7Y 5370   6.634  -0.225   6.806  0.5264  1.1092  0.6737
   65SAPC   C38 5371   6.656  -0.350   6.974 -0.1181  0.6064 -0.7094
   65SAPC   H8X 5372   6.688  -0.266   7.039  0.8655 -1.2657  1.2876
   65SAPC   H8Y 5373   6.745  -0.386   6.918  1.8621  0.9055  2.1574
   65SAPC   C39 5374   6.597  -0.459   7.072  0.1020 -0.5534  0.8538
   65SAPC   H9X 5375   6.684  -0.499   7.128  1.0481 -0.1587 -0.3023
   65SAPC   H9Y 5376   6.558  -0.539   7.005 -1.6583  1.8110 -1.0530
   65SAPC  C310 5377   6.492  -0.388   7.166 -0.0178  0.9850  0.1006
   65SAPC  H10X 5378   6.405  -0.350   7.109 -2.0798 -1.5280  1.4604
   65SAPC  H10Y 5379   6.552  -0.308   7.214  0.2247  0.8524  0.0198
   65SAPC  C311 5380   6.452  -0.484   7.282 -0.4603  0.8500 -0.1877
   65SAPC  H11X 5381   6.546  -0.536   7.313 -0.6136  0.6159 -0.1153
   65SAPC  H11Y 5382   6.379  -0.557   7.243 -0.0028 -0.7711  1.8798
   65SAPC  C312 5383   6.391  -0.413   7.399 -0.1717 -0.8627 -0.7743
   65SAPC  H12X 5384   6.300  -0.362   7.363  0.4175 -0.1053 -1.1998
   65SAPC  H12Y 5385   6.467  -0.341   7.438 -1.8380 -0.3766  1.6955
   65SAPC  C313 5386   6.357  -0.506   7.515 -0.1613  0.2508  0.5150
   65SAPC  H13X 5387   6.450  -0.565   7.531  0.2482  0.4445 -1.1504
   65SAPC  H13Y 5388   6.289  -0.582   7.470  3.1612 -1.7522 -1.2859
   65SAPC  C314 5389   6.302  -0.443   7.644  0.3081 -0.3737  0.4516
   65SAPC  H14X 5390   6.292  -0.518   7.725 -2.1967  1.9074  2.3866
   65SAPC  H14Y 5391   6.199  -0.402   7.630  0.2813 -0.3090  0.8209
   65SAPC  C315 5392   6.397  -0.331   7.698 -0.3943 -0.4401 -0.4966
   65SAPC  H15X 5393   6.408  -0.248   7.625  0.6673 -1.3555 -1.3937
   65SAPC  H15Y 5394   6.498  -0.377   7.697 -1.5193 -2.9661 -0.4831
   65SAPC  C316 5395   6.353  -0.261   7.826 -0.5421  0.6296 -0.6191
   65SAPC  H16X 5396   6.351  -0.335   7.909  0.9747 -2.0713 -2.9249
   65SAPC  H16Y 5397   6.244  -0.241   7.816 -1.1430 -1.3078  1.6167
   65SAPC  C317 5398   6.438  -0.139   7.878  0.2052 -0.5180 -0.4184
   65SAPC  H17X 5399   6.423  -0.056   7.806 -1.7243 -0.9325 -0.5102
   65SAPC  H17Y 5400   6.546  -0.157   7.860  0.2670  0.3637 -0.9642
   65SAPC  C318 5401   6.409  -0.077   8.021  1.0656  0.2220  0.2546
   65SAPC  H18X 5402   6.403  -0.151   8.104  0.3363 -2.2826 -1.9509
   65SAPC  H18Y 5403   6.308  -0.033   8.029  0.3531 -1.3598  0.1321
   65SAPC  H18Z 5404   6.484   0.001   8.043  0.0362  1.5634 -0.8858
   66SAPC     N 5405   4.558   5.025   6.067 -0.4847  0.4142 -0.0559
   66SAPC   C12 5406   4.549   4.878   6.016  0.7525  0.2829  0.2095
   66SAPC  H12A 5407   4.643   4.830   6.039  0.9213 -0.0950 -1.2259
   66SAPC  H12B 5408   4.525   4.883   5.910  2.4299  0.0780 -0.2014
   66SAPC   C13 5409   4.550   5.028   6.221 -0.8414  0.0206 -0.1109
   66SAPC  H13A 5410   4.627   4.964   6.260 -1.1193 -0.7474 -0.7999
   66SAPC  H13B 5411   4.572   5.131   6.242 -1.1020 -0.1924  1.2523
   66SAPC  H13C 5412   4.449   5.000   6.250  0.2284 -0.0819  3.7376
   66SAPC   C14 5413   4.682   5.099   6.009 -0.1806 -0.7364 -0.1088
   66SAPC  H14A 5414   4.685   5.204   6.034  0.3796 -0.9596  0.7889
   66SAPC  H14B 5415   4.775   5.054   6.041 -0.2418 -0.2217  0.8016
   66SAPC  H14C 5416   4.682   5.092   5.901  0.7625 -0.5766 -0.1207
   66SAPC   C15 5417   4.443   5.099   6.014 -0.4895  0.4293  0.3252
   66SAPC  H15A 5418   4.447   5.120   5.908 -1.0503 -1.4596 -0.0996
   66SAPC  H15B 5419   4.352   5.042   6.027 -0.7396  1.0937  1.5755
   66SAPC  H15C 5420   4.430   5.199   6.052 -1.2828  0.7278 -0.7186
   66SAPC   C11 5421   4.449   4.774   6.089  0.0009 -0.2735  0.6230
   66SAPC  H11A 5422   4.473   4.783   6.197 -0.5025  2.3146  0.5512
   66SAPC  H11B 5423   4.461   4.675   6.039 -1.8322 -0.1722 -0.0916
   66SAPC     P 5424   4.204   4.833   6.173 -0.0830 -0.1319 -0.0711
   66SAPC   O13 5425   4.240   4.937   6.275  0.7385  0.5198 -0.5028
   66SAPC   O14 5426   4.068   4.833   6.114  0.3606  0.2994 -0.3718
   66SAPC   O12 5427   4.315   4.812   6.059 -0.2949  0.3854 -0.0984
   66SAPC   O11 5428   4.232   4.691   6.242 -0.1802  0.0902  0.2093
   66SAPC    C1 5429   4.149   4.646   6.352 -0.2707  0.5950  0.0198
   66SAPC    HA 5430   4.040   4.667   6.348 -0.3810 -0.2330 -2.3702
   66SAPC    HB 5431   4.153   4.535   6.350 -0.6924  0.5895 -1.1284
   66SAPC    C2 5432   4.213   4.672   6.491  0.1336 -0.3840  0.1862
   66SAPC    HS 5433   4.156   4.608   6.562 -0.5204 -0.6864 -0.6049
   66SAPC   O21 5434   4.207   4.807   6.536 -0.2058  0.1199 -0.1714
   66SAPC   C21 5435   4.087   4.847   6.574  0.8135 -0.3134 -0.4390
   66SAPC   O22 5436   3.981   4.788   6.558  0.3357  0.4151 -0.4010
   66SAPC   C22 5437   4.105   4.981   6.648  0.2563 -0.3942 -0.2898
   66SAPC   H2R 5438   4.030   4.981   6.730  1.6168 -1.1902  0.9792
   66SAPC   H2S 5439   4.203   5.002   6.695  0.0027  0.5610 -0.1667
   66SAPC    C3 5440   4.364   4.617   6.495  0.3519  0.5530 -0.4320
   66SAPC    HX 5441   4.417   4.670   6.413  3.1811  0.6888  1.4014
   66SAPC    HY 5442   4.368   4.508   6.473 -2.1055  0.4840 -0.7239
   66SAPC   O31 5443   4.426   4.639   6.626  0.3504  0.0849 -0.3947
   66SAPC   C31 5444   4.381   4.564   6.731  0.6346 -0.9261  0.4487
   66SAPC   O32 5445   4.289   4.482   6.722 -0.2846 -0.2292 -0.2827
   66SAPC   C32 5446   4.431   4.617   6.862 -0.9215  0.4739  0.9382
   66SAPC   H2X 5447   4.468   4.721   6.852 -1.2996  0.4414 -0.9923
   66SAPC   H2Y 5448   4.522   4.558   6.884  1.6553  3.4305 -1.4962
   66SAPC   C23 5449   4.072   5.099   6.550 -0.0435 -0.2025  0.5348
   66SAPC   H3R 5450   3.966   5.085   6.519 -0.1976 -2.2577  1.9090
   66SAPC   H3S 5451   4.146   5.088   6.468 -0.3464  1.9555 -0.0399
   66SAPC   C24 5452   4.089   5.239   6.609 -0.4074  0.4695  0.4031
   66SAPC   H4R 5453   4.065   5.317   6.534  1.1714  0.5797 -0.0039
   66SAPC   H4S 5454   4.195   5.254   6.642 -0.4977  2.4604 -0.1265
   66SAPC   C25 5455   3.994   5.245   6.728 -0.0224 -0.1044 -0.6337
   66SAPC   H5R 5456   3.888   5.256   6.698  0.0580 -2.6126 -2.0068
   66SAPC   C26 5457   4.011   5.244   6.862  0.8890 -0.6013 -0.4137
   66SAPC   H6R 5458   3.920   5.253   6.923  0.6229 -1.1957 -0.7254
   66SAPC   C27 5459   4.143   5.229   6.936 -0.3559  0.4135 -0.1768
   66SAPC   H7R 5460   4.230   5.190   6.878  0.6954  2.0799  0.2519
   66SAPC   H7S 5461   4.132   5.157   7.020  2.3699  0.3441  0.1631
   66SAPC   C28 5462   4.172   5.370   6.985 -0.4447 -0.2324  0.0593
   66SAPC   H8R 5463   4.208   5.436   6.904  0.8632  1.1191  1.7076
   66SAPC   C29 5464   4.183   5.410   7.110  0.8289 -0.3571  0.2789
   66SAPC   H9R 5465   4.197   5.518   7.123  3.7467 -0.5916 -0.5784
   66SAPC  C210 5466   4.157   5.339   7.241 -0.0766 -0.1026 -0.7146
   66SAPC  H10R 5467   4.243   5.272   7.265 -1.6265 -1.8281  0.2075
   66SAPC  H10S 5468   4.060   5.286   7.235 -0.6527  0.7986  0.4062
   66SAPC  C211 5469   4.145   5.428   7.362  0.0323 -0.5553 -0.8263
   66SAPC  H11R 5470   4.063   5.422   7.436  1.6522  1.3496  1.1894
   66SAPC  C212 5471   4.247   5.504   7.409 -0.3612 -0.6109  0.4308
   66SAPC  H12R 5472   4.235   5.558   7.505  2.8127  0.6876  0.1683
   66SAPC  C213 5473   4.395   5.507   7.361  0.6433  0.4834  0.4419
   66SAPC  H13R 5474   4.414   5.433   7.281 -0.5888 -0.9455  1.4407
   66SAPC  H13S 5475   4.449   5.464   7.449 -2.4872 -2.0313  1.2514
   66SAPC  C214 5476   4.438   5.650   7.329 -0.4197  0.4165  0.2109
   66SAPC  H14R 5477   4.428   5.677   7.223  0.2906  2.0731  0.5424
   66SAPC  C215 5478   4.488   5.746   7.411 -0.0458 -0.0256  0.0595
   66SAPC  H15R 5479   4.528   5.842   7.376  2.4960 -0.0954  2.5833
   66SAPC  C216 5480   4.508   5.731   7.559  0.7376 -0.0079 -0.2244
   66SAPC  H16R 5481   4.613   5.749   7.590  0.7411 -2.5422  1.4592
   66SAPC  H16S 5482   4.493   5.628   7.597  1.9736  0.2150  0.9219
   66SAPC  C217 5483   4.422   5.822   7.647  0.2620 -0.2323 -0.4326
   66SAPC  H17R 5484   4.312   5.804   7.646  0.4428 -1.5081  0.9719
   66SAPC  H17S 5485   4.438   5.930   7.626 -0.3049  0.0188  0.3670
   66SAPC  C218 5486   4.468   5.820   7.792 -0.4397  0.3509  0.5621
   66SAPC  H18R 5487   4.578   5.804   7.800 -0.4720  0.3110  0.9543
   66SAPC  H18S 5488   4.421   5.726   7.828  1.1941 -1.2247 -1.2851
   66SAPC  C219 5489   4.432   5.941   7.880 -0.6137 -0.1575  0.6565
   66SAPC  H19R 5490   4.324   5.968   7.880 -0.7323 -0.5834 -0.3477
   66SAPC  H19S 5491   4.488   6.029   7.843 -0.1277 -0.8605 -0.2832
   66SAPC  C220 5492   4.473   5.923   8.028  0.5034  0.5737  0.1776
   66SAPC  H20R 5493   4.454   6.009   8.096  2.7084  0.1264  1.4416
   66SAPC  H20S 5494   4.582   5.901   8.036  0.0459 -2.4633 -1.4175
   66SAPC  H20T 5495   4.420   5.837   8.075  0.5262  0.6135  0.2777
   66SAPC   C33 5496   4.339   4.597   6.980  1.1451 -0.3508  0.3799
   66SAPC   H3X 5497   4.406   4.615   7.068 -1.0854  3.0670  1.4576
   66SAPC   H3Y 5498   4.304   4.492   6.991 -2.4583  0.7831  0.0578
   66SAPC   C34 5499   4.222   4.697   6.987 -0.5801  0.8358 -0.1669
   66SAPC   H4X 5500   4.166   4.674   7.081  0.0562 -0.0236  0.0157
   66SAPC   H4Y 5501   4.162   4.693   6.894 -1.3903  2.7778  0.2510
   66SAPC   C35 5502   4.267   4.846   7.009  1.0646  0.2600  0.6901
   66SAPC   H5X 5503   4.189   4.915   6.970  1.0749  0.5486  1.1825
   66SAPC   H5Y 5504   4.360   4.867   6.952  1.7128 -0.1444  1.5894
   66SAPC   C36 5505   4.290   4.881   7.154  0.2677  0.5849 -0.3963
   66SAPC   H6X 5506   4.367   4.816   7.203  0.1309  0.7923  0.1007
   66SAPC   H6Y 5507   4.193   4.866   7.207  1.3756 -0.3545  1.4237
   66SAPC   C37 5508   4.353   5.017   7.178 -0.5470 -0.4567  0.4375
   66SAPC   H7X 5509   4.302   5.087   7.109  2.0577  1.4531  0.3598
   66SAPC   H7Y 5510   4.458   5.021   7.141 -0.5533 -2.2398  0.1970
   66SAPC   C38 5511   4.355   5.063   7.322 -0.5908 -0.0706  0.2806
   66SAPC   H8X 5512   4.251   5.089   7.351  0.2103  0.2069  3.0550
   66SAPC   H8Y 5513   4.406   5.162   7.326  2.0871 -1.4552  3.4586
   66SAPC   C39 5514   4.421   4.966   7.419  0.9263 -0.3081 -0.3775
   66SAPC   H9X 5515   4.498   4.909   7.363  1.4186  0.9411 -0.9955
   66SAPC   H9Y 5516   4.343   4.898   7.460 -1.2260  1.5780 -1.1944
   66SAPC  C310 5517   4.482   5.043   7.534  0.6236  0.8346 -0.1476
   66SAPC  H10X 5518   4.553   5.122   7.502 -0.3595  1.3625 -1.0557
   66SAPC  H10Y 5519   4.537   4.969   7.595  3.0081  2.5897 -0.1137
   66SAPC  C311 5520   4.377   5.102   7.630 -0.3022 -0.8050  1.0172
   66SAPC  H11X 5521   4.322   5.172   7.563  1.1435  0.0884  0.7357
   66SAPC  H11Y 5522   4.430   5.155   7.712  0.4987 -0.8826  0.5565
   66SAPC  C312 5523   4.267   5.012   7.678  0.1375 -0.4818 -0.0063
   66SAPC  H12X 5524   4.230   4.948   7.595  0.1216 -0.0254 -0.3518
   66SAPC  H12Y 5525   4.180   5.076   7.706 -0.8324 -1.2827 -1.1384
   66SAPC  C313 5526   4.296   4.937   7.806 -0.1472  0.2911 -0.5334
   66SAPC  H13X 5527   4.404   4.909   7.806  0.1035  1.2261 -0.1851
   66SAPC  H13Y 5528   4.214   4.863   7.815 -0.7218  1.0268  0.4233
   66SAPC  C314 5529   4.276   5.021   7.936 -0.0426  0.1982 -0.4782
   66SAPC  H14X 5530   4.178   5.071   7.946 -0.2033 -0.7354  3.2407
   66SAPC  H14Y 5531   4.346   5.107   7.942  0.3668  0.2175 -4.1445
   66SAPC  C315 5532   4.296   4.939   8.069 -0.5519  0.8047 -0.2914
   66SAPC  H15X 5533   4.399   4.898   8.063 -0.8570 -0.0173  0.0463
   66SAPC  H15Y 5534   4.216   4.862   8.073  1.5173 -1.3107  1.9372
   66SAPC  C316 5535   4.278   5.032   8.194  0.3713 -0.0462  0.6957
   66SAPC  H16X 5536   4.193   5.103   8.181  0.4272  0.1872  1.6316
   66SAPC  H16Y 5537   4.368   5.097   8.199 -1.1286  2.2503 -0.8482
   66SAPC  C317 5538   4.269   4.961   8.328 -0.8294  0.3970  0.4930
   66SAPC  H17X 5539   4.275   5.039   8.407 -2.2073  0.8980  0.1061
   66SAPC  H17Y 5540   4.343   4.879   8.339 -2.0757 -1.2089 -2.5158
   66SAPC  C318 5541   4.128   4.899   8.354 -0.1739 -0.4645 -0.3441
   66SAPC  H18X 5542   4.042   4.968   8.340  0.4634  0.6137  0.9132
   66SAPC  H18Y 5543   4.130   4.844   8.450  1.4242 -1.4852 -0.9318
   66SAPC  H18Z 5544   4.119   4.811   8.287 -1.0087 -0.4527 -0.2422
   67SAPC     N 5545   6.134   0.919   6.197 -0.2749  0.6138  0.5239
   67SAPC   C12 5546   6.185   0.854   6.320  0.1367 -0.2662 -0.2018
   67SAPC  H12A 5547   6.274   0.801   6.291 -1.1404 -2.2037 -0.6502
   67SAPC  H12B 5548   6.118   0.778   6.356  0.8425 -0.3061  1.0259
   67SAPC   C13 5549   6.013   0.998   6.240 -0.0695  0.1007  0.1937
   67SAPC  H13A 5550   5.963   1.059   6.166  2.6346  1.8051 -0.2901
   67SAPC  H13B 5551   5.942   0.927   6.280 -1.1139  0.8372 -0.3175
   67SAPC  H13C 5552   6.049   1.057   6.322 -0.7770  0.0557  0.5400
   67SAPC   C14 5553   6.240   1.009   6.139 -0.5835 -0.4921 -0.1766
   67SAPC  H14A 5554   6.279   1.078   6.214 -0.0367  0.2914 -1.1702
   67SAPC  H14B 5555   6.328   0.955   6.109 -1.6164 -2.7641  0.8103
   67SAPC  H14C 5556   6.199   1.067   6.058  2.1332  0.1746 -1.1433
   67SAPC   C15 5557   6.094   0.815   6.091 -0.5662 -0.0095  0.5015
   67SAPC  H15A 5558   6.181   0.754   6.068  1.8111  4.0004 -1.7684
   67SAPC  H15B 5559   6.019   0.750   6.133 -0.9077 -0.7624 -1.2247
   67SAPC  H15C 5560   6.050   0.864   6.006  0.2016  0.6040  0.4479
   67SAPC   C11 5561   6.235   0.955   6.436 -0.2680  0.4222 -0.3938
   67SAPC  H11A 5562   6.265   0.899   6.527 -0.0552  1.3323  0.1031
   67SAPC  H11B 5563   6.148   1.016   6.471  1.6612  1.7682  2.2311
   67SAPC     P 5564   6.496   0.961   6.380 -0.0264  0.3235  0.3936
   67SAPC   O13 5565   6.483   0.857   6.279  0.1010  0.0646  0.4646
   67SAPC   O14 5566   6.588   1.069   6.330  0.0142 -0.3437  0.2576
   67SAPC   O12 5567   6.348   1.024   6.396 -0.3345 -0.2562  0.4216
   67SAPC   O11 5568   6.541   0.895   6.515 -0.3151 -0.5216  0.4305
   67SAPC    C1 5569   6.527   0.948   6.649 -0.5395 -0.5976  0.3900
   67SAPC    HA 5570   6.580   1.046   6.652 -3.6630  1.2626 -1.7936
   67SAPC    HB 5571   6.420   0.953   6.677 -0.4019  0.4361  0.7575
   67SAPC    C2 5572   6.585   0.852   6.754  0.1842  0.4964  0.1139
   67SAPC    HS 5573   6.590   0.900   6.855  2.1587 -2.1794  1.3527
   67SAPC   O21 5574   6.722   0.814   6.722 -0.1091 -0.9427 -0.9505
   67SAPC   C21 5575   6.808   0.916   6.712 -0.3804  0.4945  0.3173
   67SAPC   O22 5576   6.788   1.026   6.760  0.2547 -0.0402 -0.0840
   67SAPC   C22 5577   6.939   0.892   6.634  0.3146 -0.1728 -0.1148
   67SAPC   H2R 5578   6.918   0.821   6.551  0.2541  0.4397 -0.6272
   67SAPC   H2S 5579   6.984   0.988   6.601 -0.1395 -0.3198 -1.1782
   67SAPC    C3 5580   6.502   0.724   6.785 -0.0242 -0.6407  0.4888
   67SAPC    HX 5581   6.483   0.675   6.687 -1.2057  1.2635 -0.2523
   67SAPC    HY 5582   6.405   0.760   6.826  0.2771 -0.1309  0.7478
   67SAPC   O31 5583   6.559   0.632   6.876  0.5019  0.7380  0.0256
   67SAPC   C31 5584   6.645   0.543   6.829 -0.2228 -0.0646 -0.2885
   67SAPC   O32 5585   6.660   0.515   6.714  0.0573 -0.4536  0.3155
   67SAPC   C32 5586   6.711   0.472   6.947 -0.4384 -0.2233  0.1185
   67SAPC   H2X 5587   6.635   0.457   7.026  0.5149 -1.6634  0.7919
   67SAPC   H2Y 5588   6.795   0.530   6.990  0.3758 -1.6327  0.4576
   67SAPC   C23 5589   7.042   0.815   6.716  0.6002  0.9886  0.3325
   67SAPC   H3R 5590   7.112   0.774   6.640 -0.9057  1.2619 -1.2294
   67SAPC   H3S 5591   7.000   0.731   6.774  0.2966 -1.7917 -3.7231
   67SAPC   C24 5592   7.139   0.906   6.800  0.1761  0.3224  0.4314
   67SAPC   H4R 5593   7.207   0.976   6.749  1.0999 -0.7398  0.1902
   67SAPC   H4S 5594   7.206   0.832   6.850  1.3083  0.6534 -0.5872
   67SAPC   C25 5595   7.072   0.978   6.908 -0.3198 -0.3640 -0.3289
   67SAPC   H5R 5596   7.049   1.084   6.888  1.8494  0.0367 -0.9262
   67SAPC   C26 5597   7.029   0.942   7.031 -0.5299 -0.6039 -0.1725
   67SAPC   H6R 5598   6.987   1.018   7.098 -0.0649 -0.8122  0.3623
   67SAPC   C27 5599   7.038   0.794   7.078 -0.1695 -0.8374 -0.5480
   67SAPC   H7R 5600   7.138   0.769   7.118 -0.1524  0.4517  0.2482
   67SAPC   H7S 5601   7.030   0.736   6.984 -2.7586 -1.2929 -0.0991
   67SAPC   C28 5602   6.932   0.749   7.169 -0.9279 -0.4391  0.5833
   67SAPC   H8R 5603   6.836   0.722   7.122 -0.3481 -1.1114 -0.2365
   67SAPC   C29 5604   6.936   0.734   7.301  0.1065 -0.0280 -0.0691
   67SAPC   H9R 5605   6.846   0.694   7.350 -0.3622  0.6514 -0.3768
   67SAPC  C210 5606   7.050   0.765   7.395  0.2462  0.4160 -0.4946
   67SAPC  H10R 5607   7.118   0.839   7.348 -0.6128  2.0365  0.7684
   67SAPC  H10S 5608   7.113   0.673   7.397 -1.6787 -1.0788 -3.3384
   67SAPC  C211 5609   7.011   0.832   7.530  0.0861 -0.0826 -0.3647
   67SAPC  H11R 5610   6.968   0.933   7.524 -0.9777 -0.6550 -3.3373
   67SAPC  C212 5611   7.014   0.771   7.643  0.2054 -0.3475  0.2035
   67SAPC  H12R 5612   6.979   0.818   7.736  0.1161 -1.5078  0.7648
   67SAPC  C213 5613   7.043   0.626   7.667  0.0596 -0.0541  0.1752
   67SAPC  H13R 5614   7.089   0.575   7.579 -1.4110 -1.7921  0.3798
   67SAPC  H13S 5615   6.943   0.579   7.659  0.0533  0.2883 -2.2335
   67SAPC  C214 5616   7.112   0.587   7.795 -0.1062  0.0238  0.0743
   67SAPC  H14R 5617   7.215   0.548   7.794  0.8031  2.3126  0.5970
   67SAPC  C215 5618   7.056   0.572   7.913 -0.8054 -0.1243 -0.2442
   67SAPC  H15R 5619   7.116   0.552   8.003 -3.2120  0.6646  1.5961
   67SAPC  C216 5620   6.912   0.601   7.945  0.4855  0.4495  0.2843
   67SAPC  H16R 5621   6.851   0.580   7.854  1.4890  0.2915 -0.3643
   67SAPC  H16S 5622   6.900   0.710   7.960  0.6379  0.1730  2.5212
   67SAPC  C217 5623   6.860   0.527   8.071 -0.0940 -0.3487  0.2746
   67SAPC  H17R 5624   6.865   0.418   8.051  0.5476 -0.0594 -1.2242
   67SAPC  H17S 5625   6.749   0.531   8.077 -0.1391 -0.2394 -0.5453
   67SAPC  C218 5626   6.922   0.570   8.203 -0.4081  0.5419  0.8627
   67SAPC  H18R 5627   6.922   0.681   8.198  0.1342  0.6386  2.6136
   67SAPC  H18S 5628   7.024   0.530   8.186 -0.2091  0.4334  2.2055
   67SAPC  C219 5629   6.868   0.516   8.334 -0.0305 -0.5823  0.0767
   67SAPC  H19R 5630   6.861   0.405   8.335 -2.2510 -0.5028 -1.5309
   67SAPC  H19S 5631   6.762   0.544   8.350 -0.0526 -0.2659 -0.6139
   67SAPC  C220 5632   6.951   0.567   8.458 -0.3822  0.1387 -0.2361
   67SAPC  H20R 5633   6.974   0.672   8.432  0.3522  0.0812  0.1743
   67SAPC  H20S 5634   7.046   0.510   8.454 -1.2437 -1.3496  0.0331
   67SAPC  H20T 5635   6.909   0.542   8.558 -1.1901 -0.2684 -0.6721
   67SAPC   C33 5636   6.769   0.344   6.893 -0.4312  0.7773 -0.2813
   67SAPC   H3X 5637   6.859   0.368   6.831 -0.9671  0.9375 -1.0022
   67SAPC   H3Y 5638   6.701   0.283   6.830  0.8541 -0.1712 -0.7811
   67SAPC   C34 5639   6.822   0.249   7.000 -0.5482  0.2924  0.5057
   67SAPC   H4X 5640   6.737   0.246   7.073 -1.3315 -1.3270 -0.4558
   67SAPC   H4Y 5641   6.904   0.299   7.056 -0.9595  2.3379 -0.6814
   67SAPC   C35 5642   6.854   0.106   6.957 -0.6148 -0.2590  0.0487
   67SAPC   H5X 5643   6.931   0.110   6.877 -0.6127 -0.7907  0.0223
   67SAPC   H5Y 5644   6.755   0.068   6.924 -0.4281  0.7135 -1.7069
   67SAPC   C36 5645   6.896   0.012   7.073  0.2567 -0.1399  0.0964
   67SAPC   H6X 5646   6.992   0.049   7.114  1.4521 -0.6169 -2.1950
   67SAPC   H6Y 5647   6.917  -0.090   7.036  3.4365 -0.4973  2.7495
   67SAPC   C37 5648   6.794  -0.001   7.194  0.1742  0.0529  0.0716
   67SAPC   H7X 5649   6.697  -0.024   7.145 -0.7245  3.8982 -0.1207
   67SAPC   H7Y 5650   6.779   0.102   7.232 -2.0914  0.0510 -0.7769
   67SAPC   C38 5651   6.834  -0.103   7.301 -0.0691  0.0806  0.7660
   67SAPC   H8X 5652   6.928  -0.067   7.348  1.1426 -2.2869  0.2508
   67SAPC   H8Y 5653   6.864  -0.197   7.250 -0.0061 -0.2092  1.3287
   67SAPC   C39 5654   6.731  -0.112   7.415  0.6915  0.7339 -0.1394
   67SAPC   H9X 5655   6.627  -0.117   7.376  0.8303 -3.3528 -0.1149
   67SAPC   H9Y 5656   6.730  -0.024   7.483 -1.9476 -0.2348  1.1793
   67SAPC  C310 5657   6.755  -0.226   7.520 -0.4788 -0.8461  0.1023
   67SAPC  H10X 5658   6.743  -0.318   7.459  2.5089  0.9832 -3.4725
   67SAPC  H10Y 5659   6.682  -0.217   7.603  0.2496  5.0976  0.2752
   67SAPC  C311 5660   6.893  -0.242   7.581  0.1845 -0.5676 -1.0677
   67SAPC  H11X 5661   6.923  -0.146   7.628  0.9007 -1.0825 -0.4482
   67SAPC  H11Y 5662   6.965  -0.261   7.498  1.1545  1.7261 -0.7888
   67SAPC  C312 5663   6.905  -0.348   7.687  0.1845 -0.8701 -0.9913
   67SAPC  H12X 5664   7.000  -0.325   7.741 -0.1187  0.0709 -0.8432
   67SAPC  H12Y 5665   6.892  -0.452   7.652  0.6692 -1.6588  1.1084
   67SAPC  C313 5666   6.796  -0.334   7.798  0.3035 -0.6526 -1.0199
   67SAPC  H13X 5667   6.697  -0.371   7.765 -0.5944  0.7517  0.0286
   67SAPC  H13Y 5668   6.788  -0.224   7.809  3.4812 -0.1794 -2.6135
   67SAPC  C314 5669   6.834  -0.403   7.931  0.2674 -0.2382  0.5012
   67SAPC  H14X 5670   6.938  -0.383   7.963  1.1174 -3.0181 -0.4033
   67SAPC  H14Y 5671   6.824  -0.513   7.917  0.2577 -0.4006  1.7290
   67SAPC  C315 5672   6.740  -0.364   8.037 -1.0551  0.0507  0.4752
   67SAPC  H15X 5673   6.639  -0.409   8.023 -0.6078 -0.9878  0.5692
   67SAPC  H15Y 5674   6.737  -0.254   8.052  1.5374  0.4293 -1.5911
   67SAPC  C316 5675   6.796  -0.418   8.173 -0.5227 -0.1470  0.7909
   67SAPC  H16X 5676   6.895  -0.374   8.195 -1.3366  0.5339  3.2600
   67SAPC  H16Y 5677   6.800  -0.529   8.166  2.2877 -0.0171 -0.1190
   67SAPC  C317 5678   6.693  -0.396   8.294 -0.4705 -0.0182 -0.3057
   67SAPC  H17X 5679   6.604  -0.455   8.264  0.9251 -2.0604 -0.5536
   67SAPC  H17Y 5680   6.657  -0.292   8.284  2.2930  0.7827 -2.9475
   67SAPC  C318 5681   6.743  -0.426   8.438  0.1656  0.5938 -0.8082
   67SAPC  H18X 5682   6.663  -0.421   8.515  1.5050 -0.7399  0.7251
   67SAPC  H18Y 5683   6.822  -0.356   8.474 -2.2731  2.1055  1.7392
   67SAPC  H18Z 5684   6.775  -0.532   8.448 -0.3582  0.4870 -0.2828
   68SAPC     N 5685   4.442   6.137   6.024  0.1638 -0.4800 -0.3702
   68SAPC   C12 5686   4.558   6.216   5.966  0.3971 -0.4689  0.0343
   68SAPC  H12A 5687   4.533   6.222   5.861 -2.1035  0.2167  0.6207
   68SAPC  H12B 5688   4.646   6.156   5.984  0.9357  0.8535  1.8296
   68SAPC   C13 5689   4.320   6.191   5.967  0.1210  0.2419  0.3049
   68SAPC  H13A 5690   4.324   6.190   5.859  1.7012  3.4580  0.2665
   68SAPC  H13B 5691   4.234   6.133   5.998 -0.0230  0.4427  0.2823
   68SAPC  H13C 5692   4.298   6.293   5.995 -1.2861  0.4167 -1.3118
   68SAPC   C14 5693   4.447   5.993   5.977 -0.2592  0.1058  0.2963
   68SAPC  H14A 5694   4.548   5.960   5.997 -0.8858 -1.7558  0.4728
   68SAPC  H14B 5695   4.395   5.930   6.047  0.9318 -0.3426  0.7921
   68SAPC  H14C 5696   4.407   5.981   5.878  0.4363  1.5876 -0.1871
   68SAPC   C15 5697   4.437   6.135   6.171  0.5783  0.2198 -0.0869
   68SAPC  H15A 5698   4.346   6.090   6.210  0.6700  0.4700  0.4120
   68SAPC  H15B 5699   4.523   6.081   6.206  2.2017  2.9011  0.1674
   68SAPC  H15C 5700   4.448   6.230   6.220 -2.6060  0.6090  0.0037
   68SAPC   C11 5701   4.580   6.363   6.018  0.0534  0.6779  0.5023
   68SAPC  H11A 5702   4.681   6.391   5.981  0.3811 -1.4074 -0.2747
   68SAPC  H11B 5703   4.573   6.361   6.129 -0.6017 -1.1687  0.4482
   68SAPC     P 5704   4.450   6.594   6.022  0.1436 -0.3009 -0.0665
   68SAPC   O13 5705   4.541   6.695   5.952  0.0844  0.1482 -0.2131
   68SAPC   O14 5706   4.303   6.608   6.021 -0.1920 -0.0805 -0.2406
   68SAPC   O12 5707   4.475   6.444   5.967 -0.2996  0.2444 -0.0623
   68SAPC   O11 5708   4.487   6.580   6.176  0.1452 -0.1601  0.5177
   68SAPC    C1 5709   4.587   6.659   6.241  0.6589  0.0322  0.2632
   68SAPC    HA 5710   4.685   6.651   6.189  1.0560  1.7693  0.7252
   68SAPC    HB 5711   4.570   6.768   6.249 -0.7305 -0.3244  2.4227
   68SAPC    C2 5712   4.611   6.603   6.384  0.7219  0.6090  0.2216
   68SAPC    HS 5713   4.714   6.629   6.417  1.8954 -1.3303 -1.8168
   68SAPC   O21 5714   4.593   6.458   6.388  0.6189  0.4257 -0.3143
   68SAPC   C21 5715   4.696   6.385   6.350 -0.4326  0.4623  0.4193
   68SAPC   O22 5716   4.796   6.432   6.300 -0.8100  0.2944  0.0466
   68SAPC   C22 5717   4.686   6.235   6.399  0.3444 -1.0868  0.2214
   68SAPC   H2R 5718   4.709   6.238   6.507 -0.1883  0.4973  0.3030
   68SAPC   H2S 5719   4.583   6.198   6.379 -0.4474 -0.0120  2.1574
   68SAPC    C3 5720   4.517   6.674   6.485 -0.4330 -0.6762 -0.1150
   68SAPC    HX 5721   4.418   6.626   6.470 -1.0816 -0.7118  3.8053
   68SAPC    HY 5722   4.517   6.783   6.465 -0.3948 -0.7382 -0.4578
   68SAPC   O31 5723   4.572   6.647   6.621  0.3312  0.1348  0.9079
   68SAPC   C31 5724   4.567   6.744   6.713  0.3567  0.2709  0.0962
   68SAPC   O32 5725   4.488   6.840   6.712  0.1834 -0.2081  0.6089
   68SAPC   C32 5726   4.665   6.709   6.818  0.0479 -0.2266  0.6744
   68SAPC   H2X 5727   4.766   6.750   6.793 -0.3844  0.3396 -0.1850
   68SAPC   H2Y 5728   4.670   6.598   6.818  1.9977 -0.1638  1.9155
   68SAPC   C23 5729   4.789   6.140   6.337 -0.6987  0.4087  0.6339
   68SAPC   H3R 5730   4.890   6.181   6.361 -1.1737  1.7724  0.3684
   68SAPC   H3S 5731   4.781   6.117   6.229 -0.3795 -1.5756  1.0271
   68SAPC   C24 5732   4.785   6.009   6.423  0.2717 -0.3775  0.3570
   68SAPC   H4R 5733   4.805   6.032   6.530  0.8206  0.7439  0.0227
   68SAPC   H4S 5734   4.867   5.945   6.385  0.2143 -1.0369  1.3351
   68SAPC   C25 5735   4.664   5.930   6.411  0.2941  0.9526 -0.5061
   68SAPC   H5R 5736   4.638   5.916   6.305  0.2105  1.4856 -0.5564
   68SAPC   C26 5737   4.591   5.858   6.501  0.1003  0.2162 -0.4834
   68SAPC   H6R 5738   4.505   5.803   6.461  1.1376 -1.2170 -0.8169
   68SAPC   C27 5739   4.616   5.832   6.650  0.4570 -0.6536 -0.4703
   68SAPC   H7R 5740   4.519   5.788   6.684  0.8280  0.2930  1.9017
   68SAPC   H7S 5741   4.634   5.921   6.713 -1.7584 -0.2711 -0.3455
   68SAPC   C28 5742   4.731   5.733   6.661  0.0015  0.2987  0.5996
   68SAPC   H8R 5743   4.753   5.665   6.578  1.3095  2.0544 -0.5106
   68SAPC   C29 5744   4.802   5.715   6.768 -0.2744 -0.0057  0.8312
   68SAPC   H9R 5745   4.892   5.651   6.761 -0.6854 -0.4690 -0.1763
   68SAPC  C210 5746   4.797   5.794   6.898 -0.1126 -0.2564 -0.1565
   68SAPC  H10R 5747   4.752   5.894   6.879 -0.2545 -0.4273 -0.7231
   68SAPC  H10S 5748   4.900   5.822   6.929 -0.2230 -0.8039  0.7331
   68SAPC  C211 5749   4.731   5.724   7.011 -0.0892  0.3032  0.2624
   68SAPC  H11R 5750   4.669   5.641   6.974 -0.5208  1.1062 -0.8385
   68SAPC  C212 5751   4.740   5.759   7.140 -0.3384  0.4895 -0.4778
   68SAPC  H12R 5752   4.656   5.709   7.192 -1.0606  1.6930 -0.4650
   68SAPC  C213 5753   4.820   5.859   7.206 -0.0640 -0.0585 -0.4341
   68SAPC  H13R 5754   4.757   5.943   7.242  1.7592  1.0813  0.1231
   68SAPC  H13S 5755   4.899   5.902   7.140  1.7647  0.2674  1.8989
   68SAPC  C214 5756   4.881   5.780   7.323 -0.3441 -0.2670  0.0431
   68SAPC  H14R 5757   4.814   5.742   7.401 -1.3017 -0.8479 -1.0645
   68SAPC  C215 5758   5.019   5.760   7.340 -0.5118  0.8180 -0.0579
   68SAPC  H15R 5759   5.053   5.696   7.423  0.2171  2.4287  0.9049
   68SAPC  C216 5760   5.126   5.817   7.249 -0.2971  0.1782  0.8958
   68SAPC  H16R 5761   5.215   5.852   7.306 -0.1534  1.6149 -0.1871
   68SAPC  H16S 5762   5.091   5.912   7.203  0.0393 -0.9385 -1.7989
   68SAPC  C217 5763   5.167   5.714   7.142 -0.7911 -0.1482  0.2592
   68SAPC  H17R 5764   5.072   5.672   7.102 -1.1058 -0.8898  1.7370
   68SAPC  H17S 5765   5.226   5.636   7.195 -1.5311  0.1941  1.6196
   68SAPC  C218 5766   5.261   5.768   7.036  0.3058  0.1247  0.0415
   68SAPC  H18R 5767   5.357   5.772   7.092  0.8103  1.1672 -0.8830
   68SAPC  H18S 5768   5.234   5.868   6.996  0.9880  0.6805  0.9412
   68SAPC  C219 5769   5.305   5.673   6.923 -0.3742 -0.5947 -0.7219
   68SAPC  H19R 5770   5.214   5.659   6.860 -0.5619  0.6448 -0.7410
   68SAPC  H19S 5771   5.325   5.575   6.972 -0.2674 -0.3335 -0.2378
   68SAPC  C220 5772   5.436   5.712   6.840 -0.3844  0.6617 -0.2058
   68SAPC  H20R 5773   5.521   5.720   6.911 -1.0032 -0.5110  0.6758
   68SAPC  H20S 5774   5.432   5.802   6.775 -1.0908 -0.6573 -2.0537
   68SAPC  H20T 5775   5.450   5.621   6.777  1.5363  0.8758 -0.1079
   68SAPC   C33 5776   4.620   6.755   6.958 -0.0071  0.3826  0.4381
   68SAPC   H3X 5777   4.517   6.726   6.988  0.1194  1.1807  1.6588
   68SAPC   H3Y 5778   4.619   6.866   6.961 -0.0415  0.3458  2.0033
   68SAPC   C34 5779   4.721   6.728   7.066  0.1529  0.2013 -0.6032
   68SAPC   H4X 5780   4.819   6.774   7.043  0.6967 -0.6137  0.0485
   68SAPC   H4Y 5781   4.730   6.617   7.075 -3.5569 -0.3386 -2.5240
   68SAPC   C35 5782   4.692   6.799   7.197 -0.3007  0.1952  0.1012
   68SAPC   H5X 5783   4.591   6.775   7.235  0.0328 -0.8762  0.3429
   68SAPC   H5Y 5784   4.702   6.910   7.190 -0.7303  0.2377  0.2050
   68SAPC   C36 5785   4.802   6.765   7.298 -0.0484 -0.2884  0.6365
   68SAPC   H6X 5786   4.902   6.782   7.252  0.1377 -0.2040  1.0630
   68SAPC   H6Y 5787   4.802   6.654   7.299 -2.3970 -0.3124 -0.1642
   68SAPC   C37 5788   4.780   6.820   7.438 -0.9315  0.5684  0.2142
   68SAPC   H7X 5789   4.684   6.784   7.481 -0.3125 -1.6418 -0.1973
   68SAPC   H7Y 5790   4.780   6.931   7.440 -1.0072  0.5622  2.4587
   68SAPC   C38 5791   4.895   6.770   7.530 -0.3989  0.1882  0.4325
   68SAPC   H8X 5792   5.000   6.796   7.504 -0.9670  1.8009 -0.3034
   68SAPC   H8Y 5793   4.897   6.659   7.536  0.4938  0.1872  0.2671
   68SAPC   C39 5794   4.863   6.817   7.672 -0.3219 -0.3336  0.5420
   68SAPC   H9X 5795   4.754   6.797   7.683 -0.0684 -1.3281  1.3570
   68SAPC   H9Y 5796   4.867   6.928   7.669 -0.6540 -0.3720 -3.1161
   68SAPC  C310 5797   4.942   6.762   7.791 -0.1995  0.1372  0.1444
   68SAPC  H10X 5798   5.038   6.817   7.785 -0.6787  1.0427  0.8146
   68SAPC  H10Y 5799   4.958   6.652   7.783  0.0602  0.1580  0.3984
   68SAPC  C311 5800   4.882   6.803   7.921 -0.3246 -0.1035 -0.1002
   68SAPC  H11X 5801   4.778   6.771   7.939 -0.8861  1.5683 -0.2785
   68SAPC  H11Y 5802   4.869   6.913   7.926  0.1408  0.0619 -2.1163
   68SAPC  C312 5803   4.964   6.750   8.050  0.3003  0.5233 -0.0413
   68SAPC  H12X 5804   4.998   6.652   8.011 -1.0008 -0.2492  0.6876
   68SAPC  H12Y 5805   4.888   6.738   8.131 -2.1542  0.2968 -2.3064
   68SAPC  C313 5806   5.085   6.832   8.097 -0.0269  1.3007  0.1733
   68SAPC  H13X 5807   5.152   6.854   8.011  0.3815  0.6063  0.3052
   68SAPC  H13Y 5808   5.143   6.761   8.160 -1.5685  1.3652  1.6990
   68SAPC  C314 5809   5.033   6.955   8.183 -0.4454 -0.7930 -0.3646
   68SAPC  H14X 5810   4.954   6.909   8.247  0.7789 -1.0513  0.9881
   68SAPC  H14Y 5811   4.990   7.033   8.116  1.6114  2.4613  1.9830
   68SAPC  C315 5812   5.146   7.006   8.272 -0.7118 -0.5364 -0.1801
   68SAPC  H15X 5813   5.241   7.021   8.217  0.1486 -0.4200  1.2902
   68SAPC  H15Y 5814   5.180   6.927   8.343 -0.7032  0.3869  0.8597
   68SAPC  C316 5815   5.102   7.132   8.357 -0.5692  0.4469  0.3945
   68SAPC  H16X 5816   5.185   7.161   8.424 -2.3054 -0.0118  2.8289
   68SAPC  H16Y 5817   5.019   7.095   8.420 -0.7275 -1.0128 -0.6455
   68SAPC  C317 5818   5.053   7.248   8.279 -0.3441 -0.1089  0.0686
   68SAPC  H17X 5819   5.002   7.334   8.328  0.4940  2.0894 -2.7441
   68SAPC  H17Y 5820   4.989   7.219   8.193 -0.2271 -0.4611  0.1004
   68SAPC  C318 5821   5.179   7.312   8.216 -0.4499 -1.2719  0.6993
   68SAPC  H18X 5822   5.237   7.345   8.305  1.1397 -0.7259 -0.5171
   68SAPC  H18Y 5823   5.163   7.403   8.154  0.6866 -1.2445  0.4490
   68SAPC  H18Z 5824   5.234   7.231   8.165 -0.5258 -2.6463  2.7664
   69SLPC     N 5825   2.728   4.608  11.198 -0.1313  0.3403 -0.3055
   69SLPC   C13 5826   2.775   4.472  11.223 -0.3681 -0.0089  0.0927
   69SLPC  H13A 5827   2.774   4.441  11.327 -1.4165 -1.4459 -0.3275
   69SLPC  H13B 5828   2.710   4.402  11.173  1.0021 -0.3856 -1.1939
   69SLPC  H13C 5829   2.868   4.463  11.170 -0.3821  1.8733 -0.2950
   69SLPC   C14 5830   2.848   4.704  11.212  0.1385 -0.2012 -0.4877
   69SLPC  H14A 5831   2.823   4.808  11.199  1.0324  0.1649  0.6933
   69SLPC  H14B 5832   2.889   4.693  11.311  1.1017 -2.4615 -1.1011
   69SLPC  H14C 5833   2.933   4.675  11.151  0.4264 -0.3698 -0.0062
   69SLPC   C15 5834   2.621   4.646  11.300  0.1526 -0.3453 -0.4061
   69SLPC  H15A 5835   2.591   4.750  11.301  1.1044 -0.0653  0.2109
   69SLPC  H15B 5836   2.539   4.576  11.295 -1.8360  1.8190  1.3110
   69SLPC  H15C 5837   2.665   4.624  11.396 -1.3953 -2.0879 -0.0612
   69SLPC   C12 5838   2.668   4.613  11.055 -0.3570 -0.0633 -0.2851
   69SLPC  H12A 5839   2.740   4.587  10.979  0.2836  0.2244  0.2124
   69SLPC  H12B 5840   2.647   4.717  11.038 -0.3301  0.0567  0.3956
   69SLPC   C11 5841   2.544   4.528  11.033 -0.2476 -0.8437  0.2925
   69SLPC  H11A 5842   2.496   4.549  10.935 -0.3506  0.1741  0.5636
   69SLPC  H11B 5843   2.470   4.558  11.111 -0.9649 -0.9420 -0.3421
   69SLPC     P 5844   2.449   4.286  11.030  0.0865 -0.0748  0.1787
   69SLPC   O13 5845   2.451   4.193  11.147  0.2355 -0.1023  0.4057
   69SLPC   O14 5846   2.324   4.369  11.014  0.2875 -0.2950  0.6971
   69SLPC   O12 5847   2.574   4.387  11.044  0.6544 -0.8965 -0.3687
   69SLPC   O11 5848   2.471   4.198  10.906 -0.1786 -0.0346 -0.1145
   69SLPC    C1 5849   2.601   4.146  10.872  0.5749 -0.0391  0.1923
   69SLPC    HA 5850   2.682   4.161  10.947 -0.1995 -1.3971  1.3356
   69SLPC    HB 5851   2.599   4.035  10.864 -1.7694 -0.2745  3.0027
   69SLPC    C2 5852   2.641   4.196  10.731  0.5090  0.7041 -0.4265
   69SLPC    HS 5853   2.730   4.140  10.693  0.5913  0.4720  0.1021
   69SLPC   O21 5854   2.657   4.334  10.713  0.2659 -0.4880 -0.8794
   69SLPC   C21 5855   2.766   4.377  10.766 -0.2968  0.3579 -0.2825
   69SLPC   O22 5856   2.856   4.304  10.818  0.4051  0.0845 -0.2559
   69SLPC   C22 5857   2.771   4.530  10.743  0.5660 -0.1845 -0.4611
   69SLPC   H2R 5858   2.669   4.564  10.716  0.0446  0.5434  2.3452
   69SLPC   H2S 5859   2.815   4.572  10.836  1.0808 -1.2923 -0.1976
   69SLPC    C3 5860   2.529   4.156  10.618  0.3840 -0.3281  0.0997
   69SLPC    HX 5861   2.442   4.217  10.651  1.4367  0.8079  0.8320
   69SLPC    HY 5862   2.497   4.050  10.622  1.5650 -0.6318  2.5849
   69SLPC   O31 5863   2.551   4.205  10.484 -0.2034  0.2311  0.2098
   69SLPC   C31 5864   2.645   4.145  10.424  0.7622  1.0565  0.7717
   69SLPC   O32 5865   2.703   4.044  10.464  0.4664 -0.5933  0.2705
   69SLPC   C32 5866   2.658   4.211  10.281  0.3412  0.3139 -0.7958
   69SLPC   H2X 5867   2.743   4.283  10.279  0.5552  0.0423 -3.4025
   69SLPC   H2Y 5868   2.562   4.256  10.248 -0.3485 -1.7562 -1.6762
   69SLPC   C23 5869   2.871   4.546  10.624  0.1527  0.2323 -0.1008
   69SLPC   H3R 5870   2.941   4.462  10.608  0.2288  0.2295  0.2473
   69SLPC   H3S 5871   2.931   4.639  10.637 -2.5966  2.3262 -1.7816
   69SLPC   C24 5872   2.798   4.552  10.490 -0.0809 -0.3614  0.0047
   69SLPC   H4R 5873   2.733   4.641  10.502  1.5831  0.5583  2.7644
   69SLPC   H4S 5874   2.736   4.463  10.470  0.1132 -0.9514  1.8577
   69SLPC   C25 5875   2.892   4.564  10.375 -0.7129  0.1072  0.6612
   69SLPC   H5R 5876   2.944   4.467  10.361 -2.4521 -0.9206  1.1115
   69SLPC   H5S 5877   2.966   4.643  10.399  0.6462 -1.0491  0.2863
   69SLPC   C26 5878   2.821   4.592  10.243  0.6539  0.4915 -0.1635
   69SLPC   H6R 5879   2.784   4.499  10.195  1.1624 -0.3375  1.0483
   69SLPC   H6S 5880   2.896   4.636  10.174  0.3669  2.3809  0.6985
   69SLPC   C27 5881   2.715   4.699  10.247  0.1345 -0.7408  0.6900
   69SLPC   H7R 5882   2.743   4.797  10.290 -0.0535 -0.1793 -0.4450
   69SLPC   H7S 5883   2.623   4.668  10.303 -1.1402  0.7195 -0.5561
   69SLPC   C28 5884   2.648   4.731  10.112 -0.3179  1.2155 -0.8809
   69SLPC   H8R 5885   2.546   4.766  10.138 -0.8411 -0.4385 -0.6578
   69SLPC   H8S 5886   2.626   4.635  10.062 -1.0668  0.6389  0.5197
   69SLPC   C29 5887   2.732   4.826  10.030  0.2677  0.0582  0.4788
   69SLPC   H9R 5888   2.787   4.901  10.090  0.4570 -0.3389  0.8047
   69SLPC  C210 5889   2.756   4.826   9.898  0.1524 -0.6715 -0.4163
   69SLPC  H10R 5890   2.819   4.909   9.863  0.6153 -0.5562  0.6753
   69SLPC  C211 5891   2.693   4.727   9.799  0.6016  0.1127 -0.1376
   69SLPC  H11R 5892   2.593   4.759   9.763  0.9858  0.3684 -0.9731
   69SLPC  H11S 5893   2.671   4.626   9.841 -1.8764  0.6750 -0.0388
   69SLPC  C212 5894   2.792   4.700   9.688  0.0416 -0.1794 -0.6035
   69SLPC  H12R 5895   2.855   4.612   9.705 -3.0712 -2.4212 -0.2103
   69SLPC  C213 5896   2.829   4.784   9.588  0.0755  0.3946 -0.0012
   69SLPC  H13R 5897   2.908   4.743   9.523  0.8469  0.7155  0.7096
   69SLPC  C214 5898   2.782   4.922   9.560 -0.2766 -0.0615  0.4574
   69SLPC  H14R 5899   2.867   4.980   9.520  1.8201 -3.3906 -0.1280
   69SLPC  H14S 5900   2.754   4.976   9.653 -1.2814 -1.3742  0.9357
   69SLPC  C215 5901   2.667   4.930   9.452 -0.4829 -0.2991  0.1121
   69SLPC  H15R 5902   2.631   5.033   9.434 -0.2799 -0.0203  1.2470
   69SLPC  H15S 5903   2.577   4.872   9.480  0.3535 -2.3049 -1.2276
   69SLPC  C216 5904   2.716   4.882   9.316 -0.0878  0.5513 -0.0297
   69SLPC  H16R 5905   2.758   4.781   9.334  1.7572  1.1011 -1.0991
   69SLPC  H16S 5906   2.809   4.937   9.291  0.8689 -0.8274  0.4317
   69SLPC  C217 5907   2.617   4.875   9.203 -0.0117  0.1619 -0.2078
   69SLPC  H17R 5908   2.527   4.820   9.238  0.3199  0.9381  1.8965
   69SLPC  H17S 5909   2.665   4.822   9.118  1.1178 -0.3862  0.7728
   69SLPC  C218 5910   2.559   5.011   9.157  0.2929 -0.1290 -0.4808
   69SLPC  H18R 5911   2.637   5.075   9.111  0.2509  0.3456  0.1137
   69SLPC  H18S 5912   2.512   5.074   9.235  0.0476  0.2641 -0.9416
   69SLPC  H18T 5913   2.474   4.982   9.091  0.6984 -1.8364 -0.2771
   69SLPC   C33 5914   2.697   4.101  10.182 -0.0741 -1.1936 -0.3523
   69SLPC   H3X 5915   2.638   4.008  10.187 -1.9689  0.0449  0.9162
   69SLPC   H3Y 5916   2.803   4.078  10.207  0.4693  2.0601  0.6701
   69SLPC   C34 5917   2.691   4.147  10.038  0.4482  0.5637 -0.7930
   69SLPC   H4X 5918   2.599   4.198  10.002 -1.5364 -1.3568  1.3879
   69SLPC   H4Y 5919   2.717   4.049   9.991 -0.8802 -0.0793 -0.2101
   69SLPC   C35 5920   2.811   4.235   9.995 -0.3929 -0.2706  0.1434
   69SLPC   H5X 5921   2.906   4.184  10.020 -0.7338 -2.4415 -2.7682
   69SLPC   H5Y 5922   2.802   4.337  10.039  0.8822  0.3982 -1.1315
   69SLPC   C36 5923   2.815   4.254   9.839 -0.3654 -0.2949 -0.2686
   69SLPC   H6X 5924   2.731   4.319   9.806 -1.6331 -2.1588 -0.8074
   69SLPC   H6Y 5925   2.807   4.156   9.788  1.3105 -1.5469  1.8156
   69SLPC   C37 5926   2.941   4.329   9.786 -0.2655  0.2717 -0.3038
   69SLPC   H7X 5927   3.015   4.291   9.860 -2.2339  0.5855  1.8587
   69SLPC   H7Y 5928   2.931   4.437   9.806 -0.3157  0.3041 -0.5022
   69SLPC   C38 5929   2.969   4.301   9.636  0.6283 -0.5514 -0.1816
   69SLPC   H8X 5930   2.993   4.193   9.631 -0.8093 -0.9565  1.0937
   69SLPC   H8Y 5931   3.064   4.352   9.611  0.2046  0.1478 -0.3940
   69SLPC   C39 5932   2.857   4.341   9.536 -0.0872 -0.3427 -0.5635
   69SLPC   H9X 5933   2.823   4.445   9.555 -2.6880 -1.3440  0.5917
   69SLPC   H9Y 5934   2.774   4.273   9.567  0.1161 -0.1828  0.3242
   69SLPC  C310 5935   2.888   4.309   9.389 -0.2371  0.0724  0.8781
   69SLPC  H10X 5936   2.796   4.294   9.329  0.0553  0.2489  0.3807
   69SLPC  H10Y 5937   2.950   4.217   9.385  1.3065  1.1492 -0.9176
   69SLPC  C311 5938   2.974   4.417   9.319 -0.1922 -1.0768  0.1284
   69SLPC  H11X 5939   3.021   4.374   9.228 -0.7861  0.6595 -1.0154
   69SLPC  H11Y 5940   3.057   4.436   9.390 -2.1803  0.8273  2.0305
   69SLPC  C312 5941   2.911   4.549   9.283 -0.4999  0.1895 -0.2160
   69SLPC  H12X 5942   2.868   4.593   9.376 -0.0661 -0.3402  0.2438
   69SLPC  H12Y 5943   2.830   4.523   9.212  1.6939 -1.2022 -2.2744
   69SLPC  C313 5944   2.988   4.658   9.210  0.0648  0.3743  0.1735
   69SLPC  H13X 5945   3.087   4.666   9.260  0.2326 -1.1602  0.1179
   69SLPC  H13Y 5946   2.925   4.749   9.213 -2.0079 -1.0523  3.2382
   69SLPC  C314 5947   3.014   4.625   9.057  0.3277 -0.0624  0.4469
   69SLPC  H14X 5948   2.917   4.612   9.005 -0.0027  0.4800  0.9179
   69SLPC  H14Y 5949   3.080   4.536   9.046 -0.8787 -0.6920 -1.9301
   69SLPC  C315 5950   3.078   4.744   8.997  0.4318  0.3666  0.1629
   69SLPC  H15X 5951   3.168   4.764   9.059  1.0615  1.0208 -0.9506
   69SLPC  H15Y 5952   3.012   4.833   9.004  1.4703  1.2833 -1.3139
   69SLPC  C316 5953   3.124   4.712   8.852 -0.3592  0.4682  0.2884
   69SLPC  H16X 5954   3.171   4.612   8.856 -0.7996  0.2995  1.3042
   69SLPC  H16Y 5955   3.204   4.783   8.823  0.6528 -1.2606 -1.2668
   69SLPC  C317 5956   3.007   4.721   8.752  0.6137 -0.0794  0.9824
   69SLPC  H17X 5957   2.975   4.827   8.737 -0.9803 -0.9190 -1.8232
   69SLPC  H17Y 5958   2.925   4.657   8.790 -0.7289  0.4480 -0.9349
   69SLPC  C318 5959   3.046   4.664   8.618  0.1978 -0.7028  0.0411
   69SLPC  H18X 5960   3.012   4.558   8.618 -0.2689 -0.5700  1.9895
   69SLPC  H18Y 5961   3.156   4.664   8.602  0.6212  1.7214  2.5174
   69SLPC  H18Z 5962   2.985   4.714   8.540 -0.4983 -0.9905  0.3976
   70SLPC     N 5963   4.250   1.963  11.336  0.1631 -0.2416  0.3428
   70SLPC   C13 5964   4.111   2.014  11.363 -0.6594 -0.4441  0.6147
   70SLPC  H13A 5965   4.082   2.023  11.466  0.1419 -0.2688  0.8280
   70SLPC  H13B 5966   4.093   2.114  11.327  1.6896 -0.1639  0.1813
   70SLPC  H13C 5967   4.034   1.953  11.317  1.0090 -0.8834 -1.6772
   70SLPC   C14 5968   4.265   1.836  11.418 -0.1305 -0.0944 -0.2501
   70SLPC  H14A 5969   4.180   1.772  11.400 -0.3770  0.9261 -2.8728
   70SLPC  H14B 5970   4.352   1.786  11.376  0.2758  1.2982 -1.1163
   70SLPC  H14C 5971   4.271   1.854  11.524 -0.2127  0.4955 -0.3452
   70SLPC   C15 5972   4.343   2.079  11.388  0.9220  0.2270 -0.6957
   70SLPC  H15A 5973   4.322   2.168  11.331  3.3323  0.0013 -2.0085
   70SLPC  H15B 5974   4.332   2.086  11.495 -0.6506  0.5906 -0.8625
   70SLPC  H15C 5975   4.442   2.045  11.361 -0.2735 -3.0139 -1.2157
   70SLPC   C12 5976   4.284   1.936  11.197 -0.4882  0.1505 -0.1969
   70SLPC  H12A 5977   4.390   1.913  11.193 -0.6513 -0.5996 -0.2039
   70SLPC  H12B 5978   4.268   2.024  11.136 -0.6286  0.6730  0.5976
   70SLPC   C11 5979   4.217   1.816  11.119  0.7415  0.5824  0.5443
   70SLPC  H11A 5980   4.225   1.721  11.176 -0.2947 -0.2428 -0.6724
   70SLPC  H11B 5981   4.271   1.794  11.024 -0.9817 -0.9315 -0.1114
   70SLPC     P 5982   4.034   1.920  10.973 -0.4407 -0.3812  0.1223
   70SLPC   O13 5983   3.889   1.900  10.969 -0.0119 -0.0335  0.2575
   70SLPC   O14 5984   4.088   2.059  10.980  0.4918 -0.4970  0.1059
   70SLPC   O12 5985   4.082   1.845  11.103 -0.6720 -0.2538 -0.2240
   70SLPC   O11 5986   4.105   1.846  10.851  0.0519 -0.1669  0.0878
   70SLPC    C1 5987   4.089   1.707  10.825 -0.5539  0.1075  0.4497
   70SLPC    HA 5988   4.186   1.654  10.838 -1.2871 -1.4640 -0.3458
   70SLPC    HB 5989   4.020   1.656  10.895  0.2907 -0.6206  0.7530
   70SLPC    C2 5990   4.027   1.686  10.683 -0.4341  0.5217 -1.0589
   70SLPC    HS 5991   4.014   1.576  10.670  0.6050  0.2502  0.0043
   70SLPC   O21 5992   4.128   1.728  10.592  0.2802 -0.0918 -0.2986
   70SLPC   C21 5993   4.219   1.636  10.550  0.3250  0.6593 -1.0080
   70SLPC   O22 5994   4.217   1.517  10.586  0.0625 -0.9300 -0.2248
   70SLPC   C22 5995   4.318   1.697  10.457  0.0586 -0.1437  0.1089
   70SLPC   H2R 5996   4.407   1.740  10.509  0.1930  1.0496 -1.0836
   70SLPC   H2S 5997   4.365   1.617  10.396  0.3919 -1.3516  1.9218
   70SLPC    C3 5998   3.896   1.766  10.663 -0.5154  0.3843  0.6218
   70SLPC    HX 5999   3.931   1.871  10.658 -0.5890  0.4343  1.1276
   70SLPC    HY 6000   3.823   1.747  10.745 -0.3029  3.0578  1.4698
   70SLPC   O31 6001   3.858   1.717  10.530  0.0711  0.1192  0.1703
   70SLPC   C31 6002   3.813   1.822  10.456 -0.0212 -0.4032 -0.3487
   70SLPC   O32 6003   3.775   1.924  10.503  0.4991 -1.1392 -0.3898
   70SLPC   C32 6004   3.828   1.783  10.303  0.0275 -0.1881 -0.6785
   70SLPC   H2X 6005   3.750   1.709  10.278  1.1123 -2.0520  1.2671
   70SLPC   H2Y 6006   3.917   1.719  10.287  1.3963  0.7684  2.4447
   70SLPC   C23 6007   4.261   1.809  10.363  0.4231  0.5675  0.2519
   70SLPC   H3R 6008   4.256   1.905  10.419  0.3382 -0.1766  1.5375
   70SLPC   H3S 6009   4.160   1.784  10.325  0.9537 -1.8036  0.3404
   70SLPC   C24 6010   4.349   1.820  10.238 -0.6719  1.0496  1.0929
   70SLPC   H4R 6011   4.318   1.733  10.176  0.2267  0.4922  1.4093
   70SLPC   H4S 6012   4.455   1.812  10.273 -0.2813  1.4003 -0.0081
   70SLPC   C25 6013   4.310   1.954  10.174 -0.6239 -0.3811 -0.6074
   70SLPC   H5R 6014   4.297   2.032  10.251 -1.4790 -0.5888 -0.5345
   70SLPC   H5S 6015   4.206   1.935  10.139 -0.2022 -0.5762 -1.7808
   70SLPC   C26 6016   4.385   1.997  10.050 -0.7848 -0.0455 -0.0523
   70SLPC   H6R 6017   4.491   2.022  10.071 -0.2171 -1.2550 -1.3672
   70SLPC   H6S 6018   4.340   2.094  10.021 -0.1976  0.6040  1.1749
   70SLPC   C27 6019   4.391   1.890   9.942  0.1005 -0.1538 -0.1116
   70SLPC   H7R 6020   4.295   1.835   9.938 -0.5050  0.9909 -1.6849
   70SLPC   H7S 6021   4.477   1.826   9.973  1.5428  1.1725 -1.2667
   70SLPC   C28 6022   4.421   1.934   9.799  0.1960 -0.4654  0.0864
   70SLPC   H8R 6023   4.430   1.842   9.737 -2.8064 -1.7574  1.4147
   70SLPC   H8S 6024   4.515   1.993   9.796 -0.2998  0.3227 -0.0291
   70SLPC   C29 6025   4.309   2.025   9.737  0.0357 -0.7950  0.1157
   70SLPC   H9R 6026   4.229   2.062   9.803  0.1035 -0.5098  0.0412
   70SLPC  C210 6027   4.321   2.088   9.617  0.0527 -0.2278  0.1930
   70SLPC  H10R 6028   4.237   2.136   9.566  2.1650  2.5848 -0.7563
   70SLPC  C211 6029   4.441   2.054   9.534  0.0426 -0.4936 -0.3234
   70SLPC  H11R 6030   4.480   1.952   9.554  0.5418  0.3829  3.6170
   70SLPC  H11S 6031   4.529   2.109   9.574 -0.4464  0.3409 -0.3813
   70SLPC  C212 6032   4.417   2.081   9.385  0.4466  0.1158 -0.5885
   70SLPC  H12R 6033   4.352   2.001   9.347 -1.9661  1.0231  1.5646
   70SLPC  C213 6034   4.485   2.162   9.303 -0.7529 -0.4072  0.0616
   70SLPC  H13R 6035   4.456   2.159   9.197 -0.3149 -0.4887 -0.0556
   70SLPC  C214 6036   4.602   2.241   9.340 -0.3184  0.0942 -0.0956
   70SLPC  H14R 6037   4.675   2.233   9.256 -0.1913  2.7637 -0.2745
   70SLPC  H14S 6038   4.652   2.199   9.431 -1.6180 -1.0444  0.1079
   70SLPC  C215 6039   4.583   2.398   9.354  0.9247 -0.5663 -0.7287
   70SLPC  H15R 6040   4.683   2.440   9.380  0.5062 -0.5320  0.8512
   70SLPC  H15S 6041   4.510   2.429   9.431 -1.5096 -1.9094 -2.4505
   70SLPC  C216 6042   4.539   2.469   9.225 -0.0924  0.0922 -0.2208
   70SLPC  H16R 6043   4.443   2.422   9.194  0.1944 -0.2806 -0.5375
   70SLPC  H16S 6044   4.609   2.460   9.140  1.6121 -2.3316  1.3972
   70SLPC  C217 6045   4.510   2.620   9.238 -0.8100  0.1187  0.5789
   70SLPC  H17R 6046   4.606   2.654   9.282 -0.2915  0.6251 -0.9301
   70SLPC  H17S 6047   4.437   2.618   9.322 -2.1956 -3.4634 -0.6131
   70SLPC  C218 6048   4.469   2.700   9.116  0.0761  0.6278 -0.6102
   70SLPC  H18R 6049   4.547   2.697   9.037  0.5409 -0.4311 -0.1262
   70SLPC  H18S 6050   4.443   2.796   9.166 -0.9200 -0.8936  1.9202
   70SLPC  H18T 6051   4.371   2.662   9.081 -1.3966  5.1665 -1.7920
   70SLPC   C33 6052   3.843   1.909  10.219 -0.4768  0.9157 -0.0866
   70SLPC   H3X 6053   3.937   1.954  10.258 -0.8762  1.7142 -0.0232
   70SLPC   H3Y 6054   3.748   1.966  10.226 -0.2895  1.2991 -0.6404
   70SLPC   C34 6055   3.862   1.867  10.068  0.3614 -0.6092  0.1988
   70SLPC   H4X 6056   3.765   1.827  10.032 -0.8542  1.8783  0.6008
   70SLPC   H4Y 6057   3.939   1.787  10.062  0.2536 -0.6595 -0.6917
   70SLPC   C35 6058   3.901   1.977   9.981 -0.1785 -0.2113  0.0986
   70SLPC   H5X 6059   4.000   2.021  10.007 -0.2615 -0.2554  0.4890
   70SLPC   H5Y 6060   3.835   2.065   9.993 -0.6648 -0.5514 -0.0386
   70SLPC   C36 6061   3.903   1.945   9.830 -0.9636 -0.0893  0.8399
   70SLPC   H6X 6062   3.958   1.852   9.803  0.2560 -0.0978  3.1802
   70SLPC   H6Y 6063   3.959   2.027   9.781 -1.4533 -1.2163 -1.7112
   70SLPC   C37 6064   3.766   1.957   9.767 -0.7343 -0.3463 -0.0016
   70SLPC   H7X 6065   3.732   2.062   9.774 -2.4011 -0.8045 -0.8588
   70SLPC   H7Y 6066   3.704   1.892   9.832 -0.2970  0.3131  1.0815
   70SLPC   C38 6067   3.769   1.907   9.620  0.3926 -0.1503  0.3914
   70SLPC   H8X 6068   3.676   1.939   9.568  0.5612 -1.0072 -0.4557
   70SLPC   H8Y 6069   3.782   1.797   9.623  0.7158 -0.0803  2.0755
   70SLPC   C39 6070   3.880   1.968   9.534  0.1419 -0.3202  0.2633
   70SLPC   H9X 6071   3.891   1.900   9.447 -1.1921  1.6001 -1.4576
   70SLPC   H9Y 6072   3.974   1.974   9.592 -0.9087 -0.5892  2.0488
   70SLPC  C310 6073   3.846   2.105   9.476  0.5610 -0.5782  0.2349
   70SLPC  H10X 6074   3.933   2.154   9.428 -0.1426 -0.6626 -1.1574
   70SLPC  H10Y 6075   3.806   2.175   9.552 -4.6217 -1.3094 -1.6372
   70SLPC  C311 6076   3.753   2.093   9.353 -0.0121  0.1085  0.6231
   70SLPC  H11X 6077   3.662   2.033   9.373  1.1312 -0.7669  3.3801
   70SLPC  H11Y 6078   3.806   2.037   9.272 -1.6369  0.3693 -0.6476
   70SLPC  C312 6079   3.699   2.229   9.312 -0.0361 -0.6401 -0.9032
   70SLPC  H12X 6080   3.789   2.289   9.285 -0.5527 -0.0687 -1.3592
   70SLPC  H12Y 6081   3.662   2.268   9.409 -0.8149 -0.3071 -1.3312
   70SLPC  C313 6082   3.590   2.226   9.212 -0.2037  0.3535  0.2622
   70SLPC  H13X 6083   3.528   2.319   9.219 -0.4169  0.1944  0.4757
   70SLPC  H13Y 6084   3.511   2.151   9.233  1.2705 -1.7881 -1.6684
   70SLPC  C314 6085   3.629   2.205   9.064  0.3478  1.0350 -0.1589
   70SLPC  H14X 6086   3.707   2.126   9.058 -1.4780 -0.8810  0.9521
   70SLPC  H14Y 6087   3.676   2.298   9.026 -0.3625  1.9945  1.2764
   70SLPC  C315 6088   3.511   2.169   8.967  0.6760  0.1697  0.1646
   70SLPC  H15X 6089   3.448   2.258   8.944  0.7528  0.8978  2.6123
   70SLPC  H15Y 6090   3.452   2.093   9.023 -0.3635  0.3526 -0.6727
   70SLPC  C316 6091   3.560   2.102   8.835  0.0378  0.2649 -0.9436
   70SLPC  H16X 6092   3.470   2.047   8.803  0.0725 -2.3720  3.1195
   70SLPC  H16Y 6093   3.636   2.024   8.856 -0.5520 -0.1323 -0.2865
   70SLPC  C317 6094   3.612   2.196   8.728 -0.2597  0.3760 -0.8058
   70SLPC  H17X 6095   3.616   2.295   8.780  1.1229  0.4435 -1.0157
   70SLPC  H17Y 6096   3.544   2.193   8.640  0.8430 -0.2804 -1.6348
   70SLPC  C318 6097   3.758   2.164   8.690 -0.4053  0.3582  0.3006
   70SLPC  H18X 6098   3.774   2.065   8.643 -0.1781  0.5354  0.0002
   70SLPC  H18Y 6099   3.812   2.171   8.787  2.1117 -0.9263 -0.9539
   70SLPC  H18Z 6100   3.792   2.243   8.618 -2.4338 -1.2149 -2.4780
   71SLPC     N 6101   3.613   0.532  10.796  0.6478  0.5049 -0.4906
   71SLPC   C13 6102   3.744   0.498  10.862  0.5020  0.3066 -0.0528
   71SLPC  H13A 6103   3.796   0.591  10.879 -0.7022  0.7748  1.1353
   71SLPC  H13B 6104   3.722   0.427  10.940  2.2274  0.7701  0.8802
   71SLPC  H13C 6105   3.800   0.445  10.785  0.4636 -0.9409  0.7614
   71SLPC   C14 6106   3.551   0.417  10.723  0.0397 -0.3374  0.5286
   71SLPC  H14A 6107   3.514   0.340  10.789 -1.3887 -1.6155 -1.6910
   71SLPC  H14B 6108   3.465   0.451  10.667 -0.3069 -0.2455  1.1022
   71SLPC  H14C 6109   3.606   0.374  10.641 -2.1444 -0.1876 -1.0725
   71SLPC   C15 6110   3.635   0.654  10.708 -0.2357 -0.6653 -0.4681
   71SLPC  H15A 6111   3.548   0.692  10.656  0.3118  0.4314 -0.5887
   71SLPC  H15B 6112   3.683   0.733  10.763  1.5353 -1.5419 -0.7414
   71SLPC  H15C 6113   3.715   0.631  10.640  1.8032  1.4534  1.1518
   71SLPC   C12 6114   3.515   0.568  10.912 -0.2122  1.0059 -0.4601
   71SLPC  H12A 6115   3.575   0.640  10.967 -1.4655  1.9385 -0.3087
   71SLPC  H12B 6116   3.517   0.481  10.977  0.4527  1.0083 -0.4677
   71SLPC   C11 6117   3.368   0.615  10.884  0.2196 -0.2830 -0.4064
   71SLPC  H11A 6118   3.365   0.714  10.833  0.9618 -0.6101 -1.0962
   71SLPC  H11B 6119   3.326   0.639  10.984  1.0229  0.5001 -0.2527
   71SLPC     P 6120   3.142   0.522  10.803  0.1202 -0.0272  0.1307
   71SLPC   O13 6121   3.085   0.389  10.814  0.1116 -0.0274  0.2417
   71SLPC   O14 6122   3.084   0.624  10.891 -0.4844 -0.8887  0.1352
   71SLPC   O12 6123   3.297   0.514  10.818 -0.6105 -0.5289  0.6342
   71SLPC   O11 6124   3.123   0.576  10.658 -0.0780  0.6373  0.5923
   71SLPC    C1 6125   3.179   0.511  10.537 -0.6606  0.0952 -0.6393
   71SLPC    HA 6126   3.264   0.442  10.554  0.5947  1.8545  0.3924
   71SLPC    HB 6127   3.093   0.470  10.480 -0.2824 -0.2673 -0.9508
   71SLPC    C2 6128   3.248   0.633  10.451  0.3167  0.2664 -0.0681
   71SLPC    HS 6129   3.291   0.707  10.522  0.9432 -0.6898  0.5572
   71SLPC   O21 6130   3.149   0.686  10.364 -0.1491 -0.2957 -0.1792
   71SLPC   C21 6131   3.141   0.818  10.356 -0.0180 -0.6406 -0.0510
   71SLPC   O22 6132   3.217   0.900  10.406  0.0366  0.2876  0.1836
   71SLPC   C22 6133   3.016   0.858  10.273 -0.5409 -0.4979 -1.0709
   71SLPC   H2R 6134   2.939   0.862  10.354  0.8132 -0.9004  0.2521
   71SLPC   H2S 6135   3.024   0.960  10.231 -3.8515  0.6594  0.8738
   71SLPC    C3 6136   3.375   0.584  10.366 -0.4134 -0.2165  0.2781
   71SLPC    HX 6137   3.350   0.505  10.292  0.7748 -0.8627  0.5701
   71SLPC    HY 6138   3.455   0.535  10.424 -1.0980 -3.0784 -1.0790
   71SLPC   O31 6139   3.438   0.692  10.289  0.6938  0.0516  0.2730
   71SLPC   C31 6140   3.505   0.792  10.354 -0.2740 -0.1466 -0.2240
   71SLPC   O32 6141   3.519   0.794  10.475  0.0579 -0.1425  0.2310
   71SLPC   C32 6142   3.563   0.886  10.250 -0.6847  0.3270  0.0372
   71SLPC   H2X 6143   3.598   0.833  10.159  0.3331  0.1872  0.4983
   71SLPC   H2Y 6144   3.657   0.924  10.296 -0.2180  0.1056 -0.7177
   71SLPC   C23 6145   2.977   0.755  10.160 -0.4365 -0.1437  0.2241
   71SLPC   H3R 6146   2.880   0.773  10.109 -1.1794 -0.6750  1.4194
   71SLPC   H3S 6147   2.949   0.658  10.206  1.8198 -0.1283  1.6981
   71SLPC   C24 6148   3.092   0.753  10.055  0.3652  0.0810  0.7703
   71SLPC   H4R 6149   3.184   0.704  10.094  0.8866 -2.3570 -3.2793
   71SLPC   H4S 6150   3.127   0.850  10.014  1.7402 -0.8795 -0.3779
   71SLPC   C25 6151   3.055   0.670   9.929 -0.1216  0.0963  0.6663
   71SLPC   H5R 6152   2.956   0.695   9.886  0.0623 -0.7726 -0.2696
   71SLPC   H5S 6153   3.053   0.563   9.960 -0.3612 -0.4345 -1.1771
   71SLPC   C26 6154   3.173   0.684   9.826 -0.1085 -0.4191 -0.5609
   71SLPC   H6R 6155   3.274   0.681   9.871  0.1330  1.4061 -0.9648
   71SLPC   H6S 6156   3.156   0.785   9.783 -0.1683  0.4495  1.4628
   71SLPC   C27 6157   3.164   0.578   9.710  0.0526  0.0504 -0.4683
   71SLPC   H7R 6158   3.066   0.585   9.658  0.3465  2.1286 -0.8027
   71SLPC   H7S 6159   3.166   0.474   9.749 -0.8687  0.4388  0.6513
   71SLPC   C28 6160   3.276   0.595   9.600  0.6339  0.0627 -0.1289
   71SLPC   H8R 6161   3.369   0.575   9.658 -0.7719  0.4813  2.3752
   71SLPC   H8S 6162   3.280   0.703   9.573 -2.5377 -0.0524 -1.2792
   71SLPC   C29 6163   3.255   0.507   9.480 -0.3199  0.1764  0.5221
   71SLPC   H9R 6164   3.265   0.400   9.500 -2.5809 -0.3123 -0.7767
   71SLPC  C210 6165   3.230   0.555   9.354  0.0007 -0.0842  0.2347
   71SLPC  H10R 6166   3.196   0.481   9.281 -2.2702  1.8217 -0.6972
   71SLPC  C211 6167   3.233   0.701   9.308  0.3318 -0.8293  0.3728
   71SLPC  H11R 6168   3.331   0.719   9.258 -0.5448  2.6239 -0.2093
   71SLPC  H11S 6169   3.234   0.776   9.390  0.0341  0.3843 -0.7144
   71SLPC  C212 6170   3.123   0.725   9.208  0.7428 -0.2691  0.0613
   71SLPC  H12R 6171   3.034   0.768   9.254  2.2097  2.3471  0.5391
   71SLPC  C213 6172   3.136   0.722   9.078 -0.0478 -0.0457  0.1898
   71SLPC  H13R 6173   3.058   0.759   9.011  0.0345 -0.3382 -0.0679
   71SLPC  C214 6174   3.260   0.676   8.997  0.0393 -0.2734 -1.1393
   71SLPC  H14R 6175   3.265   0.566   8.984 -0.7622 -0.2140 -2.0260
   71SLPC  H14S 6176   3.354   0.691   9.054 -1.2047 -1.4885  1.2867
   71SLPC  C215 6177   3.280   0.749   8.861 -0.4218  1.0263  0.1927
   71SLPC  H15R 6178   3.382   0.727   8.825 -0.9388  0.3287 -0.8779
   71SLPC  H15S 6179   3.287   0.857   8.888  2.5846  0.5652  1.3430
   71SLPC  C216 6180   3.170   0.714   8.759 -0.2479  0.3221 -0.0732
   71SLPC  H16R 6181   3.077   0.759   8.799 -1.5800 -3.0498  0.7448
   71SLPC  H16S 6182   3.138   0.609   8.744 -1.8386  0.6571  0.8048
   71SLPC  C217 6183   3.184   0.788   8.624 -0.2137  0.9005  0.0319
   71SLPC  H17R 6184   3.277   0.745   8.582 -0.6742  1.2203 -1.3569
   71SLPC  H17S 6185   3.196   0.898   8.635 -1.8345  1.1639 -0.5827
   71SLPC  C218 6186   3.074   0.777   8.516  0.4682  0.5243 -0.8276
   71SLPC  H18R 6187   3.090   0.852   8.435 -0.0657  1.1716 -0.3376
   71SLPC  H18S 6188   2.978   0.801   8.566  0.3588 -0.7496 -0.3954
   71SLPC  H18T 6189   3.079   0.677   8.468  2.1242  0.7854 -1.2399
   71SLPC   C33 6190   3.471   1.008  10.208 -0.3546  0.5496 -0.0175
   71SLPC   H3X 6191   3.545   1.088  10.185  0.6566 -0.2468  0.4239
   71SLPC   H3Y 6192   3.401   1.036  10.289  1.5969 -0.0692  1.9282
   71SLPC   C34 6193   3.389   0.979  10.088 -0.4134  0.5365  0.2503
   71SLPC   H4X 6194   3.317   1.061  10.069 -2.0899 -0.9774 -0.1394
   71SLPC   H4Y 6195   3.334   0.884  10.108 -0.2601  0.4487  0.2540
   71SLPC   C35 6196   3.463   0.943   9.958 -0.3889  0.2705 -0.0835
   71SLPC   H5X 6197   3.474   0.833   9.966  0.8503  0.4868  1.7434
   71SLPC   H5Y 6198   3.563   0.989   9.973 -1.9104  3.4349  0.8135
   71SLPC   C36 6199   3.400   0.997   9.829 -0.0252  0.0897  0.5667
   71SLPC   H6X 6200   3.401   1.108   9.835 -2.5513  0.0846  1.6417
   71SLPC   H6Y 6201   3.292   0.970   9.823 -0.4148  1.8298 -0.5144
   71SLPC   C37 6202   3.478   0.946   9.709 -0.0262  0.7510  0.3823
   71SLPC   H7X 6203   3.472   0.836   9.690  0.2326  0.8575 -0.3152
   71SLPC   H7Y 6204   3.581   0.970   9.742  0.1852  1.4013 -0.7261
   71SLPC   C38 6205   3.454   1.011   9.576  0.0638  0.2725 -0.4374
   71SLPC   H8X 6206   3.487   1.118   9.575 -0.9118  0.5691 -2.0577
   71SLPC   H8Y 6207   3.344   1.013   9.565  0.1131 -0.4213 -1.0585
   71SLPC   C39 6208   3.529   0.944   9.451  0.1681  0.6385 -0.6307
   71SLPC   H9X 6209   3.507   0.836   9.453  2.3991  0.0514  5.8294
   71SLPC   H9Y 6210   3.638   0.955   9.471  0.5632 -0.2340 -2.2098
   71SLPC  C310 6211   3.482   0.995   9.313 -0.3985  0.6025  0.0496
   71SLPC  H10X 6212   3.439   1.096   9.328  0.4235  1.1516 -1.1608
   71SLPC  H10Y 6213   3.399   0.937   9.268 -3.3478  1.7189  3.8333
   71SLPC  C311 6214   3.606   0.986   9.226 -0.4729  1.1399  0.3635
   71SLPC  H11X 6215   3.648   0.887   9.253  0.5101  0.7985 -2.2747
   71SLPC  H11Y 6216   3.692   1.053   9.251  0.9672  0.1205 -1.7114
   71SLPC  C312 6217   3.566   0.995   9.079  0.8323  0.3525 -0.0368
   71SLPC  H12X 6218   3.532   1.099   9.062  1.4953  0.6676  0.5367
   71SLPC  H12Y 6219   3.476   0.932   9.064  1.9829 -1.7431  1.3951
   71SLPC  C313 6220   3.684   0.956   8.990 -0.2192 -0.0477  0.4722
   71SLPC  H13X 6221   3.646   0.942   8.886 -2.6160 -1.2185  1.4639
   71SLPC  H13Y 6222   3.730   0.863   9.030  3.7810  1.6664  0.1338
   71SLPC  C314 6223   3.778   1.077   8.968 -0.2428  0.2084 -0.3174
   71SLPC  H14X 6224   3.792   1.118   9.071 -1.3420  2.9125 -1.2085
   71SLPC  H14Y 6225   3.737   1.160   8.907 -1.4300  1.9458  2.7613
   71SLPC  C315 6226   3.916   1.044   8.916  0.3160  0.1627  0.4186
   71SLPC  H15X 6227   3.974   0.977   8.983  1.8559  1.8701  0.8247
   71SLPC  H15Y 6228   3.976   1.137   8.914 -0.6568  0.7700 -0.7317
   71SLPC  C316 6229   3.918   0.986   8.772  0.6815  0.5763 -0.0853
   71SLPC  H16X 6230   3.844   1.046   8.714  0.1257 -0.7677 -0.7982
   71SLPC  H16Y 6231   3.869   0.886   8.773  0.2200  0.6757 -3.8834
   71SLPC  C317 6232   4.055   0.976   8.706  0.7605  0.4622 -0.6905
   71SLPC  H17X 6233   4.047   0.920   8.610 -0.2729 -3.4452  1.5775
   71SLPC  H17Y 6234   4.120   0.917   8.775  1.3807  0.8965 -0.8971
   71SLPC  C318 6235   4.114   1.114   8.672 -0.3780  0.7640  0.4158
   71SLPC  H18X 6236   4.038   1.157   8.604 -1.6075  1.0525  1.9475
   71SLPC  H18Y 6237   4.216   1.094   8.633 -1.0157 -0.4042 -0.6739
   71SLPC  H18Z 6238   4.130   1.168   8.768 -0.3935 -0.0696  0.8969
   72SLPC     N 6239   3.992   6.558  11.142  0.0688 -0.5316 -0.1935
   72SLPC   C13 6240   3.845   6.578  11.111 -0.0261 -0.0744  0.4242
   72SLPC  H13A 6241   3.795   6.639  11.185 -0.2044  0.0441  0.2095
   72SLPC  H13B 6242   3.837   6.626  11.015 -1.3456 -2.2738 -0.6143
   72SLPC  H13C 6243   3.786   6.488  11.099  1.6286 -0.8265 -2.6600
   72SLPC   C14 6244   4.012   6.486  11.266  0.9659 -0.8514  0.0632
   72SLPC  H14A 6245   3.979   6.383  11.264  0.0277 -0.5475 -2.0907
   72SLPC  H14B 6246   4.118   6.475  11.279  0.6563 -0.9953  2.6773
   72SLPC  H14C 6247   3.957   6.536  11.344 -0.3754  1.9255 -2.5283
   72SLPC   C15 6248   4.050   6.694  11.162 -0.5843 -0.6963 -0.2559
   72SLPC  H15A 6249   4.028   6.723  11.264 -0.2488 -2.2853  0.2903
   72SLPC  H15B 6250   4.157   6.682  11.162 -0.5181 -0.3231  1.8793
   72SLPC  H15C 6251   4.014   6.770  11.094  3.3248  3.0059  1.5580
   72SLPC   C12 6252   4.052   6.487  11.018 -0.0359 -0.4801 -0.5166
   72SLPC  H12A 6253   4.001   6.392  11.013 -1.9282  0.4766  0.5154
   72SLPC  H12B 6254   4.153   6.458  11.043 -0.4839  1.5410  4.2276
   72SLPC   C11 6255   4.053   6.562  10.883  0.5542 -0.0758  0.8218
   72SLPC  H11A 6256   4.103   6.497  10.808  1.3492  1.9307 -0.4331
   72SLPC  H11B 6257   4.120   6.650  10.882  5.1820 -3.4089 -0.4010
   72SLPC     P 6258   3.834   6.484  10.763  0.3524 -0.0799 -0.0688
   72SLPC   O13 6259   3.797   6.382  10.867  0.3630  0.1703  0.0379
   72SLPC   O14 6260   3.725   6.557  10.696 -0.9061  0.4973 -0.0327
   72SLPC   O12 6261   3.919   6.591  10.836 -0.0726 -0.5115  0.6536
   72SLPC   O11 6262   3.926   6.420  10.655  0.3529  0.7881  0.3719
   72SLPC    C1 6263   3.961   6.283  10.642  0.5811 -0.0374  0.0078
   72SLPC    HA 6264   3.959   6.226  10.738  1.3578 -1.5277 -0.8332
   72SLPC    HB 6265   3.900   6.228  10.568 -0.0278  0.2129  0.3218
   72SLPC    C2 6266   4.108   6.260  10.600  0.6322  0.2792  0.2366
   72SLPC    HS 6267   4.176   6.284  10.685  2.6972 -1.6635 -0.8150
   72SLPC   O21 6268   4.129   6.341  10.478  0.0496 -0.2444  0.2279
   72SLPC   C21 6269   4.261   6.356  10.440 -0.5458 -0.3847 -0.4652
   72SLPC   O22 6270   4.348   6.302  10.508 -0.0105  0.4263  0.3097
   72SLPC   C22 6271   4.277   6.474  10.344  0.5993 -0.0586 -0.0989
   72SLPC   H2R 6272   4.252   6.573  10.390  0.2801  0.5913 -1.6379
   72SLPC   H2S 6273   4.385   6.470  10.319  0.6633 -2.1894  0.4215
   72SLPC    C3 6274   4.115   6.107  10.588 -0.0012  0.8880  0.5317
   72SLPC    HX 6275   4.084   6.061  10.684  2.0930  1.4433  1.5130
   72SLPC    HY 6276   4.222   6.084  10.568  0.5233  1.8505  2.1212
   72SLPC   O31 6277   4.034   6.060  10.481  0.6714  0.3092 -0.3267
   72SLPC   C31 6278   4.098   6.039  10.364 -0.0378  0.3563  0.8993
   72SLPC   O32 6279   4.213   6.061  10.335 -0.4387 -0.3365 -0.3069
   72SLPC   C32 6280   4.000   5.971  10.272  0.3158 -0.0801  0.0159
   72SLPC   H2X 6281   3.911   6.036  10.289  0.2483 -0.6449  1.9514
   72SLPC   H2Y 6282   3.975   5.870  10.311 -2.2605  0.6987  0.5219
   72SLPC   C23 6283   4.191   6.452  10.216 -0.2534 -0.6001  0.3983
   72SLPC   H3R 6284   4.191   6.546  10.156 -1.5401 -1.9431 -1.7762
   72SLPC   H3S 6285   4.089   6.412  10.231  0.0701 -1.8093 -0.6005
   72SLPC   C24 6286   4.272   6.359  10.114  0.1909 -0.2352  0.1896
   72SLPC   H4R 6287   4.283   6.261  10.165 -1.0016 -0.8686 -0.7353
   72SLPC   H4S 6288   4.374   6.402  10.105 -1.1991  3.2378  0.2326
   72SLPC   C25 6289   4.202   6.356   9.980 -0.4598 -0.9458 -0.3458
   72SLPC   H5R 6290   4.205   6.457   9.935 -2.6849 -0.1913  1.1251
   72SLPC   H5S 6291   4.098   6.324  10.002 -0.3386  0.1928  2.0456
   72SLPC   C26 6292   4.250   6.249   9.889  0.0263 -0.2801  0.0557
   72SLPC   H6R 6293   4.261   6.153   9.945 -1.0500 -1.2686 -1.4057
   72SLPC   H6S 6294   4.355   6.269   9.858 -0.1856  0.5498 -0.1199
   72SLPC   C27 6295   4.161   6.208   9.773  0.4350 -0.5038  0.5725
   72SLPC   H7R 6296   4.144   6.284   9.693  1.2246 -1.0714 -0.1420
   72SLPC   H7S 6297   4.065   6.170   9.815  1.7266 -1.3655  2.8007
   72SLPC   C28 6298   4.210   6.076   9.700  0.0841  0.0795  0.3007
   72SLPC   H8R 6299   4.211   6.007   9.787  1.4793  2.0486  1.8704
   72SLPC   H8S 6300   4.314   6.074   9.660 -0.4742 -0.1018 -1.1875
   72SLPC   C29 6301   4.103   6.043   9.599  0.3023  0.0987  0.2664
   72SLPC   H9R 6302   3.999   6.033   9.630 -0.5889  2.4122 -1.8308
   72SLPC  C210 6303   4.105   6.058   9.467  1.5317  0.1251  0.7822
   72SLPC  H10R 6304   4.018   6.030   9.406  0.4277  0.5155  2.1509
   72SLPC  C211 6305   4.227   6.092   9.392  0.3122  0.4049 -0.2512
   72SLPC  H11R 6306   4.228   6.036   9.297  1.0999  1.2737 -0.7531
   72SLPC  H11S 6307   4.321   6.060   9.441  0.0489  2.1261  1.4623
   72SLPC  C212 6308   4.223   6.242   9.367 -0.1164 -0.7053  0.3616
   72SLPC  H12R 6309   4.206   6.306   9.454 -2.3695 -3.6228  2.1512
   72SLPC  C213 6310   4.242   6.303   9.247 -0.8041 -0.1150  0.8047
   72SLPC  H13R 6311   4.242   6.413   9.234 -1.5949 -0.2278 -0.2388
   72SLPC  C214 6312   4.262   6.239   9.116 -0.0162 -0.2748 -0.3055
   72SLPC  H14R 6313   4.247   6.130   9.100  0.1419 -0.2549 -0.5977
   72SLPC  H14S 6314   4.367   6.257   9.082  0.3981 -3.8096 -1.1395
   72SLPC  C215 6315   4.177   6.321   9.014  0.0918  0.7620 -0.0946
   72SLPC  H15R 6316   4.174   6.428   9.046 -0.7420  1.2366 -1.7114
   72SLPC  H15S 6317   4.069   6.297   9.027  0.0848  0.5168 -0.6160
   72SLPC  C216 6318   4.207   6.307   8.867  0.3180  0.2376  0.1463
   72SLPC  H16R 6319   4.191   6.205   8.827 -1.6756  0.0923  1.2808
   72SLPC  H16S 6320   4.318   6.310   8.866  0.5218 -3.1489  2.3919
   72SLPC  C217 6321   4.142   6.420   8.779  0.2174 -0.0518  0.6117
   72SLPC  H17R 6322   4.188   6.401   8.680 -2.5676 -1.3998 -0.4766
   72SLPC  H17S 6323   4.141   6.526   8.812  0.0158  0.0652  0.2392
   72SLPC  C218 6324   4.001   6.410   8.756  1.0349  0.1800 -0.2486
   72SLPC  H18R 6325   3.944   6.502   8.731 -1.2939 -0.6782  1.6920
   72SLPC  H18S 6326   3.966   6.382   8.858  1.0415 -0.8574 -0.5314
   72SLPC  H18T 6327   3.969   6.329   8.687 -1.7304  1.4085 -0.4769
   72SLPC   C33 6328   4.038   5.974  10.120 -0.3024  1.3558  0.1877
   72SLPC   H3X 6329   4.143   5.941  10.103 -0.3617  0.1120  2.0573
   72SLPC   H3Y 6330   4.024   6.077  10.081  0.2881  0.8661 -1.3419
   72SLPC   C34 6331   3.938   5.880  10.048  0.0893  0.0846 -0.6053
   72SLPC   H4X 6332   3.836   5.925  10.048 -1.6578 -3.5089  3.2836
   72SLPC   H4Y 6333   3.927   5.783  10.102 -0.3864  0.8914  0.7698
   72SLPC   C35 6334   3.982   5.838   9.910 -0.1354  0.6786 -0.3490
   72SLPC   H5X 6335   4.076   5.782   9.926  0.5775  2.0626  0.3280
   72SLPC   H5Y 6336   3.998   5.932   9.852 -2.9217  0.7250 -1.1609
   72SLPC   C36 6337   3.874   5.748   9.837 -0.2905 -0.5175 -0.2041
   72SLPC   H6X 6338   3.782   5.811   9.836  1.0480  1.5321  1.1723
   72SLPC   H6Y 6339   3.855   5.657   9.897 -2.4658 -0.2658 -0.4440
   72SLPC   C37 6340   3.929   5.712   9.702 -0.1053  0.1189 -0.1660
   72SLPC   H7X 6341   3.998   5.629   9.730  0.4807  0.7875  0.3889
   72SLPC   H7Y 6342   3.992   5.795   9.663 -0.1927  0.2167 -0.0996
   72SLPC   C38 6343   3.828   5.684   9.589  0.0379  0.0408 -0.5776
   72SLPC   H8X 6344   3.752   5.764   9.583  1.3188  1.3263  0.0369
   72SLPC   H8Y 6345   3.774   5.588   9.605 -1.2648  0.9511  0.5783
   72SLPC   C39 6346   3.880   5.676   9.442 -1.0095 -0.0023  0.3548
   72SLPC   H9X 6347   3.945   5.587   9.429 -0.8505 -0.1784  2.2291
   72SLPC   H9Y 6348   3.942   5.765   9.416  3.0919 -2.7689  0.2129
   72SLPC  C310 6349   3.770   5.659   9.337  0.5677  0.1179  0.3778
   72SLPC  H10X 6350   3.692   5.724   9.382  2.9803  2.2717  1.5915
   72SLPC  H10Y 6351   3.734   5.554   9.332  0.0616  0.1039  3.2604
   72SLPC  C311 6352   3.819   5.705   9.202  0.4745 -0.0946  0.8051
   72SLPC  H11X 6353   3.910   5.654   9.165  0.4656 -0.9090  1.9027
   72SLPC  H11Y 6354   3.838   5.813   9.219 -0.3842  0.3779 -1.0558
   72SLPC  C312 6355   3.710   5.687   9.095 -0.2480 -0.5762  0.2385
   72SLPC  H12X 6356   3.622   5.748   9.122  0.4695  1.3527 -1.6297
   72SLPC  H12Y 6357   3.675   5.581   9.093 -0.8009 -0.3764 -1.0391
   72SLPC  C313 6358   3.766   5.731   8.959 -0.2055 -0.2344  0.5440
   72SLPC  H13X 6359   3.824   5.651   8.908 -0.2462 -0.9455  1.6238
   72SLPC  H13Y 6360   3.813   5.829   8.984 -1.3779  0.2169  0.9949
   72SLPC  C314 6361   3.656   5.789   8.865  0.1667  0.0314 -0.1153
   72SLPC  H14X 6362   3.710   5.852   8.791  0.3549  0.1949  0.1582
   72SLPC  H14Y 6363   3.592   5.848   8.934 -1.8046 -0.6489 -1.3017
   72SLPC  C315 6364   3.568   5.683   8.798  0.3392 -0.2665 -0.0928
   72SLPC  H15X 6365   3.468   5.725   8.775 -0.4655 -2.4287 -0.6555
   72SLPC  H15Y 6366   3.540   5.602   8.869 -0.2143  0.3861  0.4306
   72SLPC  C316 6367   3.630   5.624   8.670  0.7010  0.3646  0.1423
   72SLPC  H16X 6368   3.562   5.540   8.642 -1.4134  3.0031 -3.1208
   72SLPC  H16Y 6369   3.727   5.571   8.682  0.0025 -0.8426  0.5855
   72SLPC  C317 6370   3.646   5.720   8.556  0.2046  0.1103 -0.0943
   72SLPC  H17X 6371   3.695   5.662   8.475  0.3261  0.8373 -0.5539
   72SLPC  H17Y 6372   3.708   5.807   8.589 -0.5929  0.2797  0.9747
   72SLPC  C318 6373   3.506   5.760   8.496 -0.5889 -1.1218  0.3713
   72SLPC  H18X 6374   3.523   5.814   8.401  0.5222  0.4130  1.4137
   72SLPC  H18Y 6375   3.464   5.830   8.571  0.7270  1.6715 -1.4422
   72SLPC  H18Z 6376   3.441   5.672   8.476 -2.7240  1.2627 -3.7478
   73SLPC     N 6377   4.715   4.792  10.925 -0.0696  0.5352  0.5358
   73SLPC   C13 6378   4.766   4.907  11.011  0.1260  0.3786 -0.2686
   73SLPC  H13A 6379   4.684   4.954  11.063  0.4539 -0.3429  0.9146
   73SLPC  H13B 6380   4.838   4.887  11.089  1.2393  4.2676 -0.2083
   73SLPC  H13C 6381   4.812   4.986  10.955  2.7939  0.0588  1.4114
   73SLPC   C14 6382   4.637   4.709  11.018  0.3002 -0.0730  0.6534
   73SLPC  H14A 6383   4.708   4.669  11.089  1.4929 -0.4226 -0.7079
   73SLPC  H14B 6384   4.574   4.777  11.073  1.1488  1.3541 -0.1191
   73SLPC  H14C 6385   4.574   4.640  10.963 -0.4506  2.1609 -1.3780
   73SLPC   C15 6386   4.829   4.694  10.892  0.3082  0.1619  0.2363
   73SLPC  H15A 6387   4.866   4.655  10.986 -0.2323  1.4779  1.0137
   73SLPC  H15B 6388   4.804   4.611  10.827  1.7231  0.7307 -1.0796
   73SLPC  H15C 6389   4.909   4.746  10.842 -0.4287  1.5259  0.4592
   73SLPC   C12 6390   4.642   4.828  10.800 -0.5609 -0.2816  0.7922
   73SLPC  H12A 6391   4.694   4.902  10.741 -4.5183  1.6407 -0.4121
   73SLPC  H12B 6392   4.554   4.878  10.838 -0.0344  0.1778  1.4165
   73SLPC   C11 6393   4.605   4.727  10.693 -0.8200  0.2624  0.0978
   73SLPC  H11A 6394   4.694   4.673  10.655 -0.1325 -0.1180  2.1719
   73SLPC  H11B 6395   4.549   4.789  10.620 -0.5791  0.9197  0.4642
   73SLPC     P 6396   4.364   4.675  10.780 -0.0886 -0.0490 -0.1501
   73SLPC   O13 6397   4.323   4.611  10.907  0.3857  0.1289  0.1399
   73SLPC   O14 6398   4.342   4.820  10.768  0.8104  0.0248  0.0948
   73SLPC   O12 6399   4.510   4.635  10.747 -0.1296  0.1278  0.4184
   73SLPC   O11 6400   4.288   4.612  10.661 -0.3465  0.2670 -0.0242
   73SLPC    C1 6401   4.307   4.645  10.524 -0.8630 -0.6269 -0.3692
   73SLPC    HA 6402   4.240   4.730  10.499  3.9703  3.1445 -1.1994
   73SLPC    HB 6403   4.411   4.676  10.501 -0.0248 -0.4011  3.3707
   73SLPC    C2 6404   4.287   4.528  10.423 -0.5945  0.4654  0.5401
   73SLPC    HS 6405   4.318   4.550  10.318 -1.9066  1.2815  0.3001
   73SLPC   O21 6406   4.155   4.487  10.413 -0.3742 -0.0145  0.1520
   73SLPC   C21 6407   4.077   4.567  10.350  0.2089 -0.6072 -0.6949
   73SLPC   O22 6408   4.107   4.672  10.294  0.1234  0.6177 -0.2850
   73SLPC   C22 6409   3.942   4.506  10.359  0.1285 -0.2927 -0.0654
   73SLPC   H2R 6410   3.910   4.439  10.441  1.7118  0.6452  1.3632
   73SLPC   H2S 6411   3.884   4.600  10.371 -1.2137 -1.2765  1.3035
   73SLPC    C3 6412   4.377   4.414  10.464  0.0449  0.3015 -0.4736
   73SLPC    HX 6413   4.388   4.397  10.574  0.0708 -1.2415 -0.7095
   73SLPC    HY 6414   4.474   4.458  10.431 -0.1324  0.1073 -1.2567
   73SLPC   O31 6415   4.340   4.295  10.390  0.0165 -0.7111  0.1901
   73SLPC   C31 6416   4.437   4.221  10.353 -0.5701  0.0352  0.1620
   73SLPC   O32 6417   4.553   4.233  10.394  0.2314 -0.7141  0.8355
   73SLPC   C32 6418   4.387   4.111  10.262  0.2317  0.1177 -0.1819
   73SLPC   H2X 6419   4.277   4.119  10.272 -0.1133 -2.7248 -1.3156
   73SLPC   H2Y 6420   4.422   4.017  10.309  0.3648 -0.1201 -0.7522
   73SLPC   C23 6421   3.894   4.445  10.223 -0.3192 -0.2326  0.3344
   73SLPC   H3R 6422   3.872   4.524  10.148  0.7653 -0.4244 -0.1888
   73SLPC   H3S 6423   3.803   4.394  10.262 -1.8383  2.8244  0.9527
   73SLPC   C24 6424   3.987   4.342  10.153 -0.3679  0.2222  0.0574
   73SLPC   H4R 6425   4.032   4.275  10.230  2.7383  0.8681 -1.1220
   73SLPC   H4S 6426   4.070   4.401  10.109 -1.4851  0.9128 -1.1415
   73SLPC   C25 6427   3.925   4.257  10.040 -0.4634 -0.5671 -0.1078
   73SLPC   H5R 6428   3.859   4.186  10.092  0.0303  1.2294  3.1288
   73SLPC   H5S 6429   4.008   4.203   9.989 -0.9173  0.7747 -2.3340
   73SLPC   C26 6430   3.840   4.332   9.931 -0.4751  0.1104 -0.6617
   73SLPC   H6R 6431   3.899   4.422   9.900  1.9692 -1.2977 -0.2050
   73SLPC   H6S 6432   3.748   4.371   9.979  0.4029  1.5820 -0.1330
   73SLPC   C27 6433   3.812   4.255   9.809 -0.2187 -0.1499  0.6370
   73SLPC   H7R 6434   3.739   4.176   9.838 -0.3744 -0.7423 -1.2544
   73SLPC   H7S 6435   3.899   4.191   9.786  1.2471  1.8032  0.6322
   73SLPC   C28 6436   3.771   4.333   9.682 -0.3848  0.7522  0.1864
   73SLPC   H8R 6437   3.688   4.401   9.713  0.2169  2.3222 -1.5310
   73SLPC   H8S 6438   3.727   4.251   9.621 -1.1309  1.1496  0.1808
   73SLPC   C29 6439   3.887   4.411   9.624  0.6207  0.1883 -0.4318
   73SLPC   H9R 6440   3.901   4.512   9.665 -1.0887 -0.2980  1.4513
   73SLPC  C210 6441   3.971   4.370   9.528  0.1917 -0.1294 -0.0578
   73SLPC  H10R 6442   4.046   4.444   9.498  1.1901 -1.3549 -0.6656
   73SLPC  C211 6443   3.967   4.243   9.453 -0.3259 -0.1993 -0.5057
   73SLPC  H11R 6444   3.870   4.224   9.402 -0.6964  0.8152 -0.1980
   73SLPC  H11S 6445   3.971   4.167   9.534 -0.2442 -0.4622 -0.7591
   73SLPC  C212 6446   4.080   4.231   9.357 -0.7615 -0.6663  0.2959
   73SLPC  H12R 6447   4.174   4.198   9.402 -1.2695 -0.9128  1.1786
   73SLPC  C213 6448   4.075   4.268   9.227  0.1932 -0.2064  0.0577
   73SLPC  H13R 6449   4.164   4.268   9.163 -0.1084 -0.1264 -0.3638
   73SLPC  C214 6450   3.955   4.315   9.145 -0.7004  0.2283  0.1246
   73SLPC  H14R 6451   3.900   4.385   9.213 -1.6583 -0.7531  0.3756
   73SLPC  H14S 6452   3.897   4.223   9.124 -0.0649 -0.0266 -0.5011
   73SLPC  C215 6453   3.997   4.390   9.021  1.0705  0.3271  0.0710
   73SLPC  H15R 6454   4.092   4.448   9.029  0.4091  1.4070  0.2804
   73SLPC  H15S 6455   3.932   4.479   9.004  1.0529  0.0697 -1.2493
   73SLPC  C216 6456   4.007   4.297   8.900  0.3123  0.4640 -0.2967
   73SLPC  H16R 6457   3.913   4.243   8.881 -0.2993  0.2593  3.0911
   73SLPC  H16S 6458   4.089   4.229   8.931 -0.8393 -1.0839 -0.6164
   73SLPC  C217 6459   4.053   4.372   8.776  0.0229 -0.5051  0.8377
   73SLPC  H17R 6460   4.121   4.449   8.817 -0.2772  0.4299 -0.3710
   73SLPC  H17S 6461   3.965   4.429   8.738  2.5510  1.1570 -2.8700
   73SLPC  C218 6462   4.120   4.284   8.678 -0.0557 -0.1062  0.4833
   73SLPC  H18R 6463   4.042   4.238   8.614  0.7604 -0.7322 -0.0795
   73SLPC  H18S 6464   4.187   4.207   8.723  3.5569  1.0380 -2.6769
   73SLPC  H18T 6465   4.189   4.337   8.608  0.5898 -0.0868  1.1293
   73SLPC   C33 6466   4.439   4.139  10.119  0.0172 -0.6590 -0.5325
   73SLPC   H3X 6467   4.411   4.049  10.061 -0.9279 -1.0428  0.5008
   73SLPC   H3Y 6468   4.550   4.134  10.112 -0.0395 -1.5185 -0.8299
   73SLPC   C34 6469   4.361   4.263  10.059 -0.2526  0.4447 -0.2250
   73SLPC   H4X 6470   4.418   4.356  10.080 -1.6274  0.6673  2.7303
   73SLPC   H4Y 6471   4.258   4.273  10.101 -0.4698  0.0844 -0.6674
   73SLPC   C35 6472   4.360   4.246   9.908 -0.2059  0.3890 -0.3789
   73SLPC   H5X 6473   4.319   4.146   9.882 -0.7395 -0.0439  2.0623
   73SLPC   H5Y 6474   4.470   4.238   9.892 -0.3323  1.4072 -1.8887
   73SLPC   C36 6475   4.297   4.353   9.829  0.0973 -0.1657 -0.5385
   73SLPC   H6X 6476   4.341   4.450   9.859  0.2764  0.3472 -2.3967
   73SLPC   H6Y 6477   4.188   4.355   9.852  0.3295 -1.3042  0.7203
   73SLPC   C37 6478   4.320   4.346   9.674 -0.7991 -0.5720 -0.6256
   73SLPC   H7X 6479   4.244   4.417   9.633  2.2887  1.6503 -2.7460
   73SLPC   H7Y 6480   4.294   4.244   9.639 -0.3438 -0.1023 -2.3453
   73SLPC   C38 6481   4.466   4.381   9.644 -0.2619  0.3534 -0.6372
   73SLPC   H8X 6482   4.533   4.305   9.688  0.0824  1.9493  1.6714
   73SLPC   H8Y 6483   4.502   4.474   9.693  1.0144 -1.5377  2.1528
   73SLPC   C39 6484   4.485   4.401   9.492 -0.0581  0.3547 -0.5477
   73SLPC   H9X 6485   4.411   4.476   9.455 -0.4548  1.6568  2.6996
   73SLPC   H9Y 6486   4.464   4.305   9.439 -0.5021 -0.4887  1.1184
   73SLPC  C310 6487   4.629   4.436   9.452 -0.0358  0.3252 -0.2328
   73SLPC  H10X 6488   4.690   4.344   9.450 -0.4402  0.0523 -0.1400
   73SLPC  H10Y 6489   4.663   4.503   9.534 -0.8151  2.3371 -1.5218
   73SLPC  C311 6490   4.632   4.506   9.316  0.4181 -0.5607  0.5465
   73SLPC  H11X 6491   4.735   4.548   9.317  0.6415 -1.0806  2.2666
   73SLPC  H11Y 6492   4.557   4.589   9.317  0.0376 -0.9037  1.1235
   73SLPC  C312 6493   4.590   4.408   9.208 -0.9033  0.0248 -0.0763
   73SLPC  H12X 6494   4.495   4.362   9.243 -2.3005  1.8216 -1.3964
   73SLPC  H12Y 6495   4.674   4.337   9.195 -0.1980  1.1365 -1.6517
   73SLPC  C313 6496   4.556   4.475   9.078  0.5364  0.0859  0.1748
   73SLPC  H13X 6497   4.635   4.542   9.040 -0.0077  0.3172 -0.5596
   73SLPC  H13Y 6498   4.471   4.535   9.118 -0.2068 -0.9471  0.1772
   73SLPC  C314 6499   4.513   4.376   8.971 -0.3174  0.1834  0.2739
   73SLPC  H14X 6500   4.426   4.309   8.990  0.3781 -1.0097 -0.6891
   73SLPC  H14Y 6501   4.601   4.309   8.964 -1.4361 -1.1444 -1.5624
   73SLPC  C315 6502   4.486   4.438   8.827  0.4114 -0.4513 -0.0264
   73SLPC  H15X 6503   4.417   4.523   8.848  0.9260 -0.0067 -0.1417
   73SLPC  H15Y 6504   4.422   4.367   8.771  2.5432 -2.0971 -0.4137
   73SLPC  C316 6505   4.620   4.476   8.761  0.5257 -0.5217  0.1362
   73SLPC  H16X 6506   4.696   4.395   8.753  0.9293 -0.2140  0.8626
   73SLPC  H16Y 6507   4.671   4.540   8.836  1.5332  0.0004 -0.9653
   73SLPC  C317 6508   4.602   4.537   8.620 -0.1593 -0.1306 -0.2963
   73SLPC  H17X 6509   4.521   4.612   8.623  0.3825  0.3881  1.8218
   73SLPC  H17Y 6510   4.574   4.469   8.536  0.0523  0.6518 -1.0050
   73SLPC  C318 6511   4.734   4.613   8.583 -0.1793  0.5054 -0.5680
   73SLPC  H18X 6512   4.756   4.699   8.651 -3.6670  0.7298  0.3648
   73SLPC  H18Y 6513   4.723   4.649   8.479 -1.8484  0.7537 -0.3097
   73SLPC  H18Z 6514   4.816   4.537   8.583 -2.4241 -1.9972 -1.8164
   74SLPC     N 6515   5.553   5.932  10.901 -0.0845  0.1232 -0.6367
   74SLPC   C13 6516   5.484   5.803  10.875 -0.5593  0.7242  0.4523
   74SLPC  H13A 6517   5.494   5.741  10.963 -1.3153  1.2025  0.8803
   74SLPC  H13B 6518   5.381   5.808  10.841 -0.2059  2.8062 -0.3835
   74SLPC  H13C 6519   5.541   5.759  10.794 -1.6301 -1.6028  0.9093
   74SLPC   C14 6520   5.656   5.911  11.011  0.3449 -0.1113  0.0679
   74SLPC  H14A 6521   5.732   5.988  11.003 -0.4454  0.6643 -0.0445
   74SLPC  H14B 6522   5.611   5.917  11.108  1.0604  0.4464  0.3703
   74SLPC  H14C 6523   5.700   5.813  11.000 -2.6017 -1.5126  0.3853
   74SLPC   C15 6524   5.449   6.030  10.938 -0.0850 -0.4159 -0.4377
   74SLPC  H15A 6525   5.490   6.129  10.954  0.2800 -0.5126 -0.7743
   74SLPC  H15B 6526   5.389   6.050  10.851 -0.4278 -0.4548 -0.2106
   74SLPC  H15C 6527   5.388   5.998  11.022 -0.1663 -1.3554 -0.8584
   74SLPC   C12 6528   5.625   5.985  10.785 -0.2047 -0.4378 -0.0371
   74SLPC  H12A 6529   5.683   6.067  10.824 -0.9029 -0.0327  0.1442
   74SLPC  H12B 6530   5.550   6.016  10.714  1.6068  2.2166 -0.8678
   74SLPC   C11 6531   5.732   5.892  10.717 -0.0161 -0.9837 -0.5162
   74SLPC  H11A 6532   5.818   5.868  10.783 -1.3249 -2.6024  0.6461
   74SLPC  H11B 6533   5.786   5.955  10.644 -1.2115  0.8958  0.1837
   74SLPC     P 6534   5.629   5.763  10.513  0.3539 -0.2061  0.2540
   74SLPC   O13 6535   5.717   5.677  10.436 -0.1964 -0.6996  0.9204
   74SLPC   O14 6536   5.484   5.728  10.521  0.3433  0.5405  0.2351
   74SLPC   O12 6537   5.681   5.762  10.660 -0.2983  0.0631  0.1303
   74SLPC   O11 6538   5.645   5.915  10.461  0.2046 -0.1232  0.9403
   74SLPC    C1 6539   5.578   5.932  10.331 -0.2722  0.4750 -0.2980
   74SLPC    HA 6540   5.489   5.868  10.311  0.6145 -0.4262 -1.3836
   74SLPC    HB 6541   5.552   6.040  10.333  1.5602  0.9199  1.0823
   74SLPC    C2 6542   5.685   5.911  10.217  0.3441 -0.1460 -0.0247
   74SLPC    HS 6543   5.750   5.825  10.244 -1.7028 -1.6280  0.3565
   74SLPC   O21 6544   5.765   6.032  10.210 -0.1748 -0.2012  1.4470
   74SLPC   C21 6545   5.883   6.019  10.161 -0.6739  0.2107 -0.4990
   74SLPC   O22 6546   5.939   5.917  10.127  0.1056 -0.3123 -0.1968
   74SLPC   C22 6547   5.945   6.160  10.135  0.3599 -0.4906  0.0077
   74SLPC   H2R 6548   5.981   6.199  10.233  0.9944 -1.0574  0.0031
   74SLPC   H2S 6549   6.027   6.136  10.065  0.4380 -0.6367  0.1472
   74SLPC    C3 6550   5.623   5.873  10.074 -0.1752 -0.4720  0.5452
   74SLPC    HX 6551   5.568   5.957  10.026 -2.3738 -2.6735 -0.8724
   74SLPC    HY 6552   5.568   5.778  10.089  1.9271 -1.9855 -0.9951
   74SLPC   O31 6553   5.726   5.841   9.980  0.4922  0.4717  0.3394
   74SLPC   C31 6554   5.774   5.717   9.978 -0.1048  0.6292 -0.3128
   74SLPC   O32 6555   5.745   5.628  10.061 -0.2517  0.0445  0.5875
   74SLPC   C32 6556   5.889   5.713   9.869 -0.1617  0.0624  0.3839
   74SLPC   H2X 6557   5.967   5.784   9.903 -1.4435  1.6214  0.1320
   74SLPC   H2Y 6558   5.847   5.752   9.774  2.4233  0.4385 -0.6573
   74SLPC   C23 6559   5.854   6.255  10.060 -0.0562 -0.5970 -0.0251
   74SLPC   H3R 6560   5.891   6.360  10.061  1.1220 -0.9890 -1.5960
   74SLPC   H3S 6561   5.756   6.243  10.111  0.3165 -1.4057  0.5005
   74SLPC   C24 6562   5.839   6.212   9.919  0.1582 -0.5244 -0.5096
   74SLPC   H4R 6563   5.751   6.268   9.881  0.0141 -0.1861  0.3261
   74SLPC   H4S 6564   5.814   6.106   9.898  1.4497 -1.2029  1.2504
   74SLPC   C25 6565   5.963   6.255   9.835 -0.2046 -0.9024  0.3840
   74SLPC   H5R 6566   6.055   6.239   9.896  0.7031 -1.3553 -1.0835
   74SLPC   H5S 6567   5.949   6.359   9.799 -1.3479 -0.6261  1.6173
   74SLPC   C26 6568   5.981   6.172   9.709 -0.6544 -0.0942 -0.2360
   74SLPC   H6R 6569   5.896   6.192   9.639  0.9634  1.6768 -1.7579
   74SLPC   H6S 6570   5.981   6.067   9.745 -0.3628  0.9179  2.8419
   74SLPC   C27 6571   6.123   6.190   9.641 -0.0042 -0.7084 -0.0201
   74SLPC   H7R 6572   6.200   6.173   9.720  2.3865  1.6766 -1.7429
   74SLPC   H7S 6573   6.139   6.296   9.609 -0.8559 -0.4417  0.4329
   74SLPC   C28 6574   6.157   6.108   9.510 -0.1235  0.6011 -0.0027
   74SLPC   H8R 6575   6.248   6.159   9.473  0.0445  1.1296  1.1265
   74SLPC   H8S 6576   6.072   6.141   9.446  0.3222 -0.5777 -1.2103
   74SLPC   C29 6577   6.176   5.963   9.533 -0.4602 -0.6591 -0.5071
   74SLPC   H9R 6578   6.246   5.946   9.617 -0.4614 -2.3590 -0.8322
   74SLPC  C210 6579   6.122   5.851   9.478 -0.0623  0.8118 -0.3186
   74SLPC  H10R 6580   6.160   5.759   9.524  0.4820  0.9663 -0.4633
   74SLPC  C211 6581   6.029   5.845   9.354 -0.3477 -0.2147 -0.2966
   74SLPC  H11R 6582   5.988   5.945   9.328  2.8464  1.3228  0.3245
   74SLPC  H11S 6583   5.939   5.787   9.385 -0.4696  0.6309  0.9689
   74SLPC  C212 6584   6.102   5.780   9.240 -0.8266  0.6002 -0.5574
   74SLPC  H12R 6585   6.209   5.804   9.233 -0.4304 -1.1214 -0.7356
   74SLPC  C213 6586   6.043   5.715   9.139  0.0945 -0.4062 -0.0491
   74SLPC  H13R 6587   6.104   5.671   9.059  2.8510  2.3247  0.4571
   74SLPC  C214 6588   5.892   5.704   9.114  0.0036 -0.0472 -0.4727
   74SLPC  H14R 6589   5.837   5.741   9.203  0.3518 -0.7858  0.0622
   74SLPC  H14S 6590   5.866   5.596   9.105 -0.6684  0.0093  0.7252
   74SLPC  C215 6591   5.845   5.796   9.004 -0.5688  0.4345 -0.0698
   74SLPC  H15R 6592   5.892   5.771   8.906 -1.7951 -0.2994 -0.4731
   74SLPC  H15S 6593   5.873   5.900   9.033  0.2173  0.2899 -0.3019
   74SLPC  C216 6594   5.694   5.784   8.983 -0.0644 -0.2725 -0.6915
   74SLPC  H16R 6595   5.649   5.835   9.071  1.4133  0.9470 -0.6192
   74SLPC  H16S 6596   5.669   5.677   8.997  0.3067 -0.5204 -1.9052
   74SLPC  C217 6597   5.648   5.840   8.848  0.0957 -0.5049 -0.3183
   74SLPC  H17R 6598   5.709   5.812   8.759 -1.2657 -1.9808 -0.8087
   74SLPC  H17S 6599   5.651   5.951   8.854 -1.0614 -0.5198  0.7329
   74SLPC  C218 6600   5.508   5.794   8.814  0.4836  0.5575 -0.3796
   74SLPC  H18R 6601   5.481   5.848   8.720 -0.6327  1.0264  0.2050
   74SLPC  H18S 6602   5.442   5.832   8.895  1.0469  0.9483 -0.0983
   74SLPC  H18T 6603   5.488   5.688   8.787 -0.5150  0.2346  1.5564
   74SLPC   C33 6604   5.946   5.575   9.848 -0.2961  0.0498  0.3087
   74SLPC   H3X 6605   5.955   5.521   9.945 -0.2788 -3.9248 -1.7786
   74SLPC   H3Y 6606   6.048   5.590   9.806  1.0013 -2.9316  2.2209
   74SLPC   C34 6607   5.878   5.479   9.745  0.1204 -0.2352 -0.1329
   74SLPC   H4X 6608   5.779   5.449   9.786  0.8836 -2.2715  0.2402
   74SLPC   H4Y 6609   5.924   5.378   9.743 -2.1607 -1.3070 -0.6875
   74SLPC   C35 6610   5.854   5.533   9.602  0.4030 -0.3933  0.3806
   74SLPC   H5X 6611   5.920   5.620   9.583 -1.7864  1.3466  0.5377
   74SLPC   H5Y 6612   5.750   5.569   9.619  0.2167 -1.0615  0.6766
   74SLPC   C36 6613   5.856   5.429   9.493  0.0290 -0.6228  0.9227
   74SLPC   H6X 6614   5.929   5.351   9.523  1.0216  0.0441  0.2791
   74SLPC   H6Y 6615   5.895   5.464   9.395 -1.0775 -1.2333  0.2543
   74SLPC   C37 6616   5.717   5.365   9.464  0.7252 -0.3079 -0.2913
   74SLPC   H7X 6617   5.639   5.439   9.434  1.2691  1.3790  2.3253
   74SLPC   H7Y 6618   5.679   5.327   9.561  1.9093  0.2176  0.3781
   74SLPC   C38 6619   5.733   5.235   9.379 -0.0971 -0.4460  0.1260
   74SLPC   H8X 6620   5.641   5.173   9.390 -0.0561 -0.4412  0.4764
   74SLPC   H8Y 6621   5.820   5.170   9.403  1.0302  0.8737 -0.3612
   74SLPC   C39 6622   5.749   5.264   9.224 -0.1744  0.4499  0.0906
   74SLPC   H9X 6623   5.750   5.164   9.176 -0.2352  0.2173  0.5705
   74SLPC   H9Y 6624   5.849   5.310   9.212 -1.3144  2.4295 -2.1646
   74SLPC  C310 6625   5.635   5.346   9.167 -0.0162  0.4580  0.4941
   74SLPC  H10X 6626   5.623   5.448   9.209 -0.9701  1.1941 -1.5430
   74SLPC  H10Y 6627   5.544   5.288   9.192  0.6250 -1.3519 -1.2944
   74SLPC  C311 6628   5.645   5.368   9.011 -0.4779  0.2136  0.4734
   74SLPC  H11X 6629   5.723   5.446   8.995  1.8694 -1.9620  1.0169
   74SLPC  H11Y 6630   5.548   5.399   8.965 -0.2090  0.3975  0.0294
   74SLPC  C312 6631   5.687   5.246   8.921 -0.8316 -0.0849  0.4321
   74SLPC  H12X 6632   5.612   5.164   8.929 -2.3035  1.1089 -0.8838
   74SLPC  H12Y 6633   5.785   5.211   8.958 -0.1799 -1.6152 -2.5823
   74SLPC  C313 6634   5.706   5.290   8.776 -0.6526  0.6470 -0.3505
   74SLPC  H13X 6635   5.792   5.360   8.777 -1.5255  1.7345  0.9751
   74SLPC  H13Y 6636   5.610   5.334   8.742 -1.2195  0.4515  0.9373
   74SLPC  C314 6637   5.745   5.170   8.687  0.5259  0.3254 -0.7496
   74SLPC  H14X 6638   5.661   5.098   8.688  0.4999  0.2984 -2.8637
   74SLPC  H14Y 6639   5.835   5.123   8.733  0.5595  0.2696 -0.8725
   74SLPC  C315 6640   5.776   5.210   8.548 -0.0122  0.0693  0.1757
   74SLPC  H15X 6641   5.821   5.124   8.493 -0.8856  0.3961 -1.0558
   74SLPC  H15Y 6642   5.844   5.298   8.550 -1.4429  1.1845  0.9886
   74SLPC  C316 6643   5.651   5.258   8.465  0.7532  0.0345 -0.9287
   74SLPC  H16X 6644   5.634   5.362   8.498  0.3240 -0.0412 -0.9008
   74SLPC  H16Y 6645   5.556   5.199   8.475  0.5644  0.9584  3.5786
   74SLPC  C317 6646   5.679   5.269   8.314 -0.2074  0.7273  0.3904
   74SLPC  H17X 6647   5.717   5.172   8.276  0.8850  2.0172 -1.9493
   74SLPC  H17Y 6648   5.765   5.338   8.306  0.4771 -0.3976 -2.6736
   74SLPC  C318 6649   5.562   5.317   8.234  0.2234 -0.4104 -0.2083
   74SLPC  H18X 6650   5.524   5.418   8.262  2.1835 -0.3123  2.2864
   74SLPC  H18Y 6651   5.474   5.249   8.234  1.1858 -1.6797 -0.0960
   74SLPC  H18Z 6652   5.596   5.321   8.128 -1.3503 -0.0583 -0.7191
   75SLPC     N 6653   2.977   3.150   6.357  0.2210  0.2855 -0.5186
   75SLPC   C13 6654   2.920   3.071   6.249  0.2621 -0.2745 -0.2573
   75SLPC  H13A 6655   2.860   3.134   6.185  1.0285  0.4868 -0.2442
   75SLPC  H13B 6656   2.992   3.014   6.193 -0.9607 -1.3327 -0.7693
   75SLPC  H13C 6657   2.851   3.001   6.294  0.0305 -0.7116 -1.2802
   75SLPC   C14 6658   3.071   3.260   6.312  0.1692 -0.2397 -0.0249
   75SLPC  H14A 6659   3.017   3.335   6.256 -0.4460 -1.8871 -1.6988
   75SLPC  H14B 6660   3.128   3.302   6.394  0.8250 -0.9675 -0.0967
   75SLPC  H14C 6661   3.145   3.216   6.246  0.4048 -1.8729  1.2908
   75SLPC   C15 6662   3.058   3.047   6.435 -0.6422 -0.6690  0.4177
   75SLPC  H15A 6663   3.131   2.993   6.377 -0.0288 -2.0749  2.4324
   75SLPC  H15B 6664   3.098   3.085   6.529 -0.4358 -1.1084  0.5096
   75SLPC  H15C 6665   2.993   2.962   6.452  0.5841 -1.4162  1.5182
   75SLPC   C12 6666   2.872   3.218   6.447 -0.0418 -0.2765  0.2034
   75SLPC  H12A 6667   2.831   3.305   6.399 -1.8693 -2.3970 -2.2661
   75SLPC  H12B 6668   2.911   3.244   6.544 -0.5851  1.3861 -0.0092
   75SLPC   C11 6669   2.743   3.142   6.486  0.0817 -0.6137  0.5072
   75SLPC  H11A 6670   2.676   3.142   6.396 -0.3747 -1.1523  0.8447
   75SLPC  H11B 6671   2.705   3.212   6.563  2.5075  0.5090  0.7049
   75SLPC     P 6672   2.685   2.883   6.485  0.3519 -0.3640 -0.2052
   75SLPC   O13 6673   2.722   2.873   6.339 -0.0793  0.4519  0.5331
   75SLPC   O14 6674   2.735   2.769   6.557 -0.2754  0.3963 -0.6892
   75SLPC   O12 6675   2.760   3.011   6.541 -0.2789 -0.0385  0.4907
   75SLPC   O11 6676   2.536   2.910   6.511  0.1911 -0.0343  0.3699
   75SLPC    C1 6677   2.472   2.889   6.639  0.0359  0.4106  0.9580
   75SLPC    HA 6678   2.367   2.872   6.605 -0.2991 -1.0402  2.6574
   75SLPC    HB 6679   2.496   2.794   6.691 -1.5787 -0.0888  0.8377
   75SLPC    C2 6680   2.484   3.014   6.736 -0.2923  0.5773 -0.6827
   75SLPC    HS 6681   2.494   3.106   6.675  0.8785  0.4416 -0.7165
   75SLPC   O21 6682   2.607   2.985   6.810 -0.5629 -0.5477  0.1205
   75SLPC   C21 6683   2.643   3.082   6.886 -0.2103  0.3076  0.1278
   75SLPC   O22 6684   2.614   3.198   6.872 -0.4405  0.1678  0.0662
   75SLPC   C22 6685   2.739   3.019   6.991 -0.1785 -0.0814  0.3971
   75SLPC   H2R 6686   2.833   2.994   6.937  0.2581  1.5027  0.3713
   75SLPC   H2S 6687   2.760   3.101   7.063 -2.4456 -0.4725  1.5657
   75SLPC    C3 6688   2.357   3.036   6.830 -0.2756  0.0018 -0.0831
   75SLPC    HX 6689   2.276   3.036   6.754  0.1218 -1.7319 -0.5300
   75SLPC    HY 6690   2.355   3.137   6.876 -0.8981 -0.5386  1.0806
   75SLPC   O31 6691   2.339   2.928   6.933 -0.1267 -0.0049  1.1503
   75SLPC   C31 6692   2.228   2.929   7.000 -0.2501 -0.1097  0.2116
   75SLPC   O32 6693   2.141   3.013   6.993 -0.2427  0.2706  0.0666
   75SLPC   C32 6694   2.232   2.807   7.087  0.3851  0.3844 -0.1148
   75SLPC   H2X 6695   2.337   2.801   7.121  0.6955 -1.9128 -1.3712
   75SLPC   H2Y 6696   2.197   2.715   7.036 -0.3246  0.4532  0.2418
   75SLPC   C23 6697   2.681   2.900   7.072 -0.1768 -0.3826 -0.1502
   75SLPC   H3R 6698   2.631   2.838   6.994  2.6212 -0.7316 -1.7472
   75SLPC   H3S 6699   2.603   2.939   7.141  1.9387  2.1594  0.8767
   75SLPC   C24 6700   2.783   2.821   7.150  0.4105  0.0069 -0.4518
   75SLPC   H4R 6701   2.851   2.765   7.082 -0.4736 -2.0855  0.3675
   75SLPC   H4S 6702   2.728   2.750   7.215  2.1063 -2.0454 -1.1804
   75SLPC   C25 6703   2.855   2.905   7.254 -0.0447 -0.1944 -0.2967
   75SLPC   H5R 6704   2.875   3.008   7.216  4.6699 -1.4722 -1.5874
   75SLPC   H5S 6705   2.955   2.857   7.260  0.0245 -0.4899 -3.1756
   75SLPC   C26 6706   2.779   2.915   7.385 -0.2365 -0.1647  0.4184
   75SLPC   H6R 6707   2.765   2.814   7.429  1.7468  0.0437  1.5918
   75SLPC   H6S 6708   2.684   2.964   7.358  0.1435  0.6827  0.5988
   75SLPC   C27 6709   2.852   2.998   7.491  0.3896 -0.3522  0.6152
   75SLPC   H7R 6710   2.797   3.080   7.540  2.9795  2.4356 -0.9804
   75SLPC   H7S 6711   2.934   3.042   7.430 -2.1234  3.6643 -0.0204
   75SLPC   C28 6712   2.913   2.905   7.605 -0.0816  0.8509 -0.1326
   75SLPC   H8R 6713   2.994   2.964   7.653  0.0130  2.2373 -1.9400
   75SLPC   H8S 6714   2.961   2.822   7.549  0.5479  0.7998  0.4832
   75SLPC   C29 6715   2.822   2.859   7.708  0.2428 -0.4478 -0.0042
   75SLPC   H9R 6716   2.758   2.777   7.671 -1.7266  0.0640  2.1615
   75SLPC  C210 6717   2.792   2.908   7.827 -0.1582  0.4894 -0.0313
   75SLPC  H10R 6718   2.710   2.862   7.884  0.8644  0.4225  1.4216
   75SLPC  C211 6719   2.854   3.022   7.894 -0.2312 -0.2254 -0.4209
   75SLPC  H11R 6720   2.778   3.087   7.943  1.5688  0.0308  2.1145
   75SLPC  H11S 6721   2.912   3.084   7.824 -0.1094 -0.1759 -0.2771
   75SLPC  C212 6722   2.952   2.967   7.990  0.5854 -0.4643 -0.2705
   75SLPC  H12R 6723   3.056   2.951   7.957  0.5460 -0.3674 -0.4413
   75SLPC  C213 6724   2.919   2.939   8.121 -0.2449  0.0261  0.1768
   75SLPC  H13R 6725   2.995   2.909   8.194  0.0993 -3.2880 -1.4689
   75SLPC  C214 6726   2.783   2.953   8.178  0.3676  0.5118 -0.2487
   75SLPC  H14R 6727   2.723   2.861   8.193  2.0718 -0.7755 -1.1855
   75SLPC  H14S 6728   2.713   3.000   8.105 -0.5417 -0.1102  0.2020
   75SLPC  C215 6729   2.789   3.019   8.316  0.0684  0.0561  0.3772
   75SLPC  H15R 6730   2.863   2.980   8.389 -0.9652 -1.6418  0.5223
   75SLPC  H15S 6731   2.695   3.000   8.372 -1.0921 -1.0910 -1.8964
   75SLPC  C216 6732   2.799   3.174   8.305 -0.1597  0.8514  0.0316
   75SLPC  H16R 6733   2.740   3.208   8.217  0.5362 -1.8391 -1.5449
   75SLPC  H16S 6734   2.907   3.197   8.290  1.3110 -3.6266  2.9627
   75SLPC  C217 6735   2.752   3.246   8.428 -0.6119  0.2343 -0.1590
   75SLPC  H17R 6736   2.643   3.225   8.435 -0.6656  0.2950 -0.8416
   75SLPC  H17S 6737   2.756   3.355   8.407 -1.7390  0.3117 -0.0098
   75SLPC  C218 6738   2.819   3.208   8.559 -0.9445  0.9728 -0.0861
   75SLPC  H18R 6739   2.925   3.237   8.543 -1.0618  0.6144 -1.5741
   75SLPC  H18S 6740   2.813   3.098   8.579 -0.7882  0.5310 -2.3420
   75SLPC  H18T 6741   2.778   3.258   8.649  0.2006 -0.4027  1.2271
   75SLPC   C33 6742   2.135   2.830   7.208 -0.3302  0.3439 -0.3236
   75SLPC   H3X 6743   2.129   2.933   7.250 -1.5667  0.3166 -0.3958
   75SLPC   H3Y 6744   2.027   2.812   7.188 -0.4887  1.9624 -0.9928
   75SLPC   C34 6745   2.185   2.747   7.326  0.0711  0.5624 -0.3851
   75SLPC   H4X 6746   2.251   2.815   7.384 -0.7117 -0.2933  1.5531
   75SLPC   H4Y 6747   2.258   2.675   7.283  1.5235  0.6514  1.8746
   75SLPC   C35 6748   2.090   2.673   7.418 -0.6254  0.1109 -0.4497
   75SLPC   H5X 6749   2.154   2.601   7.473  0.5602  0.7628 -0.9526
   75SLPC   H5Y 6750   2.016   2.605   7.369  1.0950 -2.0700 -0.0879
   75SLPC   C36 6751   2.008   2.773   7.508  0.2872  0.1544  0.0923
   75SLPC   H6X 6752   1.938   2.828   7.441  2.5987  0.6518 -1.9513
   75SLPC   H6Y 6753   2.090   2.839   7.542  0.2243  0.4451 -0.3145
   75SLPC   C37 6754   1.924   2.717   7.622 -0.5421 -0.5504 -0.3795
   75SLPC   H7X 6755   1.890   2.616   7.590  3.5809 -2.3497  0.6315
   75SLPC   H7Y 6756   1.836   2.781   7.644  0.2683  0.4232  0.1163
   75SLPC   C38 6757   2.001   2.698   7.758  0.5219  0.7825  0.1164
   75SLPC   H8X 6758   2.009   2.793   7.816  0.8887  1.1000 -0.4439
   75SLPC   H8Y 6759   2.105   2.672   7.732  0.1106 -0.9403  0.1201
   75SLPC   C39 6760   1.944   2.592   7.849 -0.4190  0.6395 -0.0205
   75SLPC   H9X 6761   1.838   2.621   7.867 -0.1809  0.3965  1.8316
   75SLPC   H9Y 6762   2.003   2.599   7.943  0.2141  2.0040 -0.5159
   75SLPC  C310 6763   1.950   2.452   7.790 -0.6601  0.0950  0.3305
   75SLPC  H10X 6764   2.059   2.452   7.767 -0.1033  1.6433  2.7822
   75SLPC  H10Y 6765   1.887   2.436   7.699 -1.5025  1.0529  0.7324
   75SLPC  C311 6766   1.912   2.336   7.884 -0.9235 -0.4840  0.1602
   75SLPC  H11X 6767   1.968   2.254   7.835  1.9601  1.3701  0.2088
   75SLPC  H11Y 6768   1.803   2.315   7.886 -1.0794  0.0427 -1.5989
   75SLPC  C312 6769   1.943   2.356   8.037  0.4210 -0.6133 -0.0363
   75SLPC  H12X 6770   1.881   2.437   8.079 -0.0576 -0.9250 -0.1292
   75SLPC  H12Y 6771   2.049   2.388   8.046  0.0035 -0.0723  3.4577
   75SLPC  C313 6772   1.912   2.230   8.120  1.0152  0.1123  0.7193
   75SLPC  H13X 6773   1.982   2.154   8.078 -1.6863 -1.8794 -0.3351
   75SLPC  H13Y 6774   1.811   2.186   8.106  2.1577 -2.5496  0.4435
   75SLPC  C314 6775   1.931   2.254   8.266 -0.7734 -0.1233  0.3831
   75SLPC  H14X 6776   1.865   2.175   8.309 -0.5191 -0.4270  0.2182
   75SLPC  H14Y 6777   1.908   2.352   8.313  2.0699  0.3737  0.8422
   75SLPC  C315 6778   2.086   2.241   8.292  0.3518 -0.4731 -0.8749
   75SLPC  H15X 6779   2.150   2.300   8.223 -0.1050 -0.4762 -1.3002
   75SLPC  H15Y 6780   2.116   2.136   8.271 -0.0397 -1.1947  1.9151
   75SLPC  C316 6781   2.125   2.275   8.438  0.1331 -0.0947  0.1621
   75SLPC  H16X 6782   2.056   2.231   8.513 -2.2339  2.6733 -0.2915
   75SLPC  H16Y 6783   2.108   2.384   8.454  0.1798 -0.0200 -0.2917
   75SLPC  C317 6784   2.266   2.240   8.493  0.3355  0.3765  0.1044
   75SLPC  H17X 6785   2.268   2.297   8.588  2.5914  2.2808 -1.0325
   75SLPC  H17Y 6786   2.348   2.274   8.426 -0.4590  0.8182 -0.6470
   75SLPC  C318 6787   2.271   2.091   8.511  0.4048  0.3396 -0.3123
   75SLPC  H18X 6788   2.256   2.042   8.412  1.9076 -1.0995  0.1579
   75SLPC  H18Y 6789   2.192   2.058   8.581 -2.9716  2.1934 -3.0334
   75SLPC  H18Z 6790   2.371   2.065   8.551  0.8536  0.7793 -1.1289
   76SLPC     N 6791   4.858   0.402   5.873  0.0375 -0.8768 -1.0259
   76SLPC   C13 6792   4.939   0.312   5.967 -0.8548 -0.1760  0.4191
   76SLPC  H13A 6793   4.871   0.240   6.010 -2.2751  0.8345 -0.0570
   76SLPC  H13B 6794   5.022   0.268   5.914  1.5214  3.0197  1.3380
   76SLPC  H13C 6795   4.982   0.368   6.049  2.9883 -2.2267 -0.1191
   76SLPC   C14 6796   4.812   0.319   5.765 -0.5254  0.6889 -0.2870
   76SLPC  H14A 6797   4.902   0.281   5.719  1.3058  2.4981  1.7183
   76SLPC  H14B 6798   4.761   0.228   5.795  2.9582 -1.2483 -0.0169
   76SLPC  H14C 6799   4.753   0.375   5.693  1.1543  1.2331 -1.2772
   76SLPC   C15 6800   4.940   0.525   5.831 -0.8818  0.5817 -0.1098
   76SLPC  H15A 6801   4.880   0.592   5.770  1.0980  2.3472 -0.1672
   76SLPC  H15B 6802   4.976   0.588   5.911  1.2115  1.1772 -1.4710
   76SLPC  H15C 6803   5.029   0.498   5.776 -1.1909 -0.9708  0.1294
   76SLPC   C12 6804   4.731   0.444   5.942 -0.3334 -0.0322 -0.2238
   76SLPC  H12A 6805   4.682   0.521   5.885 -0.4517 -0.4488 -0.6894
   76SLPC  H12B 6806   4.761   0.501   6.030  2.2234 -1.4631 -0.1137
   76SLPC   C11 6807   4.622   0.339   5.994 -0.1757 -0.1816  0.3298
   76SLPC  H11A 6808   4.599   0.269   5.911  1.4759  1.9864 -2.0615
   76SLPC  H11B 6809   4.524   0.390   6.005 -0.0082  0.3205 -0.4078
   76SLPC     P 6810   4.631   0.299   6.250  0.4769 -0.2883  0.3059
   76SLPC   O13 6811   4.504   0.219   6.271  0.4913  0.0625 -0.2034
   76SLPC   O14 6812   4.741   0.267   6.340  0.2481 -0.4883  0.5994
   76SLPC   O12 6813   4.673   0.269   6.104 -0.4448 -0.2424  0.1032
   76SLPC   O11 6814   4.589   0.449   6.242 -0.0191  0.4671 -0.3809
   76SLPC    C1 6815   4.483   0.506   6.321 -0.4415  0.0610 -0.3154
   76SLPC    HA 6816   4.392   0.541   6.268 -1.1183  0.5927  1.1646
   76SLPC    HB 6817   4.450   0.437   6.401  0.5326 -0.7998 -0.6453
   76SLPC    C2 6818   4.525   0.630   6.412  0.3999 -0.6499  0.3180
   76SLPC    HS 6819   4.573   0.706   6.346 -1.7223  0.2292 -0.2533
   76SLPC   O21 6820   4.624   0.586   6.515 -0.1132 -0.3154 -0.4960
   76SLPC   C21 6821   4.680   0.675   6.583  0.2078 -0.1973  1.0048
   76SLPC   O22 6822   4.674   0.794   6.558 -0.5414 -0.1149 -0.4554
   76SLPC   C22 6823   4.751   0.614   6.695  0.6450 -0.2805 -0.2820
   76SLPC   H2R 6824   4.759   0.505   6.680  0.4090 -0.0549 -2.1703
   76SLPC   H2S 6825   4.857   0.644   6.714  0.6975 -1.4406  1.3741
   76SLPC    C3 6826   4.405   0.691   6.491 -0.1434 -0.5509 -0.3635
   76SLPC    HX 6827   4.323   0.697   6.416  0.0986 -2.0023 -0.7519
   76SLPC    HY 6828   4.429   0.792   6.529 -3.1283  0.7386 -1.6993
   76SLPC   O31 6829   4.364   0.601   6.594 -0.9821  0.2064 -0.6815
   76SLPC   C31 6830   4.241   0.576   6.612  1.1873  0.8250 -0.2415
   76SLPC   O32 6831   4.147   0.613   6.540  0.0005 -0.2576 -0.1618
   76SLPC   C32 6832   4.219   0.496   6.738  0.1206  0.0428  0.1175
   76SLPC   H2X 6833   4.294   0.416   6.755  2.0756  1.3918 -1.7571
   76SLPC   H2Y 6834   4.116   0.455   6.736 -0.7978  2.2751 -0.0961
   76SLPC   C23 6835   4.679   0.628   6.831  0.3074  0.6529  0.6627
   76SLPC   H3R 6836   4.594   0.558   6.816  0.2400  1.1659 -1.4530
   76SLPC   H3S 6837   4.651   0.729   6.869 -1.3433 -0.4854  2.5948
   76SLPC   C24 6838   4.755   0.547   6.941  0.7959  0.0192  0.0436
   76SLPC   H4R 6839   4.865   0.560   6.928  0.7996  0.0475  0.1059
   76SLPC   H4S 6840   4.735   0.438   6.932  0.6693  0.1196 -0.9521
   76SLPC   C25 6841   4.705   0.588   7.085 -0.0880 -0.4993  0.3098
   76SLPC   H5R 6842   4.599   0.555   7.088 -0.3008  0.0152 -1.4021
   76SLPC   H5S 6843   4.719   0.697   7.098  1.5711 -0.6842  0.1979
   76SLPC   C26 6844   4.794   0.516   7.186 -0.1865  0.2256  0.3030
   76SLPC   H6R 6845   4.899   0.530   7.153 -0.1410  0.7913  0.6669
   76SLPC   H6S 6846   4.768   0.408   7.185  1.0846 -0.0921  0.5148
   76SLPC   C27 6847   4.774   0.568   7.328  0.3425  0.5583 -0.0702
   76SLPC   H7R 6848   4.668   0.563   7.361  1.0810 -0.7129  2.2448
   76SLPC   H7S 6849   4.812   0.672   7.330  0.4524  0.5512 -1.3211
   76SLPC   C28 6850   4.853   0.492   7.436  0.6945 -0.0161  0.3542
   76SLPC   H8R 6851   4.823   0.553   7.524 -1.8329  1.7754 -1.6593
   76SLPC   H8S 6852   4.819   0.387   7.444  1.5763 -0.2636  0.9198
   76SLPC   C29 6853   5.002   0.505   7.428  0.6373  0.0007 -0.9347
   76SLPC   H9R 6854   5.060   0.558   7.351  1.0330 -0.2674 -0.8251
   76SLPC  C210 6855   5.076   0.439   7.518  0.1079  0.1727  0.1066
   76SLPC  H10R 6856   5.185   0.445   7.511  0.2192 -1.6769  0.0554
   76SLPC  C211 6857   5.019   0.356   7.633 -0.6681 -0.1204 -0.3075
   76SLPC  H11R 6858   5.029   0.250   7.603  2.7785 -0.3387  1.3965
   76SLPC  H11S 6859   4.908   0.355   7.639 -0.6174 -2.6795  0.8486
   76SLPC  C212 6860   5.073   0.381   7.772  0.0429 -0.3603  0.1684
   76SLPC  H12R 6861   5.165   0.326   7.797  1.7898  2.6026  0.4830
   76SLPC  C213 6862   5.039   0.471   7.866  0.2649  0.4748 -0.9178
   76SLPC  H13R 6863   5.092   0.482   7.962 -0.9402  0.7612 -0.2742
   76SLPC  C214 6864   4.936   0.577   7.846  0.0099 -0.4107  0.0965
   76SLPC  H14R 6865   4.853   0.558   7.917  2.2342 -0.4993  2.7287
   76SLPC  H14S 6866   4.900   0.578   7.740  3.4884 -2.2255 -1.1859
   76SLPC  C215 6867   4.982   0.715   7.884 -0.0884 -0.0967  0.2457
   76SLPC  H15R 6868   4.998   0.708   7.994 -0.0967 -0.0747  0.2482
   76SLPC  H15S 6869   4.896   0.782   7.862  1.5450  1.5361 -1.3729
   76SLPC  C216 6870   5.106   0.770   7.814 -0.3155 -0.3657 -0.6179
   76SLPC  H16R 6871   5.089   0.782   7.705 -0.7490 -1.1327 -0.6451
   76SLPC  H16S 6872   5.194   0.701   7.818  2.3561  2.8977 -1.4277
   76SLPC  C217 6873   5.149   0.907   7.884 -0.0560  0.3413  0.1091
   76SLPC  H17R 6874   5.056   0.962   7.911  0.2286 -0.1557  2.1924
   76SLPC  H17S 6875   5.202   0.961   7.803  1.0682 -0.3481  0.3719
   76SLPC  C218 6876   5.240   0.892   7.996 -0.0088 -0.8662  0.2419
   76SLPC  H18R 6877   5.332   0.841   7.959 -1.1240 -1.5847 -1.6099
   76SLPC  H18S 6878   5.203   0.830   8.080  1.9739 -0.1868  1.6537
   76SLPC  H18T 6879   5.258   0.995   8.032 -1.1290 -0.8123  0.6726
   76SLPC   C33 6880   4.218   0.581   6.867  0.2378  0.5879 -0.0928
   76SLPC   H3X 6881   4.172   0.526   6.952  2.0768  1.0961  1.2831
   76SLPC   H3Y 6882   4.161   0.676   6.854  0.4755  1.0180  1.8020
   76SLPC   C34 6883   4.355   0.629   6.895  0.1794 -0.3487 -0.2397
   76SLPC   H4X 6884   4.406   0.669   6.805  0.6677 -0.3070  0.0539
   76SLPC   H4Y 6885   4.413   0.546   6.940 -0.5843 -1.7604 -1.8233
   76SLPC   C35 6886   4.371   0.729   7.012  0.2716  0.4968 -0.5629
   76SLPC   H5X 6887   4.315   0.821   6.988 -1.6003 -0.9194 -1.7428
   76SLPC   H5Y 6888   4.478   0.758   7.012  0.2571  0.6033  1.2177
   76SLPC   C36 6889   4.341   0.679   7.158 -0.2626 -0.5428  0.4773
   76SLPC   H6X 6890   4.395   0.582   7.166  0.2122 -0.3080  0.1394
   76SLPC   H6Y 6891   4.234   0.648   7.155  0.1519 -1.8791 -1.1648
   76SLPC   C37 6892   4.380   0.779   7.265 -0.3890  0.4181 -0.0331
   76SLPC   H7X 6893   4.296   0.852   7.269  0.9874  2.0247  0.0431
   76SLPC   H7Y 6894   4.474   0.826   7.231  0.3117 -1.4348 -0.7354
   76SLPC   C38 6895   4.412   0.720   7.400 -0.4989 -0.1058 -0.6554
   76SLPC   H8X 6896   4.474   0.627   7.394  0.9956  0.8772 -0.8523
   76SLPC   H8Y 6897   4.315   0.694   7.446 -0.7253  0.0121 -1.0679
   76SLPC   C39 6898   4.478   0.829   7.490 -0.0597  0.6537  0.5402
   76SLPC   H9X 6899   4.414   0.920   7.497  2.1583  2.3342 -0.2312
   76SLPC   H9Y 6900   4.577   0.862   7.452 -1.1513 -1.0338 -3.9916
   76SLPC  C310 6901   4.497   0.774   7.632  0.0689 -0.8034  0.2988
   76SLPC  H10X 6902   4.550   0.676   7.636  0.0336 -0.8987 -1.2335
   76SLPC  H10Y 6903   4.390   0.763   7.661 -0.3163  0.8121 -0.4320
   76SLPC  C311 6904   4.572   0.863   7.734  0.2218 -0.7268 -0.5996
   76SLPC  H11X 6905   4.522   0.962   7.736  1.0464 -0.3194  1.6010
   76SLPC  H11Y 6906   4.676   0.869   7.696  0.1500  0.1885 -0.6595
   76SLPC  C312 6907   4.560   0.801   7.879  0.1254  0.3350 -0.0910
   76SLPC  H12X 6908   4.620   0.711   7.856  1.8671  1.9804 -2.2380
   76SLPC  H12Y 6909   4.459   0.761   7.905 -0.4204  0.2227 -2.2978
   76SLPC  C313 6910   4.628   0.877   7.986  0.0495  0.0600 -0.6444
   76SLPC  H13X 6911   4.571   0.971   8.004  0.2732 -0.2925  2.1854
   76SLPC  H13Y 6912   4.727   0.916   7.953 -0.4001 -1.0474 -3.3617
   76SLPC  C314 6913   4.651   0.802   8.116  0.0729 -0.3281  0.0985
   76SLPC  H14X 6914   4.686   0.700   8.090  0.2118  0.1064 -1.4692
   76SLPC  H14Y 6915   4.552   0.780   8.162 -0.6355 -0.5686 -1.5026
   76SLPC  C315 6916   4.735   0.875   8.218  0.6668 -0.3998 -0.1133
   76SLPC  H15X 6917   4.699   0.831   8.314 -0.8398  1.1613  0.0732
   76SLPC  H15Y 6918   4.707   0.983   8.218 -0.1464 -0.5942  1.2782
   76SLPC  C316 6919   4.887   0.850   8.203 -0.2738  0.6106  0.6140
   76SLPC  H16X 6920   4.922   0.891   8.106  0.5647  1.0251  1.0841
   76SLPC  H16Y 6921   4.896   0.739   8.207  1.6028  0.7887  3.1342
   76SLPC  C317 6922   4.972   0.918   8.318  0.4175 -0.3016  0.6071
   76SLPC  H17X 6923   4.937   1.023   8.331 -1.8219 -0.8592 -0.6273
   76SLPC  H17Y 6924   5.082   0.911   8.301  0.3876  0.6906 -0.0827
   76SLPC  C318 6925   4.947   0.847   8.456  0.1859 -0.4717  0.7886
   76SLPC  H18X 6926   4.861   0.896   8.506 -0.6348  0.0307 -1.0766
   76SLPC  H18Y 6927   5.034   0.863   8.523  1.3444  0.2239 -0.8399
   76SLPC  H18Z 6928   4.939   0.736   8.455 -2.0860 -0.3395  1.5563
   77SLPC     N 6929   1.332   0.640   6.308 -0.0751 -0.1378  0.7583
   77SLPC   C13 6930   1.454   0.603   6.396  0.0474  0.5696  0.0276
   77SLPC  H13A 6931   1.520   0.537   6.341 -0.0136  1.6347 -1.3341
   77SLPC  H13B 6932   1.505   0.695   6.422 -1.6288  1.4969  0.0572
   77SLPC  H13C 6933   1.420   0.558   6.489  1.1734  1.8002  1.0596
   77SLPC   C14 6934   1.270   0.516   6.246  0.1902  0.6454  0.7346
   77SLPC  H14A 6935   1.180   0.545   6.194 -1.8719 -1.2652  3.1502
   77SLPC  H14B 6936   1.343   0.473   6.179 -0.9850 -0.8581  0.3869
   77SLPC  H14C 6937   1.234   0.446   6.320 -1.1795 -0.4870 -0.9542
   77SLPC   C15 6938   1.371   0.729   6.191 -0.0584 -0.0302  0.1919
   77SLPC  H15A 6939   1.287   0.750   6.128 -0.2687  0.4247  0.6275
   77SLPC  H15B 6940   1.406   0.821   6.235  0.5634 -0.7705  1.2597
   77SLPC  H15C 6941   1.454   0.702   6.127  0.8596  0.1835  1.2704
   77SLPC   C12 6942   1.228   0.707   6.399  0.3580 -0.1762 -0.0379
   77SLPC  H12A 6943   1.128   0.699   6.360  1.0253 -2.3244 -1.3557
   77SLPC  H12B 6944   1.263   0.809   6.412  2.8963 -0.8066 -1.6579
   77SLPC   C11 6945   1.200   0.656   6.544  0.0505  0.4355 -0.2116
   77SLPC  H11A 6946   1.131   0.729   6.591 -1.5541 -0.8092 -0.5986
   77SLPC  H11B 6947   1.286   0.661   6.615 -1.0482 -0.4500  1.1979
   77SLPC     P 6948   1.002   0.492   6.503  0.0226  0.1371  0.3247
   77SLPC   O13 6949   0.953   0.597   6.411 -0.3751  0.1223 -0.6435
   77SLPC   O14 6950   1.004   0.360   6.450  0.4414 -0.3051 -0.0374
   77SLPC   O12 6951   1.150   0.529   6.548 -0.2159  0.1141  0.2919
   77SLPC   O11 6952   0.932   0.492   6.644 -0.2003  0.4837 -0.7539
   77SLPC    C1 6953   0.998   0.473   6.772  0.2385  0.0340 -0.5419
   77SLPC    HA 6954   1.068   0.388   6.786  0.5443  0.6357  1.6970
   77SLPC    HB 6955   1.047   0.571   6.793 -0.6275 -0.0718  2.1609
   77SLPC    C2 6956   0.876   0.462   6.874  0.4303 -0.4325  0.4019
   77SLPC    HS 6957   0.825   0.558   6.851  0.4804 -0.1688  1.3794
   77SLPC   O21 6958   0.929   0.448   7.003  0.3646 -0.6320 -0.1242
   77SLPC   C21 6959   0.856   0.499   7.101 -0.4957  0.3023 -1.0513
   77SLPC   O22 6960   0.768   0.580   7.096  0.1050  0.3235  0.0654
   77SLPC   C22 6961   0.921   0.448   7.231  0.4598 -0.4310 -0.4418
   77SLPC   H2R 6962   0.965   0.347   7.220  1.3536 -0.2410  1.1096
   77SLPC   H2S 6963   1.006   0.514   7.259 -0.0812  0.3631 -0.6400
   77SLPC    C3 6964   0.760   0.348   6.850 -0.7524  0.5890  0.2119
   77SLPC    HX 6965   0.807   0.248   6.861  0.4975  1.0239 -1.0191
   77SLPC    HY 6966   0.725   0.328   6.746 -0.0685  0.7318 -0.0483
   77SLPC   O31 6967   0.652   0.363   6.939  0.3820 -0.4800  0.6112
   77SLPC   C31 6968   0.554   0.434   6.895  0.8923 -0.0144  0.2632
   77SLPC   O32 6969   0.548   0.493   6.788 -0.4148  0.0470 -0.1695
   77SLPC   C32 6970   0.448   0.460   7.005 -0.8903 -0.1925  0.2408
   77SLPC   H2X 6971   0.355   0.493   6.956  0.1416 -1.8171 -2.9490
   77SLPC   H2Y 6972   0.478   0.548   7.066  1.2073  0.6029 -1.8491
   77SLPC   C23 6973   0.824   0.453   7.351 -0.0645 -0.1917 -0.0552
   77SLPC   H3R 6974   0.731   0.395   7.329 -0.0945 -0.8624  1.6973
   77SLPC   H3S 6975   0.789   0.556   7.372  1.5452  0.1410  1.0770
   77SLPC   C24 6976   0.880   0.390   7.475 -0.8468  0.3453 -0.0978
   77SLPC   H4R 6977   0.913   0.471   7.542  1.8323  0.7672 -1.8387
   77SLPC   H4S 6978   0.963   0.323   7.445  0.1889  0.8701  1.5556
   77SLPC   C25 6979   0.775   0.294   7.546 -0.1702 -0.0879  0.3170
   77SLPC   H5R 6980   0.830   0.241   7.627  0.9807  1.0372  0.2834
   77SLPC   H5S 6981   0.732   0.226   7.470 -1.8352  1.1320  0.1273
   77SLPC   C26 6982   0.671   0.375   7.622  0.0329 -0.3157  0.2651
   77SLPC   H6R 6983   0.592   0.418   7.557  0.0869  0.0527  0.4395
   77SLPC   H6S 6984   0.715   0.464   7.673  3.5213 -1.1344 -1.1630
   77SLPC   C27 6985   0.589   0.287   7.718 -0.4422  0.9613 -0.1667
   77SLPC   H7R 6986   0.566   0.190   7.669  1.7525  0.2536  0.1281
   77SLPC   H7S 6987   0.492   0.338   7.740 -1.2852 -0.7459  0.1568
   77SLPC   C28 6988   0.668   0.259   7.855 -0.5768  0.1280  0.1964
   77SLPC   H8R 6989   0.725   0.353   7.869  0.4180 -0.2568 -1.1930
   77SLPC   H8S 6990   0.730   0.170   7.834 -0.7135  0.0753  0.0115
   77SLPC   C29 6991   0.561   0.234   7.961  0.5488  0.2315 -0.9697
   77SLPC   H9R 6992   0.517   0.136   7.937  1.1106 -0.2617 -0.0311
   77SLPC  C210 6993   0.535   0.302   8.076 -0.5669  0.0812 -0.5237
   77SLPC  H10R 6994   0.449   0.263   8.133  0.0166 -2.4462 -1.3050
   77SLPC  C211 6995   0.596   0.423   8.136 -0.8134 -0.0564 -0.1574
   77SLPC  H11R 6996   0.706   0.405   8.133 -1.0346 -1.4835 -0.3987
   77SLPC  H11S 6997   0.561   0.433   8.240 -0.2837  2.6647 -0.2160
   77SLPC  C212 6998   0.588   0.557   8.068  0.8849 -0.6846  0.0345
   77SLPC  H12R 6999   0.619   0.551   7.962 -1.5578 -0.1815 -0.7449
   77SLPC  C213 7000   0.531   0.670   8.122 -0.6971  0.1091  0.2886
   77SLPC  H13R 7001   0.510   0.758   8.060 -0.4736 -1.1358 -1.6140
   77SLPC  C214 7002   0.483   0.680   8.265 -0.0719  0.4038  0.2986
   77SLPC  H14R 7003   0.527   0.603   8.332  1.6031 -0.7307 -2.0319
   77SLPC  H14S 7004   0.373   0.663   8.271 -0.4446  2.7017  0.5516
   77SLPC  C215 7005   0.538   0.810   8.331 -0.3022 -0.0486  0.9730
   77SLPC  H15R 7006   0.515   0.903   8.275 -0.2494 -0.1991  0.7035
   77SLPC  H15S 7007   0.648   0.821   8.339  0.0479 -3.1265  0.7533
   77SLPC  C216 7008   0.491   0.821   8.478 -0.6010 -0.8486  0.4506
   77SLPC  H16R 7009   0.525   0.727   8.527  3.8911 -0.0857 -0.9649
   77SLPC  H16S 7010   0.380   0.825   8.481 -0.5225  3.8631  0.7055
   77SLPC  C217 7011   0.557   0.935   8.546  0.3009  0.0575 -0.4346
   77SLPC  H17R 7012   0.509   1.025   8.503  1.7175  1.1258  0.2074
   77SLPC  H17S 7013   0.667   0.923   8.529  0.6092  0.0137  1.5072
   77SLPC  C218 7014   0.539   0.927   8.690 -0.3968  0.5514  0.2195
   77SLPC  H18R 7015   0.437   0.949   8.729 -0.0838  0.0151  1.3482
   77SLPC  H18S 7016   0.619   0.989   8.734 -1.6791  1.3632  1.4550
   77SLPC  H18T 7017   0.547   0.819   8.716 -0.9537  0.6972  1.0195
   77SLPC   C33 7018   0.428   0.350   7.106  0.4431  0.2556 -0.5847
   77SLPC   H3X 7019   0.520   0.292   7.131 -0.4646 -1.8203 -1.8937
   77SLPC   H3Y 7020   0.374   0.275   7.044  2.3237 -1.3097 -0.3995
   77SLPC   C34 7021   0.342   0.387   7.227 -0.5672 -0.8339  0.5241
   77SLPC   H4X 7022   0.260   0.457   7.200 -2.1220 -3.0431 -0.5737
   77SLPC   H4Y 7023   0.410   0.450   7.289 -0.4002  1.2244 -1.6487
   77SLPC   C35 7024   0.273   0.271   7.309 -0.0928  0.8848  0.1038
   77SLPC   H5X 7025   0.356   0.198   7.314 -0.8826 -0.2121 -2.3335
   77SLPC   H5Y 7026   0.197   0.222   7.244  1.8967  0.3050 -1.8453
   77SLPC   C36 7027   0.224   0.309   7.447 -0.6290 -0.8704  0.2187
   77SLPC   H6X 7028   0.150   0.390   7.435  0.8003  0.3799 -0.3031
   77SLPC   H6Y 7029   0.305   0.371   7.491 -2.5344  0.7130  1.5846
   77SLPC   C37 7030   0.186   0.198   7.537  0.7888 -0.1385  0.1618
   77SLPC   H7X 7031   0.282   0.141   7.532  1.7064  1.1270  2.3666
   77SLPC   H7Y 7032   0.104   0.141   7.489  0.5605 -0.5863  1.0726
   77SLPC   C38 7033   0.149   0.237   7.682  0.2989 -0.2023 -0.3249
   77SLPC   H8X 7034   0.065   0.309   7.686 -0.2105 -0.8850  2.2305
   77SLPC   H8Y 7035   0.236   0.292   7.723  0.3022 -0.7327  0.3900
   77SLPC   C39 7036   0.113   0.119   7.774  0.1611 -0.0477 -0.6432
   77SLPC   H9X 7037   0.191   0.044   7.751  1.6408  1.3937 -0.3850
   77SLPC   H9Y 7038   0.015   0.070   7.754  0.0297 -0.3235  0.6225
   77SLPC  C310 7039   0.103   0.151   7.923 -0.3230 -0.4789  0.4557
   77SLPC  H10X 7040   0.043   0.244   7.934 -1.9833 -1.1995 -1.9947
   77SLPC  H10Y 7041   0.197   0.182   7.974 -0.8515 -0.7428  1.6001
   77SLPC  C311 7042   0.037   0.042   8.017 -0.2740 -0.6457  0.5752
   77SLPC  H11X 7043   0.099  -0.050   8.028 -0.9155 -1.3236 -1.3108
   77SLPC  H11Y 7044  -0.058  -0.007   7.987  0.3079 -1.3273 -0.1752
   77SLPC  C312 7045   0.023   0.101   8.159  1.4138 -0.1883 -0.0287
   77SLPC  H12X 7046  -0.045   0.188   8.152  3.6744  1.5460 -0.9217
   77SLPC  H12Y 7047   0.124   0.122   8.199  0.9602 -0.5651  1.3432
   77SLPC  C313 7048  -0.042   0.001   8.260  0.3775  0.3074 -0.2365
   77SLPC  H13X 7049   0.005  -0.099   8.264 -2.0141 -0.8731 -0.4172
   77SLPC  H13Y 7050  -0.148  -0.013   8.229 -0.2758  2.4342  0.9587
   77SLPC  C314 7051  -0.031   0.063   8.398  0.2247  0.4329 -0.1608
   77SLPC  H14X 7052  -0.119   0.025   8.454 -0.2117  0.1070 -1.0524
   77SLPC  H14Y 7053  -0.058   0.169   8.415 -0.3440 -0.2088  3.1841
   77SLPC  C315 7054   0.094   0.023   8.476  0.5127 -0.1908  0.3911
   77SLPC  H15X 7055   0.181   0.047   8.411  0.6940  0.9913  1.0582
   77SLPC  H15Y 7056   0.098  -0.088   8.481  0.1516 -0.2543 -0.6249
   77SLPC  C316 7057   0.104   0.083   8.611  0.3943  0.5571  0.4530
   77SLPC  H16X 7058   0.066   0.016   8.691  0.1678 -0.0114 -0.1277
   77SLPC  H16Y 7059   0.038   0.173   8.607  0.3714  0.5277  0.0678
   77SLPC  C317 7060   0.235   0.134   8.642  0.4192 -0.2203 -0.6682
   77SLPC  H17X 7061   0.269   0.203   8.562  1.2585  1.5368  1.1668
   77SLPC  H17Y 7062   0.307   0.049   8.642 -0.8870 -1.3574  1.1019
   77SLPC  C318 7063   0.256   0.196   8.777  0.1127 -0.7130  0.4987
   77SLPC  H18X 7064   0.220   0.301   8.772  0.1871 -0.6656  1.0054
   77SLPC  H18Y 7065   0.365   0.193   8.798 -0.5095 -1.1424  3.9061
   77SLPC  H18Z 7066   0.194   0.146   8.854  0.8760 -1.0887  0.8769
   78SLPC     N 7067   3.531   0.466   5.976  0.6454  0.5199 -0.2118
   78SLPC   C13 7068   3.651   0.542   5.942  0.1288  0.1619 -0.2706
   78SLPC  H13A 7069   3.734   0.526   6.009 -0.2067 -0.7736 -0.0760
   78SLPC  H13B 7070   3.674   0.537   5.837  0.4701  1.6247 -0.2812
   78SLPC  H13C 7071   3.616   0.644   5.955  0.4420  0.2416 -0.0475
   78SLPC   C14 7072   3.540   0.331   5.916  0.3994 -0.2801  0.2110
   78SLPC  H14A 7073   3.471   0.259   5.959  1.5230 -1.5363 -0.0517
   78SLPC  H14B 7074   3.528   0.326   5.809 -0.2818 -0.6483  0.3007
   78SLPC  H14C 7075   3.636   0.284   5.930  0.4942 -0.1472 -0.0023
   78SLPC   C15 7076   3.416   0.528   5.921 -0.6783  0.0339 -0.2910
   78SLPC  H15A 7077   3.420   0.557   5.817 -1.2228 -0.8734 -0.5685
   78SLPC  H15B 7078   3.323   0.474   5.932 -1.1025  0.6466 -0.8091
   78SLPC  H15C 7079   3.396   0.621   5.974 -0.4021  0.6410 -1.2426
   78SLPC   C12 7080   3.499   0.456   6.126 -0.5917  0.4969 -0.0128
   78SLPC  H12A 7081   3.564   0.379   6.166 -0.1169  1.6438  1.4661
   78SLPC  H12B 7082   3.398   0.417   6.132 -0.2883 -0.2831  0.1477
   78SLPC   C11 7083   3.504   0.580   6.218 -0.4973  0.3094 -0.0355
   78SLPC  H11A 7084   3.607   0.617   6.199 -0.1073 -0.3946  0.6928
   78SLPC  H11B 7085   3.479   0.568   6.325  0.9763 -0.4163  0.2318
   78SLPC     P 7086   3.263   0.675   6.193 -0.2245 -0.2400  0.0512
   78SLPC   O13 7087   3.179   0.724   6.082 -0.3617 -0.0582  0.2136
   78SLPC   O14 7088   3.245   0.540   6.242  0.3162  0.7544 -0.1258
   78SLPC   O12 7089   3.417   0.684   6.162 -0.0283 -0.0716 -0.0908
   78SLPC   O11 7090   3.241   0.786   6.309 -0.0032  0.0626  0.0854
   78SLPC    C1 7091   3.323   0.904   6.310  0.7406  0.6806  0.1242
   78SLPC    HA 7092   3.368   0.929   6.212 -0.1093 -2.1913 -1.0323
   78SLPC    HB 7093   3.256   0.989   6.336 -0.2932 -0.6415  1.8404
   78SLPC    C2 7094   3.438   0.889   6.412  0.9744 -0.3631  0.2870
   78SLPC    HS 7095   3.497   0.797   6.393  0.1566 -0.4107 -2.1837
   78SLPC   O21 7096   3.378   0.877   6.548 -0.7409  0.0659 -0.7817
   78SLPC   C21 7097   3.475   0.851   6.642  0.3211  0.1919  0.4895
   78SLPC   O22 7098   3.586   0.813   6.618 -0.0018 -0.1281  0.4791
   78SLPC   C22 7099   3.408   0.864   6.780  0.1357  0.4557  0.3297
   78SLPC   H2R 7100   3.333   0.947   6.777 -1.0879 -0.6271  0.2238
   78SLPC   H2S 7101   3.364   0.764   6.798  2.8558 -1.2997 -2.4179
   78SLPC    C3 7102   3.521   1.019   6.391 -0.2082  0.5413 -0.7036
   78SLPC    HX 7103   3.573   1.012   6.293 -1.3629 -1.7227 -1.1816
   78SLPC    HY 7104   3.612   1.017   6.455  0.3251  1.3067 -1.4290
   78SLPC   O31 7105   3.432   1.137   6.384 -0.3795 -0.0420 -0.5265
   78SLPC   C31 7106   3.428   1.192   6.502 -0.0189 -0.5150  0.2588
   78SLPC   O32 7107   3.494   1.162   6.602  0.1522 -0.5458  0.2566
   78SLPC   C32 7108   3.327   1.301   6.495  0.2374  0.3429  0.5804
   78SLPC   H2X 7109   3.373   1.372   6.422  1.9744 -0.7938  0.5299
   78SLPC   H2Y 7110   3.324   1.354   6.593  1.6658  1.4533  0.0557
   78SLPC   C23 7111   3.503   0.876   6.898 -0.2271  0.4232 -0.7932
   78SLPC   H3R 7112   3.593   0.812   6.880 -0.8108 -0.0240 -2.2025
   78SLPC   H3S 7113   3.447   0.846   6.989 -0.6179 -1.2533 -1.5619
   78SLPC   C24 7114   3.561   1.013   6.917 -0.3083 -0.6045 -0.1748
   78SLPC   H4R 7115   3.497   1.100   6.945  0.9728  1.1235 -2.5206
   78SLPC   H4S 7116   3.610   1.049   6.825 -0.6515  2.7290  0.8716
   78SLPC   C25 7117   3.682   1.013   7.021 -0.3212  0.0828 -0.0960
   78SLPC   H5R 7118   3.735   1.111   7.017 -0.0468 -0.0967 -1.0935
   78SLPC   H5S 7119   3.748   0.931   6.986  1.3189  0.8367  1.1793
   78SLPC   C26 7120   3.642   1.004   7.172  0.7453 -0.3669 -0.5417
   78SLPC   H6R 7121   3.634   0.900   7.209 -1.1594  0.5232  1.6723
   78SLPC   H6S 7122   3.543   1.052   7.184  0.5008 -1.0811  0.3587
   78SLPC   C27 7123   3.739   1.095   7.257  0.8423 -0.0170  0.9169
   78SLPC   H7R 7124   3.737   1.194   7.206 -0.8053 -1.7348 -2.6010
   78SLPC   H7S 7125   3.844   1.058   7.257  0.9701  0.3326  1.6204
   78SLPC   C28 7126   3.687   1.119   7.402  0.4950 -1.1817  0.4051
   78SLPC   H8R 7127   3.579   1.143   7.408  0.5524 -1.0262  0.8829
   78SLPC   H8S 7128   3.745   1.206   7.439  1.1861 -1.5138  0.1103
   78SLPC   C29 7129   3.730   0.997   7.479 -0.5468  0.5027  0.1401
   78SLPC   H9R 7130   3.742   0.904   7.420  2.0596 -0.6982  2.4681
   78SLPC  C210 7131   3.739   0.991   7.617  0.0923  0.0086  0.4659
   78SLPC  H10R 7132   3.763   0.901   7.676  2.1405  0.0083 -0.3394
   78SLPC  C211 7133   3.710   1.099   7.713  0.2534 -0.9395  0.2450
   78SLPC  H11R 7134   3.707   1.066   7.819 -0.2831  3.4522  1.7072
   78SLPC  H11S 7135   3.605   1.134   7.703  0.6544 -0.1666 -1.4280
   78SLPC  C212 7136   3.810   1.213   7.704 -0.1473  0.5084 -0.2476
   78SLPC  H12R 7137   3.856   1.234   7.607  0.2281  0.6947 -0.0310
   78SLPC  C213 7138   3.852   1.286   7.813 -0.3384  0.4611  0.4934
   78SLPC  H13R 7139   3.929   1.364   7.800 -0.4182  0.2496 -1.4775
   78SLPC  C214 7140   3.811   1.272   7.955 -0.2758  0.0027  0.6821
   78SLPC  H14R 7141   3.888   1.209   8.005  0.1455  0.5558  0.7346
   78SLPC  H14S 7142   3.714   1.222   7.972  1.4070 -2.8017  2.3356
   78SLPC  C215 7143   3.811   1.411   8.019 -0.7639  0.1256  0.3515
   78SLPC  H15R 7144   3.759   1.496   7.970  1.6357  0.8502 -1.0012
   78SLPC  H15S 7145   3.914   1.451   8.005 -0.0757 -0.6230  2.9072
   78SLPC  C216 7146   3.782   1.412   8.173 -0.4820  0.1005  0.4719
   78SLPC  H16R 7147   3.839   1.330   8.221 -0.7637  0.2945  1.1429
   78SLPC  H16S 7148   3.672   1.398   8.182 -0.6380  0.7957 -0.2540
   78SLPC  C217 7149   3.826   1.546   8.234 -0.2809  0.3240 -0.6587
   78SLPC  H17R 7150   3.761   1.630   8.201  0.0128  1.8144  2.3208
   78SLPC  H17S 7151   3.928   1.571   8.199  0.3409 -0.0270  0.8496
   78SLPC  C218 7152   3.809   1.544   8.386  0.1129  0.3052 -0.1945
   78SLPC  H18R 7153   3.704   1.510   8.396  0.1675  0.7290  1.9412
   78SLPC  H18S 7154   3.826   1.650   8.414  3.0563 -0.2587  0.2511
   78SLPC  H18T 7155   3.882   1.474   8.430  0.4326  0.5921 -0.2683
   78SLPC   C33 7156   3.181   1.244   6.466 -0.0258  0.0348  0.1151
   78SLPC   H3X 7157   3.177   1.202   6.363  4.2811 -0.8452  0.2053
   78SLPC   H3Y 7158   3.109   1.329   6.466  0.2015  0.2851 -2.8361
   78SLPC   C34 7159   3.122   1.149   6.570 -0.6270 -0.5753  0.2137
   78SLPC   H4X 7160   3.185   1.057   6.574 -0.4313 -0.4459  0.1368
   78SLPC   H4Y 7161   3.021   1.127   6.530 -0.7203  0.5018 -0.1556
   78SLPC   C35 7162   3.125   1.199   6.719  0.3126  0.4336 -0.3303
   78SLPC   H5X 7163   3.230   1.222   6.745  0.1915  0.7072 -0.0803
   78SLPC   H5Y 7164   3.089   1.116   6.783  0.4255  1.3120  0.8771
   78SLPC   C36 7165   3.061   1.331   6.762 -0.8934 -0.3382  0.6993
   78SLPC   H6X 7166   2.953   1.349   6.744 -0.3545  0.5539 -1.7883
   78SLPC   H6Y 7167   3.111   1.407   6.699 -1.0894  0.4194  1.4378
   78SLPC   C37 7168   3.096   1.372   6.912 -0.2434 -0.1814  0.1216
   78SLPC   H7X 7169   3.046   1.468   6.936  0.1528 -0.1004  0.6482
   78SLPC   H7Y 7170   3.206   1.390   6.907 -0.4083  0.3499 -2.0466
   78SLPC   C38 7171   3.062   1.266   7.015 -0.5852 -0.2799 -0.3076
   78SLPC   H8X 7172   3.122   1.177   6.989 -1.8878 -1.3516  0.2872
   78SLPC   H8Y 7173   2.955   1.236   7.015 -0.2842 -1.4196  1.6722
   78SLPC   C39 7174   3.104   1.306   7.166 -0.5012 -0.5299  0.0155
   78SLPC   H9X 7175   3.073   1.410   7.191  1.1582 -0.4398  1.7633
   78SLPC   H9Y 7176   3.214   1.313   7.158 -0.5997  0.2746 -0.7171
   78SLPC  C310 7177   3.064   1.200   7.263 -0.4622 -0.1007  0.0381
   78SLPC  H10X 7178   3.086   1.095   7.235  2.1521  0.1585  0.9529
   78SLPC  H10Y 7179   2.954   1.210   7.263 -0.3126  1.8171 -1.6080
   78SLPC  C311 7180   3.122   1.220   7.404 -1.0713  0.6644 -0.6355
   78SLPC  H11X 7181   3.068   1.308   7.447  1.4518  1.0987  1.7884
   78SLPC  H11Y 7182   3.230   1.246   7.396 -1.4921  1.8560 -2.9908
   78SLPC  C312 7183   3.102   1.090   7.490  0.5763 -0.4283  0.8735
   78SLPC  H12X 7184   3.160   1.002   7.455 -2.4008 -1.9895 -0.3082
   78SLPC  H12Y 7185   2.999   1.049   7.487  1.0270 -1.6183  1.2882
   78SLPC  C313 7186   3.140   1.116   7.637 -0.0274 -0.3496 -0.0645
   78SLPC  H13X 7187   3.061   1.071   7.701 -0.1802  1.1799  0.8532
   78SLPC  H13Y 7188   3.143   1.226   7.654 -1.0501 -0.2498 -0.5053
   78SLPC  C314 7189   3.267   1.044   7.682  0.4579 -0.0649  0.0714
   78SLPC  H14X 7190   3.363   1.094   7.657  0.4579  0.7062  1.5603
   78SLPC  H14Y 7191   3.261   0.945   7.632  0.9028 -0.7180  1.2941
   78SLPC  C315 7192   3.268   1.025   7.840  0.6688  0.0231  0.3085
   78SLPC  H15X 7193   3.340   0.944   7.864  0.9272 -0.4266 -1.8596
   78SLPC  H15Y 7194   3.174   0.971   7.863  0.3696 -0.5995 -2.2245
   78SLPC  C316 7195   3.274   1.151   7.923 -0.1666 -0.3493 -0.4648
   78SLPC  H16X 7196   3.184   1.215   7.909  0.5795  0.9115  0.4182
   78SLPC  H16Y 7197   3.353   1.215   7.880 -0.6699  1.4094  1.1609
   78SLPC  C317 7198   3.313   1.127   8.077 -0.4386  0.3572  0.3965
   78SLPC  H17X 7199   3.335   1.227   8.118 -0.8482  0.5967  0.0403
   78SLPC  H17Y 7200   3.405   1.071   8.102 -1.0584 -1.0931 -0.4884
   78SLPC  C318 7201   3.200   1.059   8.152  0.0032  0.2504 -0.2842
   78SLPC  H18X 7202   3.099   1.103   8.156 -0.6647 -1.2032 -0.5491
   78SLPC  H18Y 7203   3.233   1.030   8.254 -0.2584 -0.6033 -0.4336
   78SLPC  H18Z 7204   3.189   0.957   8.107  0.8465 -0.8955  2.0285
   79SLPC     N 7205   6.592   3.363   6.039 -0.1467 -0.4468  0.2075
   79SLPC   C13 7206   6.574   3.227   6.097 -0.4846 -0.1090 -0.1563
   79SLPC  H13A 7207   6.634   3.211   6.186  2.2442 -0.6700 -2.0152
   79SLPC  H13B 7208   6.475   3.206   6.133  0.0365 -2.4323 -0.0114
   79SLPC  H13C 7209   6.604   3.154   6.023 -0.4535 -1.8010  1.4901
   79SLPC   C14 7210   6.481   3.400   5.947  0.3013 -0.5457 -0.4617
   79SLPC  H14A 7211   6.388   3.403   6.003 -1.1497 -1.3703 -2.7517
   79SLPC  H14B 7212   6.495   3.498   5.903 -1.8320 -0.4221 -0.9264
   79SLPC  H14C 7213   6.453   3.344   5.859 -1.8071 -3.3112  1.8879
   79SLPC   C15 7214   6.711   3.354   5.953 -0.1317 -0.2981 -0.0101
   79SLPC  H15A 7215   6.799   3.344   6.015 -0.1103 -0.0427  0.0038
   79SLPC  H15B 7216   6.694   3.278   5.878  2.9566 -0.7715 -0.2984
   79SLPC  H15C 7217   6.729   3.446   5.898  0.0524 -0.1884  0.2346
   79SLPC   C12 7218   6.594   3.466   6.155  0.1020 -0.1137  0.1290
   79SLPC  H12A 7219   6.518   3.443   6.228  2.1808 -1.9306  1.7932
   79SLPC  H12B 7220   6.573   3.564   6.114  1.4712  0.0560 -0.2095
   79SLPC   C11 7221   6.722   3.480   6.242  0.1844  0.3239 -1.1650
   79SLPC  H11A 7222   6.700   3.556   6.320 -2.0277 -2.5975  1.1604
   79SLPC  H11B 7223   6.809   3.521   6.186  2.1753 -0.3513  1.3398
   79SLPC     P 7224   6.885   3.286   6.338 -0.0656 -0.4149 -0.4300
   79SLPC   O13 7225   6.857   3.184   6.441 -0.4313  0.4222 -0.3901
   79SLPC   O14 7226   6.981   3.250   6.232 -0.5293 -0.2961  0.1691
   79SLPC   O12 7227   6.749   3.350   6.297 -0.2533 -0.3814  0.1133
   79SLPC   O11 7228   6.953   3.405   6.412 -0.2677 -0.0252  0.0321
   79SLPC    C1 7229   6.894   3.478   6.522  0.0848 -0.4990 -0.3709
   79SLPC    HA 7230   6.886   3.586   6.497  0.0004  0.1264  2.1842
   79SLPC    HB 7231   6.793   3.436   6.543 -0.1854  0.6170  0.6106
   79SLPC    C2 7232   6.983   3.461   6.646 -0.1307 -0.2211  0.8948
   79SLPC    HS 7233   6.939   3.524   6.726  1.3636 -0.8494  2.2223
   79SLPC   O21 7234   7.117   3.505   6.618 -0.0746 -0.1681 -0.1483
   79SLPC   C21 7235   7.130   3.637   6.613  0.3022 -0.2762  0.3177
   79SLPC   O22 7236   7.046   3.723   6.634 -1.0881  0.7525 -0.3533
   79SLPC   C22 7237   7.270   3.669   6.569  0.6024 -0.6148  0.3360
   79SLPC   H2R 7238   7.322   3.575   6.545  0.1484 -0.3180 -1.8715
   79SLPC   H2S 7239   7.254   3.729   6.477  0.9909 -0.6459  0.2474
   79SLPC    C3 7240   6.978   3.316   6.713  1.1230  0.5638 -0.4689
   79SLPC    HX 7241   7.040   3.308   6.805 -0.3697  0.7281  0.5553
   79SLPC    HY 7242   7.008   3.243   6.635 -2.4125 -2.1329  0.5509
   79SLPC   O31 7243   6.846   3.280   6.748 -0.2841 -0.1951 -0.1119
   79SLPC   C31 7244   6.797   3.315   6.867 -0.0920  0.2911 -0.3320
   79SLPC   O32 7245   6.866   3.371   6.954 -0.6370 -0.1199  0.2144
   79SLPC   C32 7246   6.656   3.263   6.885  0.1241  0.4101  0.3180
   79SLPC   H2X 7247   6.644   3.159   6.849 -0.4764  0.4124  0.5006
   79SLPC   H2Y 7248   6.585   3.322   6.823 -0.4169 -0.4016  0.1620
   79SLPC   C23 7249   7.338   3.765   6.674 -0.4182  0.4417 -0.4559
   79SLPC   H3R 7250   7.269   3.849   6.693  0.8118  1.6730 -1.3160
   79SLPC   H3S 7251   7.430   3.799   6.621  2.2965 -0.5104  3.3680
   79SLPC   C24 7252   7.367   3.699   6.812  0.2908 -0.3265 -0.0719
   79SLPC   H4R 7253   7.270   3.672   6.860  1.1720 -0.5002  1.6529
   79SLPC   H4S 7254   7.420   3.772   6.876  1.6324  0.2954 -1.8526
   79SLPC   C25 7255   7.459   3.577   6.806 -0.3451 -0.9047  0.8203
   79SLPC   H5R 7256   7.552   3.613   6.757 -0.1950 -1.5338  0.6361
   79SLPC   H5S 7257   7.431   3.507   6.724  0.3488 -1.3375  0.9477
   79SLPC   C26 7258   7.485   3.500   6.932 -0.1116 -0.6083  0.0391
   79SLPC   H6R 7259   7.534   3.405   6.900  0.3087 -0.4230  0.1396
   79SLPC   H6S 7260   7.388   3.467   6.976 -0.9324  0.0276 -1.2379
   79SLPC   C27 7261   7.582   3.580   7.020  0.0446  0.1532 -0.2901
   79SLPC   H7R 7262   7.512   3.653   7.067  0.1913 -1.0606  1.9108
   79SLPC   H7S 7263   7.662   3.623   6.956 -0.0230  0.0477 -0.4426
   79SLPC   C28 7264   7.656   3.504   7.130  0.5851 -0.4222  0.2844
   79SLPC   H8R 7265   7.721   3.581   7.178  0.5445 -0.0472 -0.2555
   79SLPC   H8S 7266   7.728   3.429   7.091 -0.5431 -0.9324 -0.8228
   79SLPC   C29 7267   7.570   3.435   7.230  0.0057 -0.3147  0.1736
   79SLPC   H9R 7268   7.483   3.388   7.181 -0.0474  0.5885 -0.6194
   79SLPC  C210 7269   7.594   3.424   7.361 -0.3455  0.4836 -0.5807
   79SLPC  H10R 7270   7.520   3.377   7.427  0.5049 -2.5893 -1.6799
   79SLPC  C211 7271   7.716   3.474   7.436  1.1721 -0.1469  0.3107
   79SLPC  H11R 7272   7.688   3.550   7.513  1.4172 -0.9061  1.1552
   79SLPC  H11S 7273   7.794   3.535   7.384  0.6028  0.2585 -0.0791
   79SLPC  C212 7274   7.791   3.371   7.521  0.5661  0.0156 -0.0170
   79SLPC  H12R 7275   7.878   3.319   7.478 -0.8281 -2.2515 -0.1744
   79SLPC  C213 7276   7.756   3.338   7.645  0.3389  0.1488  0.4442
   79SLPC  H13R 7277   7.786   3.241   7.687  0.1415 -0.3075 -0.4572
   79SLPC  C214 7278   7.628   3.396   7.711  0.1049  0.5194  0.5608
   79SLPC  H14R 7279   7.538   3.363   7.656  1.9945 -1.4746 -1.4591
   79SLPC  H14S 7280   7.632   3.507   7.720 -1.7404  0.7033 -0.6711
   79SLPC  C215 7281   7.619   3.354   7.860  0.1569  0.6116  0.1983
   79SLPC  H15R 7282   7.625   3.246   7.887  0.2233 -0.0814 -2.4920
   79SLPC  H15S 7283   7.514   3.379   7.885  0.6668  3.7128 -0.5813
   79SLPC  C216 7284   7.709   3.432   7.958 -0.1495  0.7289  0.5839
   79SLPC  H16R 7285   7.691   3.539   7.936 -0.6305  0.3152 -1.1002
   79SLPC  H16S 7286   7.812   3.406   7.924 -0.1244  2.6092 -0.8633
   79SLPC  C217 7287   7.678   3.409   8.109 -0.4119  0.1071  0.1071
   79SLPC  H17R 7288   7.735   3.482   8.170  0.4127  2.8163 -3.7173
   79SLPC  H17S 7289   7.730   3.314   8.138 -0.3250  0.7914  2.2806
   79SLPC  C218 7290   7.530   3.406   8.143  0.0937  0.4519  0.3707
   79SLPC  H18R 7291   7.519   3.407   8.254  3.3126  3.3245  0.7612
   79SLPC  H18S 7292   7.472   3.321   8.101  0.2029  0.1971  0.7253
   79SLPC  H18T 7293   7.480   3.501   8.119 -1.7370 -0.5242  0.2587
   79SLPC   C33 7294   6.617   3.280   7.034 -0.5667 -1.6869 -0.0185
   79SLPC   H3X 7295   6.510   3.290   7.061 -0.2799  1.5883  0.0603
   79SLPC   H3Y 7296   6.646   3.377   7.080 -0.3611 -0.5787 -2.3645
   79SLPC   C34 7297   6.683   3.177   7.114  0.5940  0.3251 -0.7714
   79SLPC   H4X 7298   6.787   3.211   7.138  1.2594 -2.3621  0.2898
   79SLPC   H4Y 7299   6.687   3.080   7.061 -0.4074 -0.3378  0.3258
   79SLPC   C35 7300   6.607   3.145   7.244  0.0414 -0.2141 -0.0488
   79SLPC   H5X 7301   6.669   3.060   7.280 -0.1560 -0.7235 -0.8901
   79SLPC   H5Y 7302   6.505   3.104   7.226 -0.4241  0.5616  0.8130
   79SLPC   C36 7303   6.584   3.253   7.343  0.5002  0.8513 -0.1277
   79SLPC   H6X 7304   6.529   3.340   7.301 -0.7231  0.4743  0.6696
   79SLPC   H6Y 7305   6.684   3.297   7.360  0.5872  0.6145 -0.0144
   79SLPC   C37 7306   6.515   3.207   7.475 -0.7140  0.5018 -0.2608
   79SLPC   H7X 7307   6.411   3.169   7.468 -0.3003 -0.3223 -2.6450
   79SLPC   H7Y 7308   6.496   3.300   7.531  0.5702  1.1588 -0.8842
   79SLPC   C38 7309   6.607   3.106   7.556  0.1406 -0.0599 -0.2606
   79SLPC   H8X 7310   6.712   3.138   7.542 -0.2467  1.2246 -0.2728
   79SLPC   H8Y 7311   6.597   3.006   7.509  2.0750  0.9425 -2.9415
   79SLPC   C39 7312   6.559   3.108   7.703 -0.4453  0.1277  0.9329
   79SLPC   H9X 7313   6.583   3.008   7.745 -0.8128 -0.2620  0.2367
   79SLPC   H9Y 7314   6.449   3.113   7.708 -0.5659 -2.0300  1.0071
   79SLPC  C310 7315   6.621   3.220   7.792  0.7119  1.0937  0.1426
   79SLPC  H10X 7316   6.610   3.320   7.745 -1.2852  0.0559 -1.6608
   79SLPC  H10Y 7317   6.729   3.197   7.804  0.8795  1.6025 -0.3890
   79SLPC  C311 7318   6.549   3.229   7.935 -0.5313  0.2328 -0.4739
   79SLPC  H11X 7319   6.567   3.134   7.990  0.8458  0.9666  0.3760
   79SLPC  H11Y 7320   6.442   3.257   7.929 -0.4660  0.3990 -0.8759
   79SLPC  C312 7321   6.610   3.343   8.022 -0.9070 -0.2812  0.0569
   79SLPC  H12X 7322   6.582   3.433   7.964 -0.8958 -0.2846  0.0473
   79SLPC  H12Y 7323   6.720   3.331   8.010 -0.7664 -0.7923  1.7965
   79SLPC  C313 7324   6.561   3.355   8.163  0.0891 -0.0739 -0.5472
   79SLPC  H13X 7325   6.626   3.302   8.236  1.1274 -0.6824 -1.8978
   79SLPC  H13Y 7326   6.456   3.319   8.172  0.9286 -3.0734 -1.9583
   79SLPC  C314 7327   6.569   3.500   8.204  0.3397 -0.1438 -0.3246
   79SLPC  H14X 7328   6.489   3.550   8.147  1.1549  1.0273 -0.4607
   79SLPC  H14Y 7329   6.667   3.551   8.189  0.8077 -0.7821  0.4790
   79SLPC  C315 7330   6.547   3.509   8.352 -0.2701  0.1063  0.3103
   79SLPC  H15X 7331   6.621   3.453   8.414  1.9239  0.6135 -1.8049
   79SLPC  H15Y 7332   6.453   3.458   8.381  0.3640 -0.8285  0.7665
   79SLPC  C316 7333   6.541   3.653   8.406 -0.3133  0.1739  0.2701
   79SLPC  H16X 7334   6.485   3.718   8.335 -1.3672 -1.3357 -0.3113
   79SLPC  H16Y 7335   6.643   3.696   8.401  0.0991 -0.7560  0.7899
   79SLPC  C317 7336   6.472   3.661   8.544  0.2203  0.0636  0.7620
   79SLPC  H17X 7337   6.536   3.597   8.608 -1.2683 -0.6414  1.5787
   79SLPC  H17Y 7338   6.373   3.611   8.552  0.2043  0.0904  0.7296
   79SLPC  C318 7339   6.461   3.801   8.593 -0.0826  0.4706 -0.4371
   79SLPC  H18X 7340   6.389   3.866   8.539 -1.0400 -0.8182 -0.7315
   79SLPC  H18Y 7341   6.559   3.853   8.580 -0.3413  1.4116  1.3248
   79SLPC  H18Z 7342   6.458   3.811   8.703  1.5848  0.9286 -0.4103
   80SLPC     N 7343   2.239   2.103   6.205 -0.2086  0.5694  0.4010
   80SLPC   C13 7344   2.227   2.054   6.064  0.2345 -0.3054 -0.2388
   80SLPC  H13A 7345   2.248   1.948   6.064 -1.4240 -0.6603  2.3852
   80SLPC  H13B 7346   2.130   2.067   6.018  0.3985 -0.3951 -0.6151
   80SLPC  H13C 7347   2.292   2.108   5.996  0.0965  1.6339  1.1165
   80SLPC   C14 7348   2.224   2.256   6.200  1.5403 -0.2123 -0.4862
   80SLPC  H14A 7349   2.119   2.272   6.183  1.3561 -0.7343  0.1382
   80SLPC  H14B 7350   2.241   2.306   6.295 -1.4085 -1.7359  0.9240
   80SLPC  H14C 7351   2.281   2.299   6.119  2.1831 -0.6421 -0.2704
   80SLPC   C15 7352   2.378   2.059   6.253  0.3388  0.6176 -0.0509
   80SLPC  H15A 7353   2.388   1.951   6.252  1.7152  0.7362  0.4523
   80SLPC  H15B 7354   2.447   2.099   6.181 -1.4413  1.1022 -1.5232
   80SLPC  H15C 7355   2.399   2.093   6.353  1.5238 -2.2207  0.7227
   80SLPC   C12 7356   2.129   2.044   6.292 -0.8237 -0.0035  0.3363
   80SLPC  H12A 7357   2.037   2.033   6.236 -1.7636 -0.4916  1.9644
   80SLPC  H12B 7358   2.111   2.113   6.372 -1.5169  0.0285  0.1570
   80SLPC   C11 7359   2.164   1.907   6.350  0.1995  0.2082  0.0513
   80SLPC  H11A 7360   2.082   1.864   6.412  0.9926  0.4347  1.2704
   80SLPC  H11B 7361   2.248   1.913   6.422 -1.2245  0.3064  1.7377
   80SLPC     P 7362   2.274   1.698   6.267  0.0872  0.2274 -0.1178
   80SLPC   O13 7363   2.259   1.609   6.150  0.1599  0.8783  0.1096
   80SLPC   O14 7364   2.413   1.747   6.291  0.0535  1.0446  0.0739
   80SLPC   O12 7365   2.182   1.819   6.242  0.1374 -0.5029  0.2863
   80SLPC   O11 7366   2.215   1.624   6.395 -0.1766 -0.5133 -0.4999
   80SLPC    C1 7367   2.081   1.578   6.393 -0.0777 -0.2296 -0.0360
   80SLPC    HA 7368   2.007   1.660   6.381 -1.1817 -0.7873  2.7056
   80SLPC    HB 7369   2.071   1.495   6.319  0.6767  1.4460 -2.0496
   80SLPC    C2 7370   2.047   1.503   6.531 -0.2152 -0.2310  0.3102
   80SLPC    HS 7371   1.951   1.447   6.527 -0.9663  1.1020 -0.7134
   80SLPC   O21 7372   2.056   1.593   6.641 -0.0547 -0.2492 -0.0215
   80SLPC   C21 7373   1.953   1.673   6.649 -0.1310  0.2150 -0.4283
   80SLPC   O22 7374   1.856   1.671   6.572 -0.0635  0.2952  0.7708
   80SLPC   C22 7375   1.980   1.790   6.752 -0.3615  0.1173 -0.1565
   80SLPC   H2R 7376   2.059   1.749   6.818 -1.9928  0.3757  2.0007
   80SLPC   H2S 7377   2.018   1.871   6.686 -0.8278  0.4717  0.0063
   80SLPC    C3 7378   2.149   1.387   6.537  0.0057 -0.3738 -0.0097
   80SLPC    HX 7379   2.253   1.422   6.519  0.4310 -0.9747  1.2025
   80SLPC    HY 7380   2.127   1.318   6.453  1.5351 -2.5457  1.3051
   80SLPC   O31 7381   2.136   1.318   6.668 -0.0210 -0.6016  0.1762
   80SLPC   C31 7382   2.210   1.381   6.764 -0.5611  0.5357 -0.1554
   80SLPC   O32 7383   2.290   1.472   6.744 -0.0532 -0.5174 -0.3982
   80SLPC   C32 7384   2.163   1.318   6.892 -0.0097 -0.4684  0.1626
   80SLPC   H2X 7385   2.175   1.208   6.881  0.9683 -0.2543 -1.0430
   80SLPC   H2Y 7386   2.057   1.343   6.909  0.2329 -0.0670  1.0918
   80SLPC   C23 7387   1.864   1.836   6.840 -0.0204 -0.0830 -0.2228
   80SLPC   H3R 7388   1.788   1.901   6.791  0.2866  1.4969  1.3341
   80SLPC   H3S 7389   1.918   1.903   6.910  2.3584 -2.8595  0.7283
   80SLPC   C24 7390   1.799   1.727   6.920 -0.3699 -0.4953 -0.2626
   80SLPC   H4R 7391   1.767   1.644   6.854  0.0894 -0.1202 -0.9522
   80SLPC   H4S 7392   1.707   1.773   6.962  0.7489  2.5996 -1.0180
   80SLPC   C25 7393   1.880   1.672   7.038 -0.7325  0.4129  0.1469
   80SLPC   H5R 7394   1.902   1.750   7.114 -1.8070  0.5243  0.3593
   80SLPC   H5S 7395   1.981   1.643   7.005  0.6336  2.6431  2.1888
   80SLPC   C26 7396   1.806   1.566   7.124 -0.0014  0.2356 -0.5697
   80SLPC   H6R 7397   1.821   1.474   7.063  0.9915  1.4305 -2.1566
   80SLPC   H6S 7398   1.701   1.600   7.136  0.6674  1.6550  1.4038
   80SLPC   C27 7399   1.867   1.546   7.266  0.9163  0.1627 -0.0296
   80SLPC   H7R 7400   1.855   1.638   7.327  4.4768  0.7967 -0.1640
   80SLPC   H7S 7401   1.971   1.507   7.259  0.3794 -1.2789 -0.1542
   80SLPC   C28 7402   1.784   1.440   7.342 -0.1098 -0.9121  0.8427
   80SLPC   H8R 7403   1.757   1.361   7.269  0.2206  1.4596 -1.9457
   80SLPC   H8S 7404   1.685   1.490   7.352  0.5490  1.0738 -1.6572
   80SLPC   C29 7405   1.849   1.393   7.466 -0.3350  0.3264  0.1517
   80SLPC   H9R 7406   1.949   1.352   7.443  0.0661  0.1515  2.0740
   80SLPC  C210 7407   1.813   1.391   7.593  0.1587 -0.9206  0.7611
   80SLPC  H10R 7408   1.880   1.344   7.666  1.6669 -1.5836 -0.9980
   80SLPC  C211 7409   1.678   1.431   7.649 -0.2550 -0.0886  0.2798
   80SLPC  H11R 7410   1.654   1.524   7.592  2.2134 -0.7247 -1.9228
   80SLPC  H11S 7411   1.693   1.475   7.750 -1.7447  0.3274  0.3330
   80SLPC  C212 7412   1.562   1.339   7.656  0.0437  0.0413  0.4004
   80SLPC  H12R 7413   1.583   1.248   7.598  0.6874  0.4035  0.0606
   80SLPC  C213 7414   1.450   1.344   7.735  0.5060 -0.9354 -0.3337
   80SLPC  H13R 7415   1.380   1.259   7.741 -1.3662  0.6348  0.6526
   80SLPC  C214 7416   1.416   1.446   7.838  0.0569 -1.3271 -0.1028
   80SLPC  H14R 7417   1.333   1.514   7.809 -0.4510 -0.0561  3.8779
   80SLPC  H14S 7418   1.500   1.515   7.863 -0.4280 -0.7068 -0.1739
   80SLPC  C215 7419   1.371   1.382   7.965  0.2329  0.3381  0.0505
   80SLPC  H15R 7420   1.340   1.466   8.032  1.0459  0.0649  0.7888
   80SLPC  H15S 7421   1.459   1.334   8.014  1.1999  0.5519 -1.4359
   80SLPC  C216 7422   1.253   1.287   7.957  0.1163  0.1869  0.0838
   80SLPC  H16R 7423   1.293   1.198   7.902  3.1428  1.9491 -0.6831
   80SLPC  H16S 7424   1.164   1.325   7.903  0.3454  0.2045 -0.2822
   80SLPC  C217 7425   1.218   1.235   8.093  0.1156  0.3000 -0.6928
   80SLPC  H17R 7426   1.300   1.206   8.162 -0.9448 -0.1213  0.4262
   80SLPC  H17S 7427   1.170   1.135   8.080  0.1553  0.1443  0.3001
   80SLPC  C218 7428   1.121   1.324   8.171  0.0613 -0.7094 -0.2978
   80SLPC  H18R 7429   1.053   1.366   8.094  1.0086  0.1461 -0.6897
   80SLPC  H18S 7430   1.180   1.388   8.239 -0.1432 -0.1015 -0.6883
   80SLPC  H18T 7431   1.057   1.254   8.228 -0.5498  2.2814  2.8292
   80SLPC   C33 7432   2.242   1.373   7.016  0.4087 -0.3091 -0.5407
   80SLPC   H3X 7433   2.239   1.484   7.022  0.4013 -0.3532  0.4416
   80SLPC   H3Y 7434   2.347   1.342   7.000  0.2080 -1.5248  0.3852
   80SLPC   C34 7435   2.200   1.301   7.141 -0.4682 -0.2282  0.2868
   80SLPC   H4X 7436   2.207   1.190   7.137 -1.8189 -0.2942 -0.9989
   80SLPC   H4Y 7437   2.097   1.344   7.149  0.2653  2.3003 -2.6696
   80SLPC   C35 7438   2.284   1.334   7.264  0.7577  0.2975 -0.3160
   80SLPC   H5X 7439   2.256   1.440   7.285  1.6493  0.3652  0.5550
   80SLPC   H5Y 7440   2.395   1.330   7.256  0.8586  0.8766  0.6816
   80SLPC   C36 7441   2.238   1.262   7.383  1.2437 -0.0393 -0.2737
   80SLPC   H6X 7442   2.243   1.154   7.356 -2.8572 -0.6814  1.1592
   80SLPC   H6Y 7443   2.133   1.281   7.412  1.0723 -0.6665 -0.4697
   80SLPC   C37 7444   2.337   1.281   7.501  0.2235 -0.1004  0.3789
   80SLPC   H7X 7445   2.334   1.388   7.530  2.3331  0.2502 -0.5628
   80SLPC   H7Y 7446   2.442   1.264   7.467 -0.5826 -1.3227 -1.5931
   80SLPC   C38 7447   2.313   1.188   7.619  0.2834  0.3672 -0.1684
   80SLPC   H8X 7448   2.397   1.192   7.692  0.8954 -0.6590 -0.8113
   80SLPC   H8Y 7449   2.310   1.084   7.580 -0.4172  0.1654  0.4154
   80SLPC   C39 7450   2.186   1.226   7.699  0.0263  0.3293  0.9238
   80SLPC   H9X 7451   2.103   1.165   7.658  1.9273 -1.6229 -0.1007
   80SLPC   H9Y 7452   2.163   1.334   7.686  2.3520  0.9914  2.0091
   80SLPC  C310 7453   2.209   1.202   7.854 -0.2013  0.8761  0.3081
   80SLPC  H10X 7454   2.255   1.105   7.880 -1.6215  0.4571  1.3224
   80SLPC  H10Y 7455   2.107   1.204   7.898  0.5790 -1.9598  2.4015
   80SLPC  C311 7456   2.300   1.313   7.923 -0.0402 -0.1219  0.2108
   80SLPC  H11X 7457   2.229   1.397   7.933 -1.1775 -1.0576  0.1560
   80SLPC  H11Y 7458   2.388   1.336   7.859  0.2438  0.6662  0.8821
   80SLPC  C312 7459   2.343   1.269   8.062 -0.2614 -0.3064  0.1428
   80SLPC  H12X 7460   2.411   1.348   8.099 -1.9565  1.0669  0.4145
   80SLPC  H12Y 7461   2.406   1.180   8.042  1.7370  1.0375  0.3280
   80SLPC  C313 7462   2.227   1.253   8.156  0.4926 -0.6694 -0.5718
   80SLPC  H13X 7463   2.155   1.177   8.118  0.6383 -0.6913 -0.8076
   80SLPC  H13Y 7464   2.179   1.349   8.184  2.6014  0.4180 -0.5290
   80SLPC  C314 7465   2.276   1.180   8.281  0.3763  0.3234  0.0611
   80SLPC  H14X 7466   2.332   1.091   8.247 -2.0605 -0.9988 -0.6467
   80SLPC  H14Y 7467   2.188   1.153   8.343 -1.3908  2.8226 -1.2729
   80SLPC  C315 7468   2.368   1.264   8.373  0.1889 -0.6649  0.0152
   80SLPC  H15X 7469   2.307   1.341   8.424 -1.2612 -0.5985 -1.7833
   80SLPC  H15Y 7470   2.456   1.310   8.323 -0.9905  0.9191 -0.6261
   80SLPC  C316 7471   2.438   1.184   8.491  0.8062 -0.1666  0.8166
   80SLPC  H16X 7472   2.352   1.128   8.535 -0.4269 -0.3412 -1.7116
   80SLPC  H16Y 7473   2.466   1.267   8.558 -0.0209  0.8699 -0.1056
   80SLPC  C317 7474   2.551   1.088   8.449  0.7185  0.4993  0.8663
   80SLPC  H17X 7475   2.623   1.124   8.373 -0.2509 -0.1160 -0.3586
   80SLPC  H17Y 7476   2.513   0.990   8.411  1.4563  0.1974  0.8978
   80SLPC  C318 7477   2.615   1.060   8.583 -0.6013  0.4349  0.0371
   80SLPC  H18X 7478   2.670   1.150   8.616  0.4012 -0.4307  0.7851
   80SLPC  H18Y 7479   2.696   0.988   8.557  0.7055  2.0455 -0.4053
   80SLPC  H18Z 7480   2.549   1.017   8.662  0.1306 -1.2182 -0.2271
   81SAPS     N 7481   2.604   2.708  11.200 -0.1193 -0.0636  0.6382
   81SAPS   HN1 7482   2.631   2.779  11.271  0.0724  0.1613  0.3347
   81SAPS   HN2 7483   2.680   2.638  11.186  0.9000  1.0202  0.7392
   81SAPS   HN3 7484   2.603   2.762  11.112  0.4372  0.4725  0.9623
   81SAPS   C12 7485   2.485   2.620  11.224 -0.1836  0.0626 -0.4313
   81SAPS  H12A 7486   2.484   2.589  11.327  0.8831 -1.5268 -0.8839
   81SAPS   C13 7487   2.344   2.696  11.191 -0.3448 -0.5009 -0.3447
   81SAPS  O13A 7488   2.336   2.818  11.155 -0.4371  0.1384 -0.3181
   81SAPS  O13B 7489   2.244   2.634  11.235  0.0623  0.6197 -0.1803
   81SAPS   C11 7490   2.494   2.496  11.133  0.3400 -0.7859  0.0913
   81SAPS  H11A 7491   2.487   2.523  11.025  2.6025  2.9688  0.8081
   81SAPS  H11B 7492   2.398   2.441  11.144  0.7321 -2.2153 -2.9316
   81SAPS     P 7493   2.735   2.407  11.101  0.2781 -0.2420  0.3091
   81SAPS   O13 7494   2.804   2.537  11.122  0.0801 -0.1660 -0.6762
   81SAPS   O14 7495   2.823   2.296  11.148  0.6231 -0.1046  0.1187
   81SAPS   O12 7496   2.596   2.410  11.179  0.9909  0.0283 -0.1750
   81SAPS   O11 7497   2.686   2.387  10.947  0.3487  0.4514 -0.0359
   81SAPS    C1 7498   2.731   2.474  10.849  0.3304 -0.2550 -0.0346
   81SAPS    HA 7499   2.672   2.568  10.845 -0.1238 -0.4983  0.7052
   81SAPS    HB 7500   2.839   2.496  10.864 -0.0794  0.8119  1.4676
   81SAPS    C2 7501   2.716   2.412  10.703  0.2805  0.1235  0.2425
   81SAPS    HS 7502   2.609   2.423  10.676  0.1027 -1.1247  0.3984
   81SAPS   O21 7503   2.764   2.280  10.698  0.1864 -0.7592 -0.3886
   81SAPS   C21 7504   2.691   2.190  10.642 -0.1835  0.6304  0.2138
   81SAPS   O22 7505   2.575   2.195  10.607 -0.4370 -0.2320 -0.0508
   81SAPS   C22 7506   2.770   2.060  10.629  0.4611 -0.6752 -0.5417
   81SAPS   H2R 7507   2.879   2.078  10.636  0.2167  0.2198  1.1621
   81SAPS   H2S 7508   2.736   2.009  10.722  1.2234  0.9211  0.6445
   81SAPS    C3 7509   2.803   2.494  10.607  0.0599 -0.2035  0.3192
   81SAPS    HX 7510   2.908   2.474  10.638 -0.0196 -1.0894  0.0341
   81SAPS    HY 7511   2.777   2.601  10.621  1.8559  0.7364 -3.1316
   81SAPS   O31 7512   2.786   2.453  10.475  0.2672  0.0481  0.1353
   81SAPS   C31 7513   2.681   2.494  10.407 -0.3341  0.3880  0.5529
   81SAPS   O32 7514   2.595   2.565  10.454 -0.1457 -0.3916  0.0320
   81SAPS   C32 7515   2.699   2.448  10.262  0.4119  0.1457 -0.8251
   81SAPS   H2X 7516   2.683   2.338  10.268 -3.0265  0.5351 -1.8464
   81SAPS   H2Y 7517   2.802   2.465  10.224  0.6177  0.3634 -0.1763
   81SAPS   C23 7518   2.719   1.973  10.511  0.0325 -0.0671  0.0708
   81SAPS   H3R 7519   2.608   1.964  10.504 -0.1479  0.9268  1.6135
   81SAPS   H3S 7520   2.757   1.870  10.529  2.2592  0.4283 -1.6048
   81SAPS   C24 7521   2.784   2.016  10.380 -0.2248  0.3050 -0.3768
   81SAPS   H4R 7522   2.746   2.113  10.342 -1.6215 -0.1310 -0.1573
   81SAPS   H4S 7523   2.750   1.938  10.308 -1.0465  0.7320 -0.4555
   81SAPS   C25 7524   2.937   2.023  10.389  0.8012 -0.3933 -0.2781
   81SAPS   H5R 7525   2.980   1.939  10.447 -1.4437 -0.2059  1.7539
   81SAPS   C26 7526   3.024   2.122  10.346 -0.5312  0.1094 -0.4789
   81SAPS   H6R 7527   3.130   2.094  10.358 -1.0179 -0.2398  3.7425
   81SAPS   C27 7528   2.983   2.244  10.266 -0.1363 -0.0434 -0.6245
   81SAPS   H7R 7529   2.961   2.325  10.339  0.7367 -1.4988  1.3097
   81SAPS   H7S 7530   2.888   2.231  10.210 -0.1281 -0.5006 -0.5373
   81SAPS   C28 7531   3.096   2.290  10.179 -0.8614  0.6941 -0.5184
   81SAPS   H8R 7532   3.178   2.327  10.242 -1.7494 -0.7394  1.5422
   81SAPS   C29 7533   3.098   2.296  10.044 -0.3798 -0.1500  0.1865
   81SAPS   H9R 7534   3.190   2.323   9.990  0.2638 -0.9402  0.8762
   81SAPS  C210 7535   2.983   2.270   9.948 -0.3001 -0.2817  0.7580
   81SAPS  H10R 7536   2.901   2.213   9.996 -1.3324  2.2506  2.1110
   81SAPS  H10S 7537   3.025   2.204   9.870 -0.3626  0.0266  0.4619
   81SAPS  C211 7538   2.929   2.397   9.884 -0.3492  0.4709 -0.0462
   81SAPS  H11R 7539   2.867   2.448   9.959 -1.6172 -1.1161  0.0246
   81SAPS  C212 7540   2.931   2.430   9.753  0.2631  0.1399 -0.4836
   81SAPS  H12R 7541   2.887   2.528   9.726 -0.1173 -0.2159 -1.1815
   81SAPS  C213 7542   2.997   2.349   9.645  0.4662 -0.5879 -0.5514
   81SAPS  H13R 7543   2.941   2.383   9.554 -0.6848 -1.1043 -0.0544
   81SAPS  H13S 7544   2.991   2.238   9.656 -1.1271 -0.3325  1.3384
   81SAPS  C214 7545   3.140   2.376   9.632 -0.4167  0.4998  0.0751
   81SAPS  H14R 7546   3.195   2.384   9.727 -1.2286 -0.9567  0.6971
   81SAPS  C215 7547   3.209   2.388   9.518  0.7736  0.6278  0.0333
   81SAPS  H15R 7548   3.318   2.400   9.512  1.1861 -2.2678  0.7436
   81SAPS  C216 7549   3.151   2.377   9.377 -0.0119  0.0938  0.0263
   81SAPS  H16R 7550   3.042   2.353   9.368  0.2337 -1.0889  0.1069
   81SAPS  H16S 7551   3.202   2.297   9.319  0.2524  1.1001 -1.1622
   81SAPS  C217 7552   3.181   2.498   9.294  0.2881 -0.1689  0.3524
   81SAPS  H17R 7553   3.275   2.551   9.319  0.8118  0.0072 -1.9250
   81SAPS  H17S 7554   3.098   2.569   9.317 -1.0804 -1.2014 -1.2857
   81SAPS  C218 7555   3.180   2.481   9.143  0.5764 -0.7375  0.1780
   81SAPS  H18R 7556   3.239   2.394   9.107 -1.6099 -0.7291 -3.7394
   81SAPS  H18S 7557   3.228   2.570   9.097  2.2626 -0.3521  2.5983
   81SAPS  C219 7558   3.044   2.463   9.070  0.2907  0.4996  0.3682
   81SAPS  H19R 7559   2.967   2.534   9.106  0.7095  1.7104 -1.0731
   81SAPS  H19S 7560   3.011   2.358   9.085  1.8355 -0.2075 -1.0347
   81SAPS  C220 7561   3.050   2.456   8.909 -0.0236  0.0921  0.8804
   81SAPS  H20R 7562   3.148   2.419   8.872  1.2723  1.4110  2.8563
   81SAPS  H20S 7563   3.039   2.551   8.851  2.0996  0.0729  0.4172
   81SAPS  H20T 7564   2.973   2.381   8.879 -1.4585  1.6970  0.4525
   81SAPS   C33 7565   2.599   2.528  10.167  0.3556  0.9025 -0.0154
   81SAPS   H3X 7566   2.627   2.635  10.173 -2.8367  1.7224  1.2036
   81SAPS   H3Y 7567   2.496   2.512  10.204 -0.1210 -0.7923 -1.9616
   81SAPS   C34 7568   2.598   2.489  10.019 -0.0655  0.5188 -0.6166
   81SAPS   H4X 7569   2.581   2.385   9.985 -0.9856  0.5759 -0.3397
   81SAPS   H4Y 7570   2.691   2.534   9.977  0.2810  0.0904 -0.3118
   81SAPS   C35 7571   2.480   2.556   9.950  0.3370 -0.0716 -0.4676
   81SAPS   H5X 7572   2.497   2.663   9.973 -2.5016  0.0408  1.3476
   81SAPS   H5Y 7573   2.388   2.519  10.000 -0.0081  0.3859 -0.7586
   81SAPS   C36 7574   2.459   2.540   9.801 -0.1071 -0.2868  0.3245
   81SAPS   H6X 7575   2.361   2.581   9.770  0.6977  0.2327 -1.6318
   81SAPS   H6Y 7576   2.460   2.433   9.772  1.7646  0.5378 -2.9641
   81SAPS   C37 7577   2.568   2.621   9.727 -1.0368 -0.4449  0.2193
   81SAPS   H7X 7578   2.666   2.581   9.762 -0.6794 -0.1873 -0.4727
   81SAPS   H7Y 7579   2.565   2.730   9.748 -2.3053 -0.0592 -1.7768
   81SAPS   C38 7580   2.546   2.599   9.569 -0.2925  0.2662  0.2214
   81SAPS   H8X 7581   2.445   2.643   9.553 -0.8087 -1.2584 -0.7652
   81SAPS   H8Y 7582   2.548   2.491   9.547  1.2733  0.2848  0.2007
   81SAPS   C39 7583   2.649   2.670   9.491  0.2497  0.1115  0.0909
   81SAPS   H9X 7584   2.729   2.687   9.566 -1.3961 -1.0307  2.1545
   81SAPS   H9Y 7585   2.625   2.774   9.461  0.8182  0.2483  0.1070
   81SAPS  C310 7586   2.705   2.580   9.372  0.0851  0.1569 -0.9212
   81SAPS  H10X 7587   2.633   2.498   9.354 -0.1798  0.7088 -2.4472
   81SAPS  H10Y 7588   2.802   2.543   9.411 -0.1712  0.4114 -0.0406
   81SAPS  C311 7589   2.738   2.651   9.243  0.1381 -0.4395  1.0346
   81SAPS  H11X 7590   2.792   2.571   9.187  0.6431 -0.2749  1.2831
   81SAPS  H11Y 7591   2.817   2.729   9.252 -0.6635  0.3796  1.0542
   81SAPS  C312 7592   2.618   2.709   9.166  0.1191  0.2647  0.6141
   81SAPS  H12X 7593   2.660   2.776   9.088 -0.6962 -0.5064 -0.5104
   81SAPS  H12Y 7594   2.555   2.781   9.223  0.6434  1.0886  0.1725
   81SAPS  C313 7595   2.525   2.609   9.098  0.6190 -0.4380  0.2623
   81SAPS  H13X 7596   2.470   2.565   9.184  1.8535  1.6203  2.1600
   81SAPS  H13Y 7597   2.589   2.526   9.059 -1.7627 -1.0962 -2.4611
   81SAPS  C314 7598   2.446   2.661   8.981  0.0290  0.1942  0.4416
   81SAPS  H14X 7599   2.393   2.757   9.001 -2.5843 -1.1092  0.0182
   81SAPS  H14Y 7600   2.355   2.600   8.961 -0.4893  1.2438 -0.4495
   81SAPS  C315 7601   2.527   2.672   8.851  0.3242  0.6050  0.0953
   81SAPS  H15X 7602   2.554   2.565   8.837 -0.8206  0.2937  0.2337
   81SAPS  H15Y 7603   2.625   2.723   8.860 -0.6451  2.8890 -1.6871
   81SAPS  C316 7604   2.449   2.722   8.732 -0.3101  0.9121 -0.3890
   81SAPS  H16X 7605   2.514   2.734   8.642  0.5202  0.0597  0.0837
   81SAPS  H16Y 7606   2.407   2.824   8.746  1.7948  2.0538 -2.1616
   81SAPS  C317 7607   2.346   2.624   8.670  1.0855 -0.3089  0.1167
   81SAPS  H17X 7608   2.268   2.617   8.749 -0.9128  0.1385 -1.7437
   81SAPS  H17Y 7609   2.380   2.519   8.664  1.1603 -0.3152  0.6134
   81SAPS  C318 7610   2.268   2.669   8.545 -0.4579  0.1259  0.3353
   81SAPS  H18X 7611   2.205   2.589   8.500  1.5710 -0.7709 -0.9810
   81SAPS  H18Y 7612   2.332   2.697   8.459 -2.5150  0.5995 -1.0827
   81SAPS  H18Z 7613   2.196   2.745   8.583 -2.7733 -1.1725 -1.2552
   82SAPS     N 7614   1.400   1.808  10.932  0.3599  0.5416 -0.2560
   82SAPS   HN1 7615   1.312   1.835  10.884  0.2555  0.1176 -0.3063
   82SAPS   HN2 7616   1.482   1.825  10.871  0.8580  1.7536  0.7310
   82SAPS   HN3 7617   1.393   1.706  10.952  1.7013  0.4107 -0.4408
   82SAPS   C12 7618   1.412   1.885  11.051 -0.6114 -0.0239  0.6368
   82SAPS  H12A 7619   1.334   1.855  11.120 -0.7376 -2.5318 -0.5645
   82SAPS   C13 7620   1.554   1.884  11.128 -0.1272  0.3735 -0.0564
   82SAPS  O13A 7621   1.639   1.797  11.096  0.2070  0.1628 -0.2600
   82SAPS  O13B 7622   1.561   1.956  11.234 -0.5073  0.2516 -0.1062
   82SAPS   C11 7623   1.378   2.034  11.012 -0.1682 -0.3554  0.4386
   82SAPS  H11A 7624   1.374   2.087  11.109 -2.0991 -1.4637  1.0070
   82SAPS  H11B 7625   1.276   2.037  10.968 -0.1172  0.1854  0.3619
   82SAPS     P 7626   1.432   2.200  10.828  0.4232  0.1100 -0.1721
   82SAPS   O13 7627   1.354   2.303  10.905 -0.0962 -0.1479 -0.4774
   82SAPS   O14 7628   1.548   2.253  10.749  0.2372 -0.2211 -0.2509
   82SAPS   O12 7629   1.481   2.084  10.927  0.4963  0.2357  0.2001
   82SAPS   O11 7630   1.339   2.135  10.721 -0.3959 -0.8417  0.0695
   82SAPS    C1 7631   1.380   2.023  10.641  0.0348  0.1473  0.0737
   82SAPS    HA 7632   1.475   1.976  10.676  0.5542  1.8048  0.9066
   82SAPS    HB 7633   1.301   1.945  10.640 -1.4166  1.6257 -0.9571
   82SAPS    C2 7634   1.414   2.084  10.504  0.3874 -0.0169  0.2347
   82SAPS    HS 7635   1.500   2.149  10.530 -0.3876  1.0716  0.0887
   82SAPS   O21 7636   1.301   2.163  10.455 -0.1494  0.0399 -0.3277
   82SAPS   C21 7637   1.327   2.269  10.378 -0.4243 -0.2477 -0.2876
   82SAPS   O22 7638   1.437   2.314  10.361 -0.5448 -0.2119  0.0900
   82SAPS   C22 7639   1.192   2.317  10.319 -0.1379 -0.0627  0.1413
   82SAPS   H2R 7640   1.131   2.224  10.318  1.2546 -1.0125  1.0391
   82SAPS   H2S 7641   1.146   2.381  10.397 -2.3740 -2.1392  0.6060
   82SAPS    C3 7642   1.466   1.989  10.396 -0.4557 -0.3739  0.6501
   82SAPS    HX 7643   1.387   1.919  10.360  0.0333 -1.8267  2.3396
   82SAPS    HY 7644   1.544   1.921  10.436  0.5967 -1.0238 -2.3336
   82SAPS   O31 7645   1.500   2.068  10.281  0.5579  0.3797 -0.3553
   82SAPS   C31 7646   1.634   2.077  10.266  0.2543  0.3010 -0.4115
   82SAPS   O32 7647   1.718   2.031  10.340 -0.1139  0.1131  0.8894
   82SAPS   C32 7648   1.668   2.141  10.132  0.3334  0.1861 -0.2741
   82SAPS   H2X 7649   1.774   2.173  10.143  0.3899  0.1908 -0.8489
   82SAPS   H2Y 7650   1.594   2.222  10.114  2.0105  1.7682 -0.2095
   82SAPS   C23 7651   1.220   2.370  10.174 -0.0444 -0.1527  0.2034
   82SAPS   H3R 7652   1.289   2.457  10.177 -0.1013 -0.1350  1.1864
   82SAPS   H3S 7653   1.121   2.411  10.145  1.1335  1.0850 -2.2337
   82SAPS   C24 7654   1.280   2.275  10.075  0.1132  0.2688 -0.2322
   82SAPS   H4R 7655   1.385   2.246  10.100 -0.1719 -0.0227  0.6310
   82SAPS   H4S 7656   1.293   2.324   9.976  0.6429 -2.1335 -1.3969
   82SAPS   C25 7657   1.193   2.153  10.061  0.4535  0.1634 -0.1800
   82SAPS   H5R 7658   1.169   2.101  10.155 -0.3460 -0.0985 -0.5262
   82SAPS   C26 7659   1.128   2.102   9.957  0.1214  0.1888  0.7233
   82SAPS   H6R 7660   1.086   2.001   9.971  0.6417  0.1976  2.3996
   82SAPS   C27 7661   1.126   2.153   9.816  0.3057 -1.1187 -0.3197
   82SAPS   H7R 7662   1.117   2.264   9.812 -0.7023 -1.0681  2.1960
   82SAPS   H7S 7663   1.034   2.127   9.760  0.7651  0.0031 -1.6159
   82SAPS   C28 7664   1.251   2.120   9.740  0.5310  0.2742 -0.0336
   82SAPS   H8R 7665   1.332   2.074   9.796  0.0598  2.7063  2.7575
   82SAPS   C29 7666   1.269   2.140   9.611  0.0985 -0.1007 -0.0366
   82SAPS   H9R 7667   1.372   2.142   9.574 -0.0532 -1.5545 -0.5654
   82SAPS  C210 7668   1.172   2.205   9.517 -0.1366 -0.8742 -0.7326
   82SAPS  H10R 7669   1.094   2.264   9.571  0.4077 -0.4773 -0.3751
   82SAPS  H10S 7670   1.122   2.117   9.473  0.5197 -0.8808 -1.4697
   82SAPS  C211 7671   1.227   2.277   9.396  0.3718 -0.2935  0.3599
   82SAPS  H11R 7672   1.220   2.387   9.406 -2.8063 -0.2418 -1.5789
   82SAPS  C212 7673   1.278   2.218   9.281  0.0769 -0.4577 -0.4577
   82SAPS  H12R 7674   1.316   2.283   9.200  0.4164 -0.4323 -0.2799
   82SAPS  C213 7675   1.287   2.067   9.265  0.1208  1.1725  0.6792
   82SAPS  H13R 7676   1.204   2.027   9.203  1.1984 -1.4162  0.8367
   82SAPS  H13S 7677   1.283   2.013   9.362 -2.0412 -1.6779 -0.9157
   82SAPS  C214 7678   1.419   2.034   9.193 -0.1849  0.9918 -0.0664
   82SAPS  H14R 7679   1.500   2.094   9.237 -0.0172  0.6957  0.0288
   82SAPS  C215 7680   1.455   1.950   9.095 -0.1770  0.0437 -1.1038
   82SAPS  H15R 7681   1.561   1.961   9.065 -0.0420  2.8529  0.2061
   82SAPS  C216 7682   1.366   1.859   9.015  0.1791 -0.2511  0.1114
   82SAPS  H16R 7683   1.263   1.854   9.054  0.6616 -0.3921  1.3686
   82SAPS  H16S 7684   1.395   1.752   9.027 -0.2634 -0.0953  2.6997
   82SAPS  C217 7685   1.365   1.909   8.870 -1.2573 -0.2871 -0.3909
   82SAPS  H17R 7686   1.293   1.852   8.808 -0.7929  0.7834 -1.9413
   82SAPS  H17S 7687   1.461   1.907   8.815 -2.7033  0.1802 -3.0364
   82SAPS  C218 7688   1.301   2.049   8.847  0.0222  0.5808 -0.6111
   82SAPS  H18R 7689   1.382   2.122   8.867  0.1313 -0.0065  1.1196
   82SAPS  H18S 7690   1.220   2.062   8.922 -0.7652 -1.0278 -1.1436
   82SAPS  C219 7691   1.263   2.076   8.698 -0.3092  0.1184 -0.3859
   82SAPS  H19R 7692   1.181   2.006   8.671 -0.9024  1.0182 -0.9435
   82SAPS  H19S 7693   1.359   2.059   8.645  0.5252 -0.5370  1.2825
   82SAPS  C220 7694   1.216   2.224   8.685  0.1947  0.1626  0.3574
   82SAPS  H20R 7695   1.125   2.226   8.748 -1.2812  0.4288 -1.7362
   82SAPS  H20S 7696   1.192   2.248   8.580  1.2070 -3.2157 -0.7101
   82SAPS  H20T 7697   1.300   2.290   8.716  1.9858 -1.0486 -1.7351
   82SAPS   C33 7698   1.667   2.037  10.022 -0.9206 -0.5574  0.7621
   82SAPS   H3X 7699   1.564   1.998  10.005 -0.3142 -2.0065  0.4177
   82SAPS   H3Y 7700   1.735   1.952  10.043 -1.5976 -1.1696  0.5176
   82SAPS   C34 7701   1.719   2.103   9.893 -0.2345  0.0768 -0.4116
   82SAPS   H4X 7702   1.824   2.136   9.911 -0.2737  1.6150 -2.8436
   82SAPS   H4Y 7703   1.662   2.196   9.873  1.7211  0.6442 -3.5949
   82SAPS   C35 7704   1.694   2.018   9.766  0.4928 -0.3157 -0.5646
   82SAPS   H5X 7705   1.585   2.017   9.745  0.6497  1.4480 -1.5724
   82SAPS   H5Y 7706   1.719   1.910   9.774 -0.0853 -0.3535  0.9970
   82SAPS   C36 7707   1.767   2.084   9.647  0.6091 -0.0721 -0.0826
   82SAPS   H6X 7708   1.873   2.104   9.671  0.2269  1.7021  0.1747
   82SAPS   H6Y 7709   1.715   2.181   9.631  0.3345 -0.1102  0.5398
   82SAPS   C37 7710   1.758   2.009   9.512 -0.5067 -0.3258 -0.5031
   82SAPS   H7X 7711   1.651   1.986   9.494 -1.4789  1.8250  2.1859
   82SAPS   H7Y 7712   1.815   1.915   9.532 -0.5964  0.1788  2.3172
   82SAPS   C38 7713   1.819   2.081   9.387  0.8601 -0.0945  0.4594
   82SAPS   H8X 7714   1.915   2.131   9.413  0.6133  1.4241 -1.4489
   82SAPS   H8Y 7715   1.747   2.156   9.347  1.6565  0.8838  0.8333
   82SAPS   C39 7716   1.830   1.993   9.265  0.0753  0.1169 -0.0258
   82SAPS   H9X 7717   1.733   1.945   9.243  0.7922 -1.4011  0.0521
   82SAPS   H9Y 7718   1.914   1.921   9.276  0.0998  0.1597  0.0664
   82SAPS  C310 7719   1.848   2.077   9.131  0.2308 -0.3647 -0.1758
   82SAPS  H10X 7720   1.932   2.150   9.131  0.3097 -0.4552 -0.8020
   82SAPS  H10Y 7721   1.753   2.132   9.120  0.5705  0.9331  2.7926
   82SAPS  C311 7722   1.880   1.984   9.006 -0.4523 -0.9229 -0.2238
   82SAPS  H11X 7723   1.805   1.903   9.011 -0.2183 -1.1517 -0.3806
   82SAPS  H11Y 7724   1.979   1.943   9.036  0.4652  0.8541 -0.7485
   82SAPS  C312 7725   1.875   2.045   8.872 -0.5813  0.1010  0.6037
   82SAPS  H12X 7726   1.917   1.979   8.793  1.8725 -0.2675  2.1361
   82SAPS  H12Y 7727   1.937   2.137   8.863 -0.7755  0.2149  0.4448
   82SAPS  C313 7728   1.738   2.071   8.819 -0.0178  0.4781  0.4978
   82SAPS  H13X 7729   1.677   2.133   8.889  1.0255  4.0485 -1.6312
   82SAPS  H13Y 7730   1.683   1.976   8.808 -0.4405  1.0156 -2.1742
   82SAPS  C314 7731   1.752   2.153   8.686 -0.2691 -0.6207  0.6750
   82SAPS  H14X 7732   1.794   2.092   8.603  0.4472 -0.1812  0.7035
   82SAPS  H14Y 7733   1.830   2.231   8.700  1.8249 -2.5019 -0.2352
   82SAPS  C315 7734   1.622   2.217   8.638  0.2072 -0.7258  0.3575
   82SAPS  H15X 7735   1.555   2.246   8.722  0.9349  2.2940 -0.0483
   82SAPS  H15Y 7736   1.564   2.143   8.580  2.3067 -0.7993 -1.7050
   82SAPS  C316 7737   1.643   2.337   8.539 -0.1389  0.6490 -0.4618
   82SAPS  H16X 7738   1.714   2.309   8.458  1.2384 -1.4074  1.4032
   82SAPS  H16Y 7739   1.691   2.415   8.602 -1.0451 -1.6439  3.1950
   82SAPS  C317 7740   1.513   2.386   8.474  0.1952  0.2000  0.3249
   82SAPS  H17X 7741   1.454   2.405   8.566 -1.2615 -1.9441 -0.1308
   82SAPS  H17Y 7742   1.454   2.304   8.427 -1.3405  1.6377 -0.3291
   82SAPS  C318 7743   1.530   2.504   8.385  0.2279  0.1899  0.3823
   82SAPS  H18X 7744   1.437   2.522   8.326 -0.5547 -1.2654  1.1418
   82SAPS  H18Y 7745   1.601   2.493   8.300 -0.1723  1.4860 -0.1376
   82SAPS  H18Z 7746   1.551   2.587   8.455  2.1014  0.3699 -0.3850
   83SAPS     N 7747   3.056   2.662  11.135  0.3584  0.5156 -0.6182
   83SAPS   HN1 7748   3.088   2.700  11.044 -0.5402  4.3046  0.5352
   83SAPS   HN2 7749   3.127   2.595  11.172 -0.0981  0.1865 -0.3303
   83SAPS   HN3 7750   2.961   2.620  11.135  1.6472 -2.7057  2.2712
   83SAPS   C12 7751   3.039   2.783  11.220  0.3076  0.7120 -1.0379
   83SAPS  H12A 7752   2.978   2.758  11.305  0.1747  1.0225 -1.0437
   83SAPS   C13 7753   3.184   2.828  11.262  0.3163 -0.0990 -0.2877
   83SAPS  O13A 7754   3.288   2.780  11.209 -0.0988 -0.0156 -0.0055
   83SAPS  O13B 7755   3.184   2.927  11.334  0.1551  0.6652  0.1149
   83SAPS   C11 7756   2.966   2.890  11.129 -0.4616  1.1954 -0.2680
   83SAPS  H11A 7757   3.034   2.914  11.044 -0.0258 -2.3311 -0.9918
   83SAPS  H11B 7758   2.950   2.984  11.186  2.4567  0.9164  1.1115
   83SAPS     P 7759   2.796   2.849  10.934 -0.4754  0.0787 -0.1025
   83SAPS   O13 7760   2.868   2.759  10.844  0.4936 -0.0808  0.3413
   83SAPS   O14 7761   2.651   2.844  10.949 -0.1400  0.0701 -0.1229
   83SAPS   O12 7762   2.846   2.825  11.079 -0.1346  0.2968  1.0013
   83SAPS   O11 7763   2.819   3.001  10.896 -0.1123 -0.3096 -0.1985
   83SAPS    C1 7764   2.935   3.059  10.834 -0.6709 -0.6606 -0.3500
   83SAPS    HA 7765   2.986   3.135  10.895  1.1303  0.2938 -2.9499
   83SAPS    HB 7766   3.010   2.981  10.807  1.8437  1.1070  1.2572
   83SAPS    C2 7767   2.899   3.135  10.700  0.0099  0.2717 -0.0194
   83SAPS    HS 7768   2.813   3.198  10.731  0.4847  0.5273  0.7948
   83SAPS   O21 7769   2.874   3.025  10.612  0.5669 -0.2871 -0.2719
   83SAPS   C21 7770   2.763   3.039  10.539  0.3093 -0.2072  0.7857
   83SAPS   O22 7771   2.671   3.116  10.560  0.4898 -0.0919  0.3561
   83SAPS   C22 7772   2.778   2.955  10.410  0.0571 -0.5817  0.6600
   83SAPS   H2R 7773   2.807   3.024  10.328 -0.3939 -0.9211  0.2072
   83SAPS   H2S 7774   2.835   2.863  10.437  1.0675 -0.0494  0.3851
   83SAPS    C3 7775   3.017   3.225  10.647  0.4117 -0.1048 -0.0821
   83SAPS    HX 7776   3.109   3.163  10.641  1.1010  0.6221  2.3633
   83SAPS    HY 7777   3.049   3.294  10.728  1.1007  0.1905 -0.6000
   83SAPS   O31 7778   2.987   3.284  10.515  0.5675 -0.2009  0.3638
   83SAPS   C31 7779   2.900   3.387  10.518 -0.0676 -0.8558  0.0530
   83SAPS   O32 7780   2.855   3.437  10.624 -0.3583 -0.0510  0.2824
   83SAPS   C32 7781   2.877   3.437  10.377 -0.5151 -0.2011 -0.1124
   83SAPS   H2X 7782   2.952   3.394  10.307  0.6752 -2.7816  2.6400
   83SAPS   H2Y 7783   2.882   3.548  10.377  1.4419 -0.2667 -1.9425
   83SAPS   C23 7784   2.651   2.895  10.340 -0.3197 -0.0216 -0.6209
   83SAPS   H3R 7785   2.594   2.839  10.418  2.1372  0.3851  1.5169
   83SAPS   H3S 7786   2.675   2.817  10.265 -0.8468  1.0789 -1.9618
   83SAPS   C24 7787   2.554   3.004  10.267 -0.2966 -0.3026  0.2012
   83SAPS   H4R 7788   2.622   3.056  10.196 -0.9613  0.8698  0.4123
   83SAPS   H4S 7789   2.514   3.066  10.350 -2.1780  0.8933 -1.5453
   83SAPS   C25 7790   2.438   2.935  10.199  0.1297  0.5066  0.2143
   83SAPS   H5R 7791   2.359   2.894  10.264  1.3517 -0.8839  0.8686
   83SAPS   C26 7792   2.424   2.914  10.067  0.1979  1.1400  0.1174
   83SAPS   H6R 7793   2.337   2.859  10.028  1.2597 -0.4072 -0.1288
   83SAPS   C27 7794   2.510   2.954   9.958  0.1515 -0.5608 -0.0039
   83SAPS   H7R 7795   2.493   2.878   9.879  0.0853  1.5543 -2.0779
   83SAPS   H7S 7796   2.615   2.939   9.991  0.8444  0.0253 -1.8804
   83SAPS   C28 7797   2.500   3.094   9.910 -0.0336 -0.1959  0.5828
   83SAPS   H8R 7798   2.472   3.172   9.982  0.1071 -1.0230  1.5516
   83SAPS   C29 7799   2.514   3.138   9.786  1.2429  0.2908 -0.2523
   83SAPS   H9R 7800   2.498   3.244   9.761  1.1831  0.1313 -0.8864
   83SAPS  C210 7801   2.560   3.059   9.672 -0.2695 -0.0316 -0.0936
   83SAPS  H10R 7802   2.611   2.969   9.711 -1.5169 -0.7007  0.0130
   83SAPS  H10S 7803   2.645   3.107   9.618  1.2386 -1.9362  0.5265
   83SAPS  C211 7804   2.454   3.023   9.575  0.3544 -0.3567 -0.3119
   83SAPS  H11R 7805   2.366   2.966   9.608  1.5094 -2.3307 -0.5981
   83SAPS  C212 7806   2.449   3.049   9.447 -0.8317 -0.0103  0.0605
   83SAPS  H12R 7807   2.363   3.008   9.392 -0.4355  0.2997 -0.8177
   83SAPS  C213 7808   2.557   3.121   9.372  0.0880 -0.1281  0.2752
   83SAPS  H13R 7809   2.661   3.127   9.408  0.4296  2.0483 -0.9919
   83SAPS  H13S 7810   2.524   3.226   9.357  1.5091  0.2729 -0.0653
   83SAPS  C214 7811   2.575   3.072   9.229 -0.1223 -0.7767 -0.2561
   83SAPS  H14R 7812   2.642   2.984   9.229  1.6732  0.5516  0.2014
   83SAPS  C215 7813   2.517   3.118   9.114 -0.2241 -0.3777 -0.9066
   83SAPS  H15R 7814   2.540   3.071   9.018 -0.4196  0.1820 -1.2284
   83SAPS  C216 7815   2.412   3.226   9.106  0.3596  0.1585 -0.7456
   83SAPS  H16R 7816   2.456   3.325   9.081  0.0973  0.5779  0.4227
   83SAPS  H16S 7817   2.360   3.233   9.204 -1.9128 -0.5127 -1.8748
   83SAPS  C217 7818   2.322   3.180   8.986 -0.0644  0.3238 -0.2723
   83SAPS  H17R 7819   2.296   3.072   8.992 -0.2921  0.3074 -1.4545
   83SAPS  H17S 7820   2.371   3.184   8.887  0.6840  0.4148  0.0962
   83SAPS  C218 7821   2.186   3.257   8.979  0.0196 -0.0316  0.2819
   83SAPS  H18R 7822   2.159   3.287   9.082  0.9100 -1.1476  0.8470
   83SAPS  H18S 7823   2.104   3.187   8.950 -0.9351  1.5837 -1.0356
   83SAPS  C219 7824   2.180   3.373   8.878  0.6487 -1.1497 -0.5797
   83SAPS  H19R 7825   2.205   3.324   8.781 -1.1290 -0.9019 -1.1892
   83SAPS  H19S 7826   2.258   3.449   8.899  1.6281 -2.4516  0.6061
   83SAPS  C220 7827   2.047   3.447   8.865 -0.3880 -0.1333 -0.1517
   83SAPS  H20R 7828   2.065   3.544   8.812  0.4060  0.8878  1.9456
   83SAPS  H20S 7829   2.017   3.471   8.969  1.0427  1.1080  0.0023
   83SAPS  H20T 7830   1.965   3.387   8.821 -1.4814  0.8711  0.4911
   83SAPS   C33 7831   2.740   3.388  10.326 -0.4709 -0.1914 -0.6326
   83SAPS   H3X 7832   2.657   3.421  10.392  1.1187 -0.1199  1.3801
   83SAPS   H3Y 7833   2.736   3.277  10.322 -0.8690 -0.1644 -0.9567
   83SAPS   C34 7834   2.710   3.422  10.183 -0.7849  0.5853  0.3572
   83SAPS   H4X 7835   2.714   3.531  10.166 -0.3281  0.4964 -0.1559
   83SAPS   H4Y 7836   2.613   3.375  10.155  0.3361 -1.1295 -0.8249
   83SAPS   C35 7837   2.808   3.362  10.076  0.1074  0.0778  0.2136
   83SAPS   H5X 7838   2.799   3.252  10.081  2.2911 -0.2023 -1.3143
   83SAPS   H5Y 7839   2.914   3.394  10.082 -0.0959  0.7228  0.3980
   83SAPS   C36 7840   2.755   3.430   9.951  0.0560  0.6199  0.3601
   83SAPS   H6X 7841   2.786   3.537   9.947  2.1379  0.0661  1.0187
   83SAPS   H6Y 7842   2.644   3.433   9.949 -0.0034 -1.3141  0.0602
   83SAPS   C37 7843   2.805   3.365   9.828 -0.2330 -0.2355 -0.2809
   83SAPS   H7X 7844   2.785   3.255   9.827 -1.3257 -0.0304 -1.5146
   83SAPS   H7Y 7845   2.915   3.382   9.825  0.2919 -3.4199 -0.8459
   83SAPS   C38 7846   2.745   3.429   9.701  0.0784  0.3908  0.1283
   83SAPS   H8X 7847   2.760   3.538   9.710  1.2187  0.4628 -2.1914
   83SAPS   H8Y 7848   2.635   3.414   9.704 -0.0298  0.6937 -1.9566
   83SAPS   C39 7849   2.799   3.361   9.575  0.0409  1.2218  0.8391
   83SAPS   H9X 7850   2.784   3.251   9.580  3.7590  0.7426  3.8301
   83SAPS   H9Y 7851   2.908   3.377   9.570  0.4079 -1.4061 -0.3557
   83SAPS  C310 7852   2.737   3.428   9.445  0.7614 -0.0559 -0.4988
   83SAPS  H10X 7853   2.731   3.539   9.456  1.3727  0.0371 -1.1466
   83SAPS  H10Y 7854   2.632   3.390   9.447  0.4815  0.7402  1.8509
   83SAPS  C311 7855   2.808   3.415   9.312  0.3299  0.7890  0.2290
   83SAPS  H11X 7856   2.796   3.310   9.276  1.4346  1.0522 -0.9518
   83SAPS  H11Y 7857   2.914   3.445   9.314  0.2495  1.6066 -3.7183
   83SAPS  C312 7858   2.734   3.490   9.203  0.1207 -0.2595  0.2371
   83SAPS  H12X 7859   2.739   3.600   9.216  1.4344 -0.2502 -0.2679
   83SAPS  H12Y 7860   2.631   3.454   9.223  0.3050 -0.5299  0.7231
   83SAPS  C313 7861   2.764   3.446   9.061  0.4079 -0.3203 -0.0274
   83SAPS  H13X 7862   2.739   3.338   9.055 -1.0885  0.0614 -0.8292
   83SAPS  H13Y 7863   2.874   3.444   9.049  0.4090  2.0031 -0.4798
   83SAPS  C314 7864   2.691   3.519   8.950  0.5775 -0.3774  0.7912
   83SAPS  H14X 7865   2.721   3.626   8.946 -1.9054  0.3790  1.7390
   83SAPS  H14Y 7866   2.583   3.510   8.975  0.3331 -0.1065 -0.1372
   83SAPS  C315 7867   2.718   3.449   8.816 -0.0033 -0.0156 -0.6228
   83SAPS  H15X 7868   2.687   3.342   8.818 -1.3444  0.3699  0.0541
   83SAPS  H15Y 7869   2.828   3.445   8.803  0.2004 -0.2229  1.0454
   83SAPS  C316 7870   2.668   3.525   8.694 -0.2629  0.8453 -0.2439
   83SAPS  H16X 7871   2.752   3.518   8.621 -0.2003 -2.3814  0.0525
   83SAPS  H16Y 7872   2.650   3.628   8.730  0.4974  1.2471 -0.9683
   83SAPS  C317 7873   2.541   3.452   8.640  0.2514 -0.5303  0.8429
   83SAPS  H17X 7874   2.467   3.482   8.718  0.7029  1.4716  0.5281
   83SAPS  H17Y 7875   2.555   3.342   8.638  1.1048 -0.3951 -0.5589
   83SAPS  C318 7876   2.493   3.508   8.510  0.1116  0.3383  1.5379
   83SAPS  H18X 7877   2.484   3.619   8.516 -0.3421  0.3063  1.4120
   83SAPS  H18Y 7878   2.393   3.476   8.475 -0.8164  3.3754  1.3017
   83SAPS  H18Z 7879   2.554   3.495   8.419 -3.3594  3.3042 -1.3349
   84SAPS     N 7880   4.784   2.691  10.922  0.4212  0.2882  0.2301
   84SAPS   HN1 7881   4.825   2.738  11.005  0.6905 -0.5371  0.5702
   84SAPS   HN2 7882   4.832   2.603  10.892 -0.1933  0.6463 -1.8217
   84SAPS   HN3 7883   4.783   2.753  10.839 -1.3859  0.0878  0.0988
   84SAPS   C12 7884   4.656   2.650  10.955  0.3709 -0.6464  0.3032
   84SAPS  H12A 7885   4.614   2.604  10.866 -0.2655  1.0061 -0.2787
   84SAPS   C13 7886   4.633   2.535  11.063 -0.5312 -0.1653 -0.7243
   84SAPS  O13A 7887   4.726   2.493  11.135 -0.1464 -0.6085  0.7833
   84SAPS  O13B 7888   4.515   2.496  11.077  0.6285  0.5082  0.2856
   84SAPS   C11 7889   4.575   2.773  10.996  0.0397  0.3744 -0.3109
   84SAPS  H11A 7890   4.618   2.810  11.092 -0.6196  0.7912 -0.1744
   84SAPS  H11B 7891   4.474   2.733  11.019 -1.0093  1.9020 -2.1158
   84SAPS     P 7892   4.586   3.020  10.923 -0.0576  0.2213 -0.2072
   84SAPS   O13 7893   4.549   3.047  11.067 -0.2945  0.3412 -0.8933
   84SAPS   O14 7894   4.725   3.055  10.891 -0.4571 -0.6064  0.3990
   84SAPS   O12 7895   4.568   2.873  10.891  0.6347 -0.3976 -0.1289
   84SAPS   O11 7896   4.489   3.104  10.832  0.1634 -0.0059  0.4469
   84SAPS    C1 7897   4.382   3.051  10.765 -0.0434 -0.4518 -0.0920
   84SAPS    HA 7898   4.327   2.980  10.830  2.3060  0.4690  3.0233
   84SAPS    HB 7899   4.316   3.138  10.744  0.0122 -0.3087  0.3221
   84SAPS    C2 7900   4.423   2.979  10.629  0.7128 -0.4751  0.3600
   84SAPS    HS 7901   4.502   2.905  10.657  1.2496 -0.8724 -2.1252
   84SAPS   O21 7902   4.474   3.087  10.549  0.3955 -0.0895  0.5555
   84SAPS   C21 7903   4.584   3.058  10.476 -0.1597 -1.0517  0.0278
   84SAPS   O22 7904   4.644   2.951  10.478 -0.1902 -0.2454  0.9268
   84SAPS   C22 7905   4.624   3.171  10.380  1.0085 -0.1998  0.4203
   84SAPS   H2R 7906   4.616   3.121  10.281  0.0790 -1.5128  1.1497
   84SAPS   H2S 7907   4.552   3.254  10.396  2.2215  0.6009  1.9035
   84SAPS    C3 7908   4.305   2.899  10.563 -0.0311  0.3714 -0.0942
   84SAPS    HX 7909   4.237   2.982  10.534 -0.9707  0.3578  1.9981
   84SAPS    HY 7910   4.241   2.842  10.633 -0.3121  3.0387  1.9030
   84SAPS   O31 7911   4.357   2.828  10.450 -0.0177 -0.4161  0.7495
   84SAPS   C31 7912   4.430   2.722  10.469  0.2980  0.2466 -0.4191
   84SAPS   O32 7913   4.439   2.658  10.577  0.1359 -0.3183 -0.0416
   84SAPS   C32 7914   4.509   2.675  10.346  0.3376  0.3708  0.5009
   84SAPS   H2X 7915   4.471   2.575  10.314  1.2431 -0.2089  1.2313
   84SAPS   H2Y 7916   4.608   2.644  10.386  0.1103  0.6930  1.3265
   84SAPS   C23 7917   4.758   3.234  10.412 -0.2999 -0.0981 -0.4287
   84SAPS   H3R 7918   4.834   3.161  10.379 -1.0989  0.2640 -3.2155
   84SAPS   H3S 7919   4.767   3.250  10.522 -1.9809  0.7948 -0.3975
   84SAPS   C24 7920   4.768   3.372  10.351 -0.2093  0.3903  0.0399
   84SAPS   H4R 7921   4.857   3.415  10.402  0.0985 -0.6449  0.3971
   84SAPS   H4S 7922   4.678   3.433  10.371 -1.0115 -1.3908  2.1049
   84SAPS   C25 7923   4.785   3.352  10.202 -0.3479 -0.5326  0.3532
   84SAPS   H5R 7924   4.877   3.295  10.181  1.1834  1.0054  2.5633
   84SAPS   C26 7925   4.713   3.400  10.099  0.5076 -0.2960  0.5034
   84SAPS   H6R 7926   4.746   3.367   9.999  0.0623  0.5883  0.0576
   84SAPS   C27 7927   4.591   3.486  10.100 -0.2327  0.9102  0.1452
   84SAPS   H7R 7928   4.576   3.525  10.203  1.8676  0.0257  0.8135
   84SAPS   H7S 7929   4.502   3.429  10.065  0.8105  0.0175 -1.0757
   84SAPS   C28 7930   4.593   3.602   9.999  0.4706  0.6336  0.0625
   84SAPS   H8R 7931   4.693   3.620   9.959  0.9804 -1.7003  0.1988
   84SAPS   C29 7932   4.493   3.674   9.953 -0.0671  0.0191 -0.2646
   84SAPS   H9R 7933   4.522   3.763   9.896  2.8669 -1.2592 -0.8384
   84SAPS  C210 7934   4.348   3.661   9.984 -0.0915 -0.2249 -1.1050
   84SAPS  H10R 7935   4.325   3.581  10.057  0.2472  1.0004  0.3738
   84SAPS  H10S 7936   4.283   3.643   9.896  0.8198 -2.1137 -1.4255
   84SAPS  C211 7937   4.297   3.792  10.047  0.6087  0.6632  0.2881
   84SAPS  H11R 7938   4.361   3.840  10.123  2.3431  1.6416 -1.7293
   84SAPS  C212 7939   4.182   3.865  10.017  0.3287  0.5286 -0.2271
   84SAPS  H12R 7940   4.168   3.961  10.068 -0.3589  0.0987  0.4130
   84SAPS  C213 7941   4.081   3.834   9.912 -0.4454 -0.2075 -0.3830
   84SAPS  H13R 7942   3.981   3.811   9.954 -0.6559 -1.2967 -1.4434
   84SAPS  H13S 7943   4.106   3.748   9.846 -0.7517  1.0994 -2.2144
   84SAPS  C214 7944   4.062   3.944   9.806 -0.0548  0.0137 -0.0776
   84SAPS  H14R 7945   3.970   4.000   9.831  0.8554  0.5344  2.2925
   84SAPS  C215 7946   4.141   3.982   9.704  0.2628 -0.4857 -0.1232
   84SAPS  H15R 7947   4.111   4.067   9.642  1.0141  0.7212  1.1357
   84SAPS  C216 7948   4.273   3.915   9.673 -0.1439  0.1556  0.4435
   84SAPS  H16R 7949   4.325   3.880   9.764  0.7987 -0.3175 -0.2577
   84SAPS  H16S 7950   4.346   3.992   9.641  0.0669  0.3987  1.5014
   84SAPS  C217 7951   4.269   3.805   9.573  0.4653 -0.2647  0.3615
   84SAPS  H17R 7952   4.260   3.835   9.467 -0.9691 -2.5797 -0.2118
   84SAPS  H17S 7953   4.180   3.742   9.594 -0.3137  0.7566  0.1628
   84SAPS  C218 7954   4.403   3.726   9.575 -0.6077  0.6419 -0.6474
   84SAPS  H18R 7955   4.402   3.690   9.680  2.0018  1.4089 -0.3310
   84SAPS  H18S 7956   4.491   3.791   9.553  1.6456 -1.5694  1.4894
   84SAPS  C219 7957   4.390   3.597   9.489  0.2389 -0.2547  0.4462
   84SAPS  H19R 7958   4.487   3.548   9.468 -0.1268 -0.7237 -0.1697
   84SAPS  H19S 7959   4.342   3.623   9.392  0.6389 -1.5630 -0.1012
   84SAPS  C220 7960   4.297   3.494   9.541  0.1474 -0.3509 -0.3757
   84SAPS  H20R 7961   4.318   3.400   9.485  1.1195 -0.9073  0.8976
   84SAPS  H20S 7962   4.189   3.519   9.541 -0.0260 -1.0719 -1.4319
   84SAPS  H20T 7963   4.327   3.472   9.646  1.6604  0.2015 -0.6867
   84SAPS   C33 7964   4.515   2.771  10.226 -0.4360 -0.5413 -0.0175
   84SAPS   H3X 7965   4.593   2.739  10.153 -1.8700 -0.2917 -1.6987
   84SAPS   H3Y 7966   4.543   2.872  10.262 -0.8240 -0.7789  0.9468
   84SAPS   C34 7967   4.391   2.775  10.143  0.0839 -0.4721 -0.8204
   84SAPS   H4X 7968   4.313   2.814  10.212  1.9706  0.1032  1.0564
   84SAPS   H4Y 7969   4.368   2.673  10.106  0.3498 -0.2585 -1.5742
   84SAPS   C35 7970   4.397   2.880  10.027  0.3675  0.0108 -0.0351
   84SAPS   H5X 7971   4.304   2.856   9.970 -0.6905 -0.1594  1.7094
   84SAPS   H5Y 7972   4.483   2.865   9.958  0.1163 -0.6230 -0.2165
   84SAPS   C36 7973   4.379   3.027  10.080  0.2397 -0.1343  0.1215
   84SAPS   H6X 7974   4.439   3.057  10.169  2.1745  0.7733 -1.4269
   84SAPS   H6Y 7975   4.274   3.036  10.112 -0.1037 -2.1971 -0.3414
   84SAPS   C37 7976   4.390   3.128   9.969 -0.8646 -0.4545 -0.1199
   84SAPS   H7X 7977   4.356   3.227  10.004 -2.1505 -1.0000  0.2162
   84SAPS   H7Y 7978   4.326   3.097   9.883 -0.7249  2.9921 -1.5429
   84SAPS   C38 7979   4.532   3.144   9.910 -0.3224 -0.2838 -0.1773
   84SAPS   H8X 7980   4.558   3.041   9.878  0.3019 -0.3327  0.4627
   84SAPS   H8Y 7981   4.611   3.171   9.984 -0.8764  1.9598 -0.3667
   84SAPS   C39 7982   4.536   3.244   9.799  0.1473  0.4271  0.4732
   84SAPS   H9X 7983   4.541   3.348   9.836  0.4260  1.0479 -1.2381
   84SAPS   H9Y 7984   4.449   3.214   9.737  0.0532  0.6271  0.5077
   84SAPS  C310 7985   4.674   3.228   9.726  0.3784  0.0506 -0.4424
   84SAPS  H10X 7986   4.688   3.120   9.704  0.4584 -0.0779  0.2325
   84SAPS  H10Y 7987   4.744   3.272   9.800 -3.0365  1.2931  2.1762
   84SAPS  C311 7988   4.672   3.314   9.596 -0.6536 -0.5674 -0.0942
   84SAPS  H11X 7989   4.621   3.410   9.616  2.8999  1.4374 -0.3569
   84SAPS  H11Y 7990   4.603   3.267   9.522 -3.7030  2.0581  0.9958
   84SAPS  C312 7991   4.809   3.343   9.542 -0.4846  0.2567 -0.1999
   84SAPS  H12X 7992   4.859   3.256   9.495  1.0790  0.3060  1.3262
   84SAPS  H12Y 7993   4.873   3.368   9.630 -2.0699 -1.9565  1.6306
   84SAPS  C313 7994   4.801   3.477   9.468 -0.0295 -0.3349 -0.3556
   84SAPS  H13X 7995   4.903   3.520   9.467 -0.5233  0.8528 -1.0939
   84SAPS  H13Y 7996   4.741   3.548   9.529  0.3992 -0.5761  0.3469
   84SAPS  C314 7997   4.752   3.470   9.317 -0.5712 -0.2528  0.5018
   84SAPS  H14X 7998   4.651   3.424   9.326 -1.0836  0.8213  0.2573
   84SAPS  H14Y 7999   4.815   3.394   9.266  0.2749  1.7737 -1.5278
   84SAPS  C315 8000   4.749   3.601   9.244 -0.4960  0.3363 -0.1612
   84SAPS  H15X 8001   4.851   3.636   9.218 -0.5238  2.0837  1.9450
   84SAPS  H15Y 8002   4.713   3.676   9.318 -2.2511 -2.0132  1.4223
   84SAPS  C316 8003   4.665   3.620   9.124  1.0379 -1.1744  0.2421
   84SAPS  H16X 8004   4.669   3.731   9.111  1.5086 -1.3388 -1.0189
   84SAPS  H16Y 8005   4.559   3.600   9.149  1.5735 -1.0249  2.8727
   84SAPS  C317 8006   4.699   3.537   8.994 -0.5455  0.2935 -0.3524
   84SAPS  H17X 8007   4.761   3.456   9.038  1.6172  1.7006 -0.7454
   84SAPS  H17Y 8008   4.761   3.590   8.919  1.2982 -0.1353  0.8334
   84SAPS  C318 8009   4.587   3.468   8.916  0.0744 -0.2138  0.4714
   84SAPS  H18X 8010   4.506   3.537   8.887  0.1632 -0.8028 -1.2440
   84SAPS  H18Y 8011   4.540   3.405   8.995  0.2743 -1.1916 -0.1781
   84SAPS  H18Z 8012   4.625   3.401   8.835 -1.5146 -0.4224 -0.1136
   85SAPS     N 8013   1.912   4.523  11.070  0.5422  0.4944  0.2795
   85SAPS   HN1 8014   1.975   4.459  11.123 -0.7541 -0.8704  0.2157
   85SAPS   HN2 8015   1.857   4.477  10.995 -1.2992  1.7043  0.8322
   85SAPS   HN3 8016   1.976   4.596  11.034 -0.4062  2.7087  2.8904
   85SAPS   C12 8017   1.805   4.579  11.167  0.1541 -0.2927  0.3667
   85SAPS  H12A 8018   1.724   4.507  11.170 -1.5962  1.6332  0.8562
   85SAPS   C13 8019   1.848   4.609  11.314  0.1015  0.5283 -0.9074
   85SAPS  O13A 8020   1.974   4.612  11.352 -0.2481 -0.0450 -0.6631
   85SAPS  O13B 8021   1.761   4.665  11.390 -0.0492 -0.1767 -0.4090
   85SAPS   C11 8022   1.745   4.709  11.103 -0.1645  0.3357 -0.4851
   85SAPS  H11A 8023   1.815   4.791  11.078  0.6902 -0.3797 -0.4865
   85SAPS  H11B 8024   1.675   4.758  11.174 -3.2500 -2.0155 -1.8022
   85SAPS     P 8025   1.516   4.661  10.965  0.5536 -0.5374  0.3073
   85SAPS   O13 8026   1.454   4.556  11.048  0.1957 -0.6832  0.2300
   85SAPS   O14 8027   1.464   4.799  10.991  0.0649  0.1630 -0.2557
   85SAPS   O12 8028   1.672   4.674  10.981 -0.3480 -0.0619 -0.3390
   85SAPS   O11 8029   1.487   4.618  10.813  0.0496 -0.0486  0.3147
   85SAPS    C1 8030   1.579   4.561  10.723 -0.0532  0.0393 -0.1617
   85SAPS    HA 8031   1.654   4.497  10.774  1.0532  1.2616 -0.2312
   85SAPS    HB 8032   1.517   4.496  10.658  0.5775  1.0522 -1.7999
   85SAPS    C2 8033   1.650   4.664  10.635 -0.5532 -0.9537 -0.1395
   85SAPS    HS 8034   1.674   4.746  10.706 -0.3817  0.4416 -1.7602
   85SAPS   O21 8035   1.553   4.707  10.535 -0.2582 -0.5307  0.1519
   85SAPS   C21 8036   1.588   4.813  10.469 -0.3483 -0.0582 -0.2412
   85SAPS   O22 8037   1.683   4.883  10.498  0.0628 -0.3471 -0.1447
   85SAPS   C22 8038   1.498   4.842  10.346 -0.1862 -0.5173  0.2441
   85SAPS   H2R 8039   1.434   4.752  10.331 -2.9371  1.2724  0.8756
   85SAPS   H2S 8040   1.439   4.928  10.383  0.5323  1.0185 -2.0916
   85SAPS    C3 8041   1.778   4.607  10.573  0.6706  0.5034 -0.7292
   85SAPS    HX 8042   1.837   4.577  10.662 -0.3218 -3.1846 -1.2411
   85SAPS    HY 8043   1.838   4.683  10.517  0.2418  0.8437 -0.7276
   85SAPS   O31 8044   1.738   4.500  10.493  0.0129  0.7802 -0.1418
   85SAPS   C31 8045   1.838   4.447  10.419  0.2698 -1.2490 -0.3098
   85SAPS   O32 8046   1.948   4.493  10.406  0.1804  0.1142  0.5117
   85SAPS   C32 8047   1.783   4.326  10.342 -0.1589  0.8440 -0.2086
   85SAPS   H2X 8048   1.686   4.367  10.306 -0.3835  1.4946  1.0909
   85SAPS   H2Y 8049   1.773   4.247  10.419  2.8161  1.3513  0.7572
   85SAPS   C23 8050   1.588   4.886  10.226 -0.0897 -0.0946  0.1978
   85SAPS   H3R 8051   1.649   4.976  10.250 -3.1274  1.8772  0.8658
   85SAPS   H3S 8052   1.519   4.928  10.149 -1.0124  3.5783  2.8513
   85SAPS   C24 8053   1.671   4.767  10.166 -1.0060  0.6944  0.5834
   85SAPS   H4R 8054   1.744   4.736  10.244 -1.7023 -1.5092  0.3725
   85SAPS   H4S 8055   1.727   4.819  10.085  0.8472  1.0106  2.0372
   85SAPS   C25 8056   1.587   4.653  10.112 -0.4947 -0.6970  0.4445
   85SAPS   H5R 8057   1.536   4.603  10.196 -1.2371  0.8990  0.9642
   85SAPS   C26 8058   1.552   4.614   9.986  0.3521  0.6415  0.0241
   85SAPS   H6R 8059   1.489   4.525   9.971 -0.8896  1.7383 -1.5199
   85SAPS   C27 8060   1.601   4.673   9.860  0.2708  0.3310 -0.8690
   85SAPS   H7R 8061   1.684   4.612   9.816  1.6680 -0.2391  2.4539
   85SAPS   H7S 8062   1.651   4.771   9.875  0.9633 -0.0511 -0.6526
   85SAPS   C28 8063   1.492   4.691   9.764 -0.2085  0.5865  0.3125
   85SAPS   H8R 8064   1.385   4.693   9.789 -0.0755  0.8188  0.8464
   85SAPS   C29 8065   1.523   4.714   9.635  0.2065 -0.2207 -0.1678
   85SAPS   H9R 8066   1.447   4.706   9.556  0.6835 -0.9543 -0.5541
   85SAPS  C210 8067   1.658   4.721   9.578 -0.7512  0.3678  0.2333
   85SAPS  H10R 8068   1.709   4.622   9.577 -1.1198  0.1713 -1.6836
   85SAPS  H10S 8069   1.711   4.791   9.646 -0.6895 -0.0073  0.5759
   85SAPS  C211 8070   1.650   4.769   9.437 -0.6879  0.0595 -0.8526
   85SAPS  H11R 8071   1.640   4.878   9.426 -3.4324 -0.1795 -0.9967
   85SAPS  C212 8072   1.652   4.692   9.330 -0.5092  0.6684 -0.2409
   85SAPS  H12R 8073   1.641   4.740   9.232  1.2003  3.0601  0.7046
   85SAPS  C213 8074   1.646   4.538   9.327  0.4422 -1.0164  0.6001
   85SAPS  H13R 8075   1.636   4.489   9.426 -3.2528 -0.0079  0.8214
   85SAPS  H13S 8076   1.737   4.490   9.286  0.6729 -1.5615  1.7517
   85SAPS  C214 8077   1.525   4.500   9.248 -0.4187  0.0207  0.1729
   85SAPS  H14R 8078   1.445   4.445   9.299 -0.5609 -0.4276 -0.5171
   85SAPS  C215 8079   1.518   4.501   9.114 -0.4973 -0.4857 -0.0034
   85SAPS  H15R 8080   1.428   4.473   9.059  0.5172 -1.7029 -1.0647
   85SAPS  C216 8081   1.627   4.557   9.020  0.3224  0.1059 -0.9041
   85SAPS  H16R 8082   1.696   4.631   9.066 -0.6268  1.4698 -1.6136
   85SAPS  H16S 8083   1.588   4.608   8.929 -0.8355 -1.1343 -1.1277
   85SAPS  C217 8084   1.719   4.446   8.958  0.5896 -0.9054 -0.4005
   85SAPS  H17R 8085   1.757   4.384   9.042  1.2684  1.9340  1.4550
   85SAPS  H17S 8086   1.810   4.486   8.908 -0.3186  0.1067 -1.2762
   85SAPS  C218 8087   1.650   4.354   8.858  0.2227 -0.1661 -0.1933
   85SAPS  H18R 8088   1.568   4.301   8.910 -0.2146  0.3077 -0.3897
   85SAPS  H18S 8089   1.717   4.267   8.841  1.8133  0.9547  0.1516
   85SAPS  C219 8090   1.618   4.418   8.718  0.3584  0.2260 -0.8860
   85SAPS  H19R 8091   1.711   4.430   8.660 -0.5103 -1.2118 -2.5933
   85SAPS  H19S 8092   1.570   4.518   8.725 -1.1214 -0.5565  0.6864
   85SAPS  C220 8093   1.522   4.328   8.641  0.7699 -0.1272  0.4764
   85SAPS  H20R 8094   1.425   4.309   8.692  0.4062  1.0685  0.2489
   85SAPS  H20S 8095   1.566   4.230   8.612  0.0496 -0.8141  1.6154
   85SAPS  H20T 8096   1.492   4.390   8.554  1.7764  0.0597  0.2606
   85SAPS   C33 8097   1.878   4.282  10.230 -0.5329 -0.0166  0.3118
   85SAPS   H3X 8098   1.860   4.174  10.213 -2.7048  0.1163  1.7180
   85SAPS   H3Y 8099   1.977   4.268  10.278  0.0474  0.0689 -0.8334
   85SAPS   C34 8100   1.876   4.362  10.098  0.4205 -0.5019 -0.6151
   85SAPS   H4X 8101   1.928   4.460  10.103 -0.5611  0.0314 -0.7293
   85SAPS   H4Y 8102   1.766   4.374  10.086  0.4244 -1.0076 -1.1703
   85SAPS   C35 8103   1.949   4.282   9.984 -0.6569  0.2058 -0.2858
   85SAPS   H5X 8104   1.924   4.174   9.997  0.3977  0.2614  2.4618
   85SAPS   H5Y 8105   2.058   4.297   9.991 -0.5288 -0.2619 -1.2374
   85SAPS   C36 8106   1.902   4.323   9.842  0.1625 -0.6636 -0.5059
   85SAPS   H6X 8107   1.936   4.429   9.835 -2.0249  0.1038 -0.0181
   85SAPS   H6Y 8108   1.792   4.319   9.833 -0.0850 -0.5815  2.0909
   85SAPS   C37 8109   1.971   4.243   9.728  0.1321 -0.1956 -0.5667
   85SAPS   H7X 8110   1.954   4.134   9.739  1.2927 -0.0897  3.1835
   85SAPS   H7Y 8111   2.081   4.252   9.740  0.0883  2.2975 -1.6643
   85SAPS   C38 8112   1.944   4.313   9.593  0.0613 -0.2836  0.4794
   85SAPS   H8X 8113   1.985   4.416   9.597  0.7090 -0.4685 -0.9171
   85SAPS   H8Y 8114   1.836   4.317   9.566  0.0425 -0.4290  0.5331
   85SAPS   C39 8115   2.028   4.236   9.490  0.6316 -0.0080 -0.3648
   85SAPS   H9X 8116   1.995   4.130   9.486 -2.6209  0.8527  1.7816
   85SAPS   H9Y 8117   2.133   4.239   9.526  0.6963  2.0094 -0.6661
   85SAPS  C310 8118   2.005   4.286   9.345  0.9602 -0.3840 -0.2682
   85SAPS  H10X 8119   2.053   4.386   9.332 -1.2167  0.8233  0.6533
   85SAPS  H10Y 8120   1.896   4.292   9.326  0.5907 -1.1399  1.5219
   85SAPS  C311 8121   2.074   4.188   9.252 -0.2124 -0.0514  0.1622
   85SAPS  H11X 8122   2.014   4.095   9.246 -0.0549 -0.0320 -2.7919
   85SAPS  H11Y 8123   2.167   4.152   9.300  0.0581 -1.6909 -1.5217
   85SAPS  C312 8124   2.116   4.244   9.115  0.4646 -0.4615 -0.3207
   85SAPS  H12X 8125   2.163   4.345   9.118  0.1965 -0.2401 -2.5547
   85SAPS  H12Y 8126   2.019   4.248   9.061  0.8310  2.1129 -0.8736
   85SAPS  C313 8127   2.216   4.163   9.038 -0.3450  0.0459  0.7609
   85SAPS  H13X 8128   2.171   4.061   9.031  2.4642 -1.1083 -1.7236
   85SAPS  H13Y 8129   2.305   4.141   9.101  0.0247 -1.0302 -0.1122
   85SAPS  C314 8130   2.241   4.203   8.896 -0.2089 -0.2881 -0.3396
   85SAPS  H14X 8131   2.296   4.299   8.903  0.4600 -0.8591  3.6807
   85SAPS  H14Y 8132   2.145   4.222   8.843 -1.0266 -0.5682  1.0118
   85SAPS  C315 8133   2.330   4.105   8.819 -0.1796 -0.0893 -0.6135
   85SAPS  H15X 8134   2.404   4.068   8.892  0.8669  0.0680 -1.5728
   85SAPS  H15Y 8135   2.385   4.160   8.740 -0.5946 -0.6510 -1.3005
   85SAPS  C316 8136   2.258   3.994   8.747  0.1279 -0.3131 -0.3490
   85SAPS  H16X 8137   2.175   4.034   8.685 -0.5151  1.7229  1.7545
   85SAPS  H16Y 8138   2.220   3.919   8.820  1.1716  0.8702  1.4443
   85SAPS  C317 8139   2.350   3.936   8.642 -0.2112 -0.4650  0.1926
   85SAPS  H17X 8140   2.303   3.839   8.614 -1.0538  0.1886 -0.6656
   85SAPS  H17Y 8141   2.447   3.912   8.691  0.8204 -0.7063 -1.8780
   85SAPS  C318 8142   2.369   4.021   8.513  0.1264 -0.0994 -0.6984
   85SAPS  H18X 8143   2.278   4.031   8.450  0.3616  0.6774 -0.9165
   85SAPS  H18Y 8144   2.443   3.959   8.458 -1.0404 -1.9326 -0.2638
   85SAPS  H18Z 8145   2.399   4.127   8.528  2.0372 -0.7830  0.6097
   86SAPS     N 8146   4.258   5.033  10.893 -0.3881 -0.1108 -0.9605
   86SAPS   HN1 8147   4.356   5.041  10.927 -0.3595 -4.4065  0.3931
   86SAPS   HN2 8148   4.262   4.946  10.835 -0.9274  0.2392 -1.5137
   86SAPS   HN3 8149   4.237   5.119  10.839  0.6666  0.7865  0.0372
   86SAPS   C12 8150   4.168   5.013  11.007  0.5157 -0.3077 -0.3213
   86SAPS  H12A 8151   4.207   4.929  11.064 -0.8424 -1.6454 -1.3464
   86SAPS   C13 8152   4.160   5.129  11.118 -0.1759  0.1676 -0.3949
   86SAPS  O13A 8153   4.256   5.211  11.121  0.1060  0.3415  0.0620
   86SAPS  O13B 8154   4.065   5.139  11.196 -0.0433 -0.2312  0.5483
   86SAPS   C11 8155   4.033   4.971  10.955 -0.3423  0.1413 -0.1084
   86SAPS  H11A 8156   4.003   5.037  10.872  0.8283 -0.5895 -1.1424
   86SAPS  H11B 8157   3.957   4.995  11.032  0.7872  1.9600  0.4549
   86SAPS     P 8158   3.968   4.726  10.987 -0.0564  0.4531 -0.2316
   86SAPS   O13 8159   3.978   4.594  10.914  1.3065  0.0793  0.1636
   86SAPS   O14 8160   4.018   4.737  11.128 -0.0712  0.2957  0.4234
   86SAPS   O12 8161   4.026   4.841  10.899 -0.3508  0.1321  0.2266
   86SAPS   O11 8162   3.816   4.763  11.004 -0.6804 -0.0232 -0.2177
   86SAPS    C1 8163   3.746   4.840  10.912  0.1840 -0.1902  1.0565
   86SAPS    HA 8164   3.727   4.943  10.949 -0.9491 -0.2954  0.7617
   86SAPS    HB 8165   3.797   4.848  10.813 -4.1337  0.8923 -1.1995
   86SAPS    C2 8166   3.604   4.778  10.886 -0.0264 -0.3984  1.0447
   86SAPS    HS 8167   3.538   4.803  10.972  1.3174 -0.0562  1.9993
   86SAPS   O21 8168   3.624   4.638  10.869  0.7263 -0.3898 -0.0129
   86SAPS   C21 8169   3.602   4.564  10.977  0.3524 -0.4624  1.3924
   86SAPS   O22 8170   3.548   4.597  11.079 -0.3175  0.4144 -0.1075
   86SAPS   C22 8171   3.664   4.420  10.962  0.0506  0.1454 -0.1559
   86SAPS   H2R 8172   3.660   4.402  10.852 -2.3513 -0.1860 -0.0414
   86SAPS   H2S 8173   3.770   4.420  10.994  0.7753  0.3078 -2.4374
   86SAPS    C3 8174   3.544   4.853  10.752 -0.3001  0.1466 -0.6955
   86SAPS    HX 8175   3.531   4.962  10.769 -1.8220 -0.1969  0.4480
   86SAPS    HY 8176   3.445   4.807  10.732 -1.4846  2.0062  0.6813
   86SAPS   O31 8177   3.635   4.837  10.640 -0.2134  0.0821 -0.3894
   86SAPS   C31 8178   3.589   4.904  10.533  0.6691 -0.1206  0.1271
   86SAPS   O32 8179   3.480   4.961  10.524 -0.1437 -0.1559 -0.2374
   86SAPS   C32 8180   3.681   4.885  10.405  0.0914 -0.8221 -0.5331
   86SAPS   H2X 8181   3.653   4.789  10.356  0.4510 -1.4000  0.3806
   86SAPS   H2Y 8182   3.779   4.874  10.456 -0.2235 -0.2814  0.2067
   86SAPS   C23 8183   3.564   4.320  11.027  0.5489 -0.2249  0.4613
   86SAPS   H3R 8184   3.531   4.358  11.126  1.9341 -1.7014  1.5233
   86SAPS   H3S 8185   3.616   4.225  11.050  2.8511  0.1549 -2.7943
   86SAPS   C24 8186   3.447   4.288  10.929 -0.5030  0.6503 -0.2838
   86SAPS   H4R 8187   3.489   4.273  10.827 -0.4078  0.3375 -0.1990
   86SAPS   H4S 8188   3.386   4.380  10.926 -1.2758  0.2411  2.2801
   86SAPS   C25 8189   3.374   4.167  10.976 -0.1983  0.4120 -0.1630
   86SAPS   H5R 8190   3.414   4.110  11.061  2.0090  2.7822  0.4509
   86SAPS   C26 8191   3.271   4.115  10.915 -0.2976  0.3801 -0.1809
   86SAPS   H6R 8192   3.230   4.019  10.948 -0.0018 -0.4994 -2.2750
   86SAPS   C27 8193   3.208   4.173  10.788  0.0535  0.8817  0.7947
   86SAPS   H7R 8194   3.187   4.280  10.811 -0.0341  1.1004 -0.2567
   86SAPS   H7S 8195   3.111   4.123  10.771  1.0510 -1.0520  0.5874
   86SAPS   C28 8196   3.283   4.158  10.655 -0.4414 -0.2414 -0.2468
   86SAPS   H8R 8197   3.322   4.059  10.627  1.2413  0.5904 -0.9708
   86SAPS   C29 8198   3.303   4.261  10.575  0.0970 -0.6849 -0.2139
   86SAPS   H9R 8199   3.374   4.236  10.495 -0.0285 -2.3016  0.1570
   86SAPS  C210 8200   3.260   4.400  10.591 -0.2634  0.4582 -0.2229
   86SAPS  H10R 8201   3.182   4.417  10.668 -0.2795 -1.5115  0.1984
   86SAPS  H10S 8202   3.208   4.430  10.497 -2.0682  0.3750  0.7484
   86SAPS  C211 8203   3.382   4.491  10.613  0.4882  0.0260  0.4528
   86SAPS  H11R 8204   3.427   4.481  10.713 -0.6074 -3.9237  0.6377
   86SAPS  C212 8205   3.448   4.553  10.508 -0.4618 -0.6794  0.3073
   86SAPS  H12R 8206   3.531   4.618  10.540 -3.0832  2.5179  0.9350
   86SAPS  C213 8207   3.417   4.571  10.362  0.4104 -0.0656  0.7612
   86SAPS  H13R 8208   3.385   4.676  10.347  3.2295  0.7836  0.3440
   86SAPS  H13S 8209   3.337   4.503  10.326 -0.7287  1.2645  0.7358
   86SAPS  C214 8210   3.541   4.547  10.278  0.1675 -0.0831  0.2047
   86SAPS  H14R 8211   3.619   4.491  10.333  0.1374 -0.3372 -0.0074
   86SAPS  C215 8212   3.561   4.581  10.148  0.3665  0.1931 -0.0525
   86SAPS  H15R 8213   3.638   4.522  10.096 -1.7562 -3.0077  0.3023
   86SAPS  C216 8214   3.465   4.652  10.059  0.0030  0.2310  0.1626
   86SAPS  H16R 8215   3.499   4.757  10.047  1.8049 -0.4771 -1.2753
   86SAPS  H16S 8216   3.360   4.651  10.096  0.7255  0.8988  2.3221
   86SAPS  C217 8217   3.466   4.596   9.920  0.3499 -0.4449 -0.0553
   86SAPS  H17R 8218   3.455   4.486   9.918  3.2886 -0.7770 -2.5579
   86SAPS  H17S 8219   3.562   4.615   9.867  0.9913  0.4169  1.4123
   86SAPS  C218 8220   3.346   4.645   9.840  0.6646  0.1189  0.3214
   86SAPS  H18R 8221   3.338   4.756   9.846 -0.8595  0.0022  0.7293
   86SAPS  H18S 8222   3.248   4.605   9.873 -0.2476  0.5011 -1.8434
   86SAPS  C219 8223   3.351   4.608   9.693 -0.4103  0.7568  0.1165
   86SAPS  H19R 8224   3.352   4.498   9.679  1.8474  0.7656  0.0511
   86SAPS  H19S 8225   3.449   4.649   9.662 -0.8765  0.0797 -2.3670
   86SAPS  C220 8226   3.243   4.660   9.596  0.6188 -0.2954 -0.2327
   86SAPS  H20R 8227   3.150   4.600   9.611  0.5754 -0.0091  0.6983
   86SAPS  H20S 8228   3.273   4.662   9.489  1.4665  0.0231  0.0045
   86SAPS  H20T 8229   3.216   4.763   9.628  0.0485 -0.4238 -0.2980
   86SAPS   C33 8230   3.670   5.003  10.305 -0.5341  0.2205  0.1432
   86SAPS   H3X 8231   3.674   5.096  10.365 -1.0786  0.8457 -0.7696
   86SAPS   H3Y 8232   3.574   5.001  10.249  0.5341 -1.8786 -1.7173
   86SAPS   C34 8233   3.772   5.001  10.196  0.3711 -0.3625 -0.3403
   86SAPS   H4X 8234   3.874   4.982  10.237 -0.1389  2.1365  2.2209
   86SAPS   H4Y 8235   3.765   5.092  10.133 -0.1359 -1.0742 -1.3329
   86SAPS   C35 8236   3.749   4.894  10.079  0.5790  0.7176  0.8048
   86SAPS   H5X 8237   3.648   4.920  10.042  0.7206  0.0312 -0.0717
   86SAPS   H5Y 8238   3.754   4.785  10.102 -1.6861 -0.0401 -2.0108
   86SAPS   C36 8239   3.855   4.914   9.965  0.2270 -0.0137  0.4916
   86SAPS   H6X 8240   3.951   4.874  10.004 -0.6402 -0.6894  1.9829
   86SAPS   H6Y 8241   3.873   5.021   9.940  0.6437  0.2400  1.8196
   86SAPS   C37 8242   3.837   4.832   9.841  0.6194  0.6250 -0.2667
   86SAPS   H7X 8243   3.800   4.730   9.865  0.3676  1.1561  1.6524
   86SAPS   H7Y 8244   3.934   4.843   9.789  2.1735  0.5923  2.5390
   86SAPS   C38 8245   3.731   4.895   9.744 -0.2390  0.6307 -0.2826
   86SAPS   H8X 8246   3.766   4.995   9.710  1.3683  0.0974 -0.2420
   86SAPS   H8Y 8247   3.633   4.900   9.796  0.3266  0.4303  0.8396
   86SAPS   C39 8248   3.699   4.807   9.624  0.9164  0.4269  0.0428
   86SAPS   H9X 8249   3.620   4.859   9.565  1.8703  1.4035 -0.3892
   86SAPS   H9Y 8250   3.662   4.707   9.654 -1.1669  0.5148 -2.0587
   86SAPS  C310 8251   3.819   4.798   9.528  0.1912  1.1797 -0.3037
   86SAPS  H10X 8252   3.910   4.754   9.572 -0.8797 -1.0579 -0.2684
   86SAPS  H10Y 8253   3.831   4.907   9.507  1.7064  0.8255 -1.3238
   86SAPS  C311 8254   3.783   4.730   9.394 -0.3324 -0.5934 -0.4088
   86SAPS  H11X 8255   3.682   4.683   9.405 -0.7857  0.9508  2.4709
   86SAPS  H11Y 8256   3.849   4.645   9.367 -1.3428 -1.5304  0.0150
   86SAPS  C312 8257   3.778   4.830   9.274  0.5127  0.0604 -0.0885
   86SAPS  H12X 8258   3.881   4.870   9.261  1.1042 -0.6961  1.9549
   86SAPS  H12Y 8259   3.701   4.907   9.294 -0.9323 -1.3576 -0.1279
   86SAPS  C313 8260   3.731   4.763   9.145  0.4008  0.2964 -0.0739
   86SAPS  H13X 8261   3.622   4.743   9.140  0.5195 -1.1525  2.2741
   86SAPS  H13Y 8262   3.779   4.663   9.134  2.1562  0.7709  2.7673
   86SAPS  C314 8263   3.776   4.847   9.022 -0.3435  0.7603  0.2858
   86SAPS  H14X 8264   3.879   4.886   9.034  1.2067 -1.9817 -3.5100
   86SAPS  H14Y 8265   3.710   4.937   9.017  0.3010  1.2523  0.5909
   86SAPS  C315 8266   3.764   4.772   8.898 -0.1925 -0.2736 -0.3632
   86SAPS  H15X 8267   3.836   4.687   8.893  1.3020  1.0504 -1.6568
   86SAPS  H15Y 8268   3.778   4.841   8.812 -1.9741  0.6808  0.0889
   86SAPS  C316 8269   3.620   4.728   8.874  0.9946  0.1290 -0.3195
   86SAPS  H16X 8270   3.558   4.820   8.878  0.9570  0.0851  0.1989
   86SAPS  H16Y 8271   3.581   4.680   8.966  0.7727  2.1506  0.6722
   86SAPS  C317 8272   3.598   4.655   8.744  0.3051  0.4534 -0.4612
   86SAPS  H17X 8273   3.653   4.561   8.725  0.1953  0.0098  1.2897
   86SAPS  H17Y 8274   3.637   4.726   8.667  1.8073  0.2007  0.0467
   86SAPS  C318 8275   3.451   4.623   8.716  0.2822  0.2914  0.1422
   86SAPS  H18X 8276   3.420   4.551   8.794 -1.9303 -0.9863 -1.8459
   86SAPS  H18Y 8277   3.431   4.582   8.615  2.9377  0.7145 -0.5826
   86SAPS  H18Z 8278   3.393   4.718   8.717  2.4186  1.6515  2.6888
   87SAPS     N 8279   3.825   5.529  11.079  0.1369 -0.0147  0.1377
   87SAPS   HN1 8280   3.773   5.449  11.121 -0.3668  0.5949  0.6795
   87SAPS   HN2 8281   3.793   5.524  10.980 -0.0172 -1.4192  0.2445
   87SAPS   HN3 8282   3.924   5.500  11.090  0.2775  1.1902  2.2167
   87SAPS   C12 8283   3.786   5.661  11.151 -0.8436 -0.2822  0.1885
   87SAPS  H12A 8284   3.696   5.704  11.110 -1.0629  1.4598  2.4014
   87SAPS   C13 8285   3.776   5.645  11.304  0.1701  0.0111 -0.0719
   87SAPS  O13A 8286   3.799   5.533  11.356 -0.2296  0.1302 -0.3845
   87SAPS  O13B 8287   3.708   5.738  11.355  0.0101 -0.2899  0.1567
   87SAPS   C11 8288   3.892   5.775  11.108  0.3141 -0.3681  0.1373
   87SAPS  H11A 8289   3.991   5.729  11.130  0.6528  0.5752  0.6057
   87SAPS  H11B 8290   3.882   5.858  11.182 -0.2284 -1.6356  1.5143
   87SAPS     P 8291   3.992   5.866  10.884  0.1799  0.4640  0.0270
   87SAPS   O13 8292   4.000   6.016  10.908  0.0742  0.1530  0.1439
   87SAPS   O14 8293   4.122   5.794  10.899  0.3432  0.2264 -0.2278
   87SAPS   O12 8294   3.870   5.807  10.967 -0.1249 -0.3818  0.4603
   87SAPS   O11 8295   3.939   5.841  10.741  0.0864  0.3202 -0.7268
   87SAPS    C1 8296   3.815   5.893  10.694 -0.1493 -0.1758 -0.4332
   87SAPS    HA 8297   3.753   5.938  10.774  2.3076 -0.3149  1.6044
   87SAPS    HB 8298   3.839   5.968  10.615 -1.5075  2.7066  1.8140
   87SAPS    C2 8299   3.729   5.775  10.628 -0.2846 -0.1866 -0.9115
   87SAPS    HS 8300   3.736   5.691  10.700 -1.5073  1.2294  0.8954
   87SAPS   O21 8301   3.798   5.735  10.511 -0.2099  0.3650 -0.5708
   87SAPS   C21 8302   3.787   5.609  10.469  0.8327  0.2072  0.1454
   87SAPS   O22 8303   3.739   5.516  10.529 -0.4958  0.3561  0.0671
   87SAPS   C22 8304   3.835   5.593  10.326  0.8236 -0.2840  0.1503
   87SAPS   H2R 8305   3.755   5.642  10.266 -0.3137 -0.1838  1.7230
   87SAPS   H2S 8306   3.926   5.656  10.318  0.5729 -0.2417 -2.8425
   87SAPS    C3 8307   3.581   5.820  10.615 -0.9475  0.0546  0.2844
   87SAPS    HX 8308   3.549   5.844  10.718 -2.2593 -0.8622  0.0994
   87SAPS    HY 8309   3.510   5.746  10.571  0.2233 -0.2607 -1.1406
   87SAPS   O31 8310   3.569   5.933  10.528 -0.3652  0.5156 -0.0425
   87SAPS   C31 8311   3.570   5.914  10.400  1.0568  0.4182 -0.1567
   87SAPS   O32 8312   3.567   5.811  10.337 -0.5172 -0.1612  0.0732
   87SAPS   C32 8313   3.559   6.054  10.343  0.1209  0.4867  0.3118
   87SAPS   H2X 8314   3.634   6.119  10.393  0.6842 -2.2733  3.2886
   87SAPS   H2Y 8315   3.457   6.089  10.369 -0.9776 -1.1961 -1.5326
   87SAPS   C23 8316   3.845   5.449  10.281  0.1223 -0.0520  0.3586
   87SAPS   H3R 8317   3.740   5.413  10.278 -1.2172  3.7125 -1.0238
   87SAPS   H3S 8318   3.906   5.380  10.343 -0.8007 -0.8212  0.4137
   87SAPS   C24 8319   3.887   5.430  10.128  0.3571  0.4761  0.3486
   87SAPS   H4R 8320   3.821   5.494  10.065 -2.3448 -1.4739  1.0843
   87SAPS   H4S 8321   3.861   5.326  10.098  1.3403  0.4369 -0.4114
   87SAPS   C25 8322   4.025   5.466  10.096 -0.8778  0.3547 -0.6546
   87SAPS   H5R 8323   4.063   5.564  10.130 -1.0315  0.3772 -0.5488
   87SAPS   C26 8324   4.109   5.391  10.027  0.2217  0.4037  0.1623
   87SAPS   H6R 8325   4.205   5.431   9.992  0.5969 -1.6290 -1.2453
   87SAPS   C27 8326   4.082   5.256   9.971  0.2784  0.0930 -1.2995
   87SAPS   H7R 8327   3.985   5.250   9.916 -0.3271  0.5763 -0.3154
   87SAPS   H7S 8328   4.082   5.190  10.061 -1.7764 -1.0427 -2.0918
   87SAPS   C28 8329   4.195   5.198   9.885  0.9901  0.5966 -0.0030
   87SAPS   H8R 8330   4.295   5.192   9.931  1.0101 -1.1278 -0.2070
   87SAPS   C29 8331   4.190   5.163   9.756  0.3931 -0.5673  0.7979
   87SAPS   H9R 8332   4.281   5.128   9.706 -1.0060 -2.5892 -0.4407
   87SAPS  C210 8333   4.070   5.186   9.668  0.6687 -0.0417  0.8736
   87SAPS  H10R 8334   3.976   5.203   9.724 -0.5680 -0.8923 -0.9025
   87SAPS  H10S 8335   4.050   5.089   9.618  2.0004 -1.3672  2.7926
   87SAPS  C211 8336   4.081   5.297   9.565 -0.4087  0.3269  0.5468
   87SAPS  H11R 8337   4.080   5.396   9.611 -0.6898 -0.9063  3.2863
   87SAPS  C212 8338   4.084   5.283   9.435  0.4639  0.4077 -0.6829
   87SAPS  H12R 8339   4.098   5.370   9.369  1.3326  1.5753  1.0157
   87SAPS  C213 8340   4.046   5.154   9.364 -0.5581  0.5471  0.4955
   87SAPS  H13R 8341   3.937   5.131   9.367 -1.0839  2.3832 -2.0476
   87SAPS  H13S 8342   4.097   5.071   9.416  0.5458  0.1447 -1.1972
   87SAPS  C214 8343   4.078   5.156   9.214  0.3969 -0.7439 -0.6640
   87SAPS  H14R 8344   4.176   5.112   9.191  0.0011 -1.2240 -1.4562
   87SAPS  C215 8345   4.016   5.219   9.114  0.6487 -0.1896  0.3395
   87SAPS  H15R 8346   4.048   5.209   9.010  1.6249  0.4122  0.5746
   87SAPS  C216 8347   3.884   5.296   9.131 -0.3773  0.0149 -0.0673
   87SAPS  H16R 8348   3.906   5.403   9.112 -1.7493  0.5065  1.0559
   87SAPS  H16S 8349   3.841   5.274   9.231 -0.3326 -0.6373 -0.1883
   87SAPS  C217 8350   3.788   5.248   9.025  0.1861 -0.8605 -0.7061
   87SAPS  H17R 8351   3.686   5.285   9.049  0.6627  0.1325 -0.2021
   87SAPS  H17S 8352   3.778   5.137   9.026 -3.9336 -0.5903 -1.3028
   87SAPS  C218 8353   3.835   5.300   8.888 -0.1328 -0.0046  0.0898
   87SAPS  H18R 8354   3.905   5.226   8.842  0.5756  1.1117 -0.6643
   87SAPS  H18S 8355   3.889   5.397   8.894  0.1616  0.0075 -2.3672
   87SAPS  C219 8356   3.719   5.305   8.786  0.1944  0.0487  0.1648
   87SAPS  H19R 8357   3.756   5.342   8.688  2.1354 -2.8639 -0.2610
   87SAPS  H19S 8358   3.635   5.366   8.826  1.0147  0.6619  0.9657
   87SAPS  C220 8359   3.656   5.171   8.761  0.3178 -0.4290  0.4872
   87SAPS  H20R 8360   3.584   5.163   8.677  1.5225 -0.5131 -0.5640
   87SAPS  H20S 8361   3.607   5.144   8.857 -0.1882 -2.1837 -0.2459
   87SAPS  H20T 8362   3.734   5.094   8.741 -0.6862 -1.2070 -0.4698
   87SAPS   C33 8363   3.562   6.061  10.194  0.6453  0.1852  0.2188
   87SAPS   H3X 8364   3.493   5.983  10.156 -0.0822  0.0576  1.7457
   87SAPS   H3Y 8365   3.664   6.051  10.152  0.3677 -0.0244 -0.4021
   87SAPS   C34 8366   3.506   6.194  10.139  0.2946  0.2357 -0.7348
   87SAPS   H4X 8367   3.562   6.290  10.146  0.0986  0.1699  2.4445
   87SAPS   H4Y 8368   3.406   6.227  10.176  0.9783 -0.2717  1.6309
   87SAPS   C35 8369   3.470   6.185   9.989 -0.1580  0.1239 -0.0903
   87SAPS   H5X 8370   3.436   6.286   9.959 -1.6466 -0.6740 -1.1290
   87SAPS   H5Y 8371   3.377   6.128   9.967 -0.8292  1.8440 -1.8426
   87SAPS   C36 8372   3.581   6.107   9.905 -0.0069  0.2374  0.4886
   87SAPS   H6X 8373   3.581   5.999   9.931  3.3404  0.3658  1.3037
   87SAPS   H6Y 8374   3.677   6.156   9.932  0.1296  0.3940 -0.2956
   87SAPS   C37 8375   3.558   6.128   9.752 -0.8052  0.0683  0.3569
   87SAPS   H7X 8376   3.554   6.236   9.727 -0.8437 -0.9454 -4.6023
   87SAPS   H7Y 8377   3.465   6.071   9.730  0.3091 -0.8979 -2.0221
   87SAPS   C38 8378   3.680   6.077   9.667 -0.5702  0.6353 -0.1453
   87SAPS   H8X 8379   3.694   5.967   9.671 -3.1630  0.2009 -1.9872
   87SAPS   H8Y 8380   3.773   6.131   9.694 -1.3770  2.2630 -0.4974
   87SAPS   C39 8381   3.654   6.121   9.516 -0.2157  0.3715  0.0471
   87SAPS   H9X 8382   3.636   6.230   9.520 -0.9688  0.2335  0.5243
   87SAPS   H9Y 8383   3.557   6.077   9.484  0.6064 -1.8128  0.4478
   87SAPS  C310 8384   3.771   6.103   9.415  0.0727 -0.1163 -0.8405
   87SAPS  H10X 8385   3.811   5.999   9.413  0.0563 -0.1320 -0.4958
   87SAPS  H10Y 8386   3.860   6.167   9.433 -1.2570  1.9824 -1.5964
   87SAPS  C311 8387   3.721   6.144   9.276 -0.2534 -0.2277  0.5823
   87SAPS  H11X 8388   3.679   6.245   9.294  0.8322  0.2455  0.5045
   87SAPS  H11Y 8389   3.644   6.072   9.243 -0.6549 -1.8534  4.7675
   87SAPS  C312 8390   3.834   6.155   9.165  0.3624 -0.5236  0.1569
   87SAPS  H12X 8391   3.848   6.052   9.126 -1.8050 -1.5333  1.9189
   87SAPS  H12Y 8392   3.928   6.198   9.207  1.1967 -1.0853 -1.1001
   87SAPS  C313 8393   3.802   6.248   9.045  0.1941  0.7875  0.0036
   87SAPS  H13X 8394   3.872   6.228   8.961  1.6280  2.9034  0.6473
   87SAPS  H13Y 8395   3.817   6.353   9.076 -1.8489  0.7057  1.3790
   87SAPS  C314 8396   3.667   6.222   8.985 -0.7113 -0.1246  0.2814
   87SAPS  H14X 8397   3.589   6.278   9.040 -1.0101 -0.6498  0.3993
   87SAPS  H14Y 8398   3.649   6.112   8.993  1.1241 -0.6746 -2.2828
   87SAPS  C315 8399   3.657   6.262   8.840  0.0125 -0.7514 -0.2098
   87SAPS  H15X 8400   3.720   6.352   8.826 -0.4999 -0.5318 -1.1257
   87SAPS  H15Y 8401   3.551   6.277   8.809  0.0476 -1.3182 -0.6050
   87SAPS  C316 8402   3.704   6.153   8.742 -0.2847 -0.1133  0.1944
   87SAPS  H16X 8403   3.669   6.052   8.774 -0.9498  0.8071  2.4962
   87SAPS  H16Y 8404   3.815   6.145   8.751  0.0106 -0.0227 -2.7943
   87SAPS  C317 8405   3.671   6.188   8.592  0.1064  0.4318 -0.1618
   87SAPS  H17X 8406   3.562   6.170   8.581  0.5207 -0.9847 -2.1811
   87SAPS  H17Y 8407   3.737   6.120   8.534  3.3211  0.3726  3.3525
   87SAPS  C318 8408   3.708   6.334   8.553 -0.2286 -0.1113  0.4442
   87SAPS  H18X 8409   3.663   6.406   8.626 -0.1730 -1.4938  1.8661
   87SAPS  H18Y 8410   3.657   6.363   8.459  0.1671  1.3971  0.6785
   87SAPS  H18Z 8411   3.819   6.348   8.553 -0.0101 -1.6762  1.7231
   88SAPS     N 8412   6.137   4.531  11.141 -0.4429  0.7579  0.9073
   88SAPS   HN1 8413   6.077   4.616  11.147 -1.4176  0.0102  1.7908
   88SAPS   HN2 8414   6.219   4.520  11.205  0.5129  0.5341 -0.3434
   88SAPS   HN3 8415   6.175   4.526  11.045  0.2425  1.8056  1.1131
   88SAPS   C12 8416   6.048   4.416  11.152 -0.5262 -0.2974 -0.2375
   88SAPS  H12A 8417   6.118   4.334  11.150  0.7724  0.7185  1.6725
   88SAPS   C13 8418   5.970   4.410  11.290  0.2903 -0.1367  0.1938
   88SAPS  O13A 8419   6.007   4.486  11.380  0.0112 -0.6020 -0.1618
   88SAPS  O13B 8420   5.897   4.311  11.319  0.3264 -0.1400  0.2382
   88SAPS   C11 8421   5.953   4.399  11.030 -0.5359 -0.2427  0.2105
   88SAPS  H11A 8422   5.875   4.478  11.034 -1.6008 -1.1925 -1.3693
   88SAPS  H11B 8423   5.897   4.303  11.030 -1.4614  0.2855  0.6940
   88SAPS     P 8424   5.959   4.393  10.759 -0.0018 -0.4427 -0.5877
   88SAPS   O13 8425   5.930   4.252  10.735  0.2659 -0.0991  0.2745
   88SAPS   O14 8426   5.845   4.489  10.748 -0.8349 -0.2458  0.8733
   88SAPS   O12 8427   6.023   4.414  10.904 -0.2899 -0.6642  0.3508
   88SAPS   O11 8428   6.088   4.429  10.663 -0.1959  0.6795  0.5631
   88SAPS    C1 8429   6.203   4.344  10.663 -0.3629  0.2427  0.0014
   88SAPS    HA 8430   6.291   4.398  10.704  0.8965 -2.0621  0.3921
   88SAPS    HB 8431   6.184   4.252  10.723 -0.9170  0.4545  0.1615
   88SAPS    C2 8432   6.254   4.306  10.524 -0.5673 -0.3350  0.0094
   88SAPS    HS 8433   6.260   4.397  10.460 -1.3321  0.4903  1.1108
   88SAPS   O21 8434   6.158   4.207  10.467 -0.2473  0.8572  0.0162
   88SAPS   C21 8435   6.077   4.259  10.389  0.2354 -0.0829  0.5669
   88SAPS   O22 8436   6.077   4.375  10.346  0.0275  0.2280 -0.4457
   88SAPS   C22 8437   5.994   4.142  10.334 -0.5659 -0.6689 -0.2836
   88SAPS   H2R 8438   6.069   4.094  10.268  0.6344 -0.8851  1.2100
   88SAPS   H2S 8439   5.974   4.078  10.423 -0.6115 -0.1042  0.1107
   88SAPS    C3 8440   6.401   4.251  10.539 -0.6558  0.1365  0.6730
   88SAPS    HX 8441   6.383   4.165  10.607 -2.3738  0.0700  0.1660
   88SAPS    HY 8442   6.457   4.317  10.609  1.6938 -1.2872  0.1712
   88SAPS   O31 8443   6.468   4.216  10.417  0.3400 -0.4449  0.0448
   88SAPS   C31 8444   6.522   4.093  10.418  0.4350  0.0959  0.0428
   88SAPS   O32 8445   6.540   4.021  10.516 -0.1205  0.1557  0.3643
   88SAPS   C32 8446   6.550   4.050  10.270 -0.2950  0.2347  0.2219
   88SAPS   H2X 8447   6.451   4.046  10.218 -0.4060 -0.1418  0.4634
   88SAPS   H2Y 8448   6.588   3.946  10.280 -1.1929 -0.2408 -1.0601
   88SAPS   C23 8449   5.865   4.185  10.265  0.3608 -0.2641 -0.4007
   88SAPS   H3R 8450   5.898   4.242  10.175  1.8922 -0.3230  0.1196
   88SAPS   H3S 8451   5.803   4.251  10.328 -2.5772  0.1109 -3.4933
   88SAPS   C24 8452   5.785   4.060  10.228 -0.1372  0.3390 -0.0331
   88SAPS   H4R 8453   5.749   4.010  10.320  3.4730 -1.8800  0.2578
   88SAPS   H4S 8454   5.858   3.988  10.185  1.1754  2.0379 -0.7183
   88SAPS   C25 8455   5.668   4.089  10.138 -0.4178 -0.4616 -0.2111
   88SAPS   H5R 8456   5.605   4.168  10.182  0.8839  0.4504  0.0146
   88SAPS   C26 8457   5.629   4.023  10.028  0.1258 -0.1667 -0.5087
   88SAPS   H6R 8458   5.551   4.058   9.958  1.2192 -2.5638 -3.0434
   88SAPS   C27 8459   5.708   3.921   9.960 -0.1230  0.4113  1.0733
   88SAPS   H7R 8460   5.645   3.852   9.900  0.9689  0.6790 -0.4072
   88SAPS   H7S 8461   5.759   3.863  10.040  1.0240  0.3577  0.3145
   88SAPS   C28 8462   5.818   3.971   9.867 -0.4118  0.0024  0.3807
   88SAPS   H8R 8463   5.917   3.967   9.915 -0.6919 -0.7742  0.9041
   88SAPS   C29 8464   5.801   4.017   9.743 -0.0351 -0.1042 -0.1458
   88SAPS   H9R 8465   5.898   4.032   9.693 -1.1969 -0.4739 -2.5744
   88SAPS  C210 8466   5.669   4.032   9.669  0.0384  0.0370  0.4168
   88SAPS  H10R 8467   5.692   4.110   9.593  2.3409 -0.6508  0.3809
   88SAPS  H10S 8468   5.585   4.082   9.722 -2.5198 -1.9631 -1.6094
   88SAPS  C211 8469   5.625   3.896   9.611 -0.2445  0.1884  0.1843
   88SAPS  H11R 8470   5.575   3.830   9.683  0.3758 -2.9597 -2.1571
   88SAPS  C212 8471   5.633   3.859   9.479  0.0058 -0.2149 -0.9148
   88SAPS  H12R 8472   5.592   3.766   9.440  1.0182 -0.2813 -1.8333
   88SAPS  C213 8473   5.686   3.939   9.364  0.1817 -0.3889  0.3295
   88SAPS  H13R 8474   5.781   3.982   9.403 -0.5774  1.1678  0.5057
   88SAPS  H13S 8475   5.614   4.021   9.345 -0.3106 -0.6943  0.8794
   88SAPS  C214 8476   5.716   3.870   9.235  0.7502 -0.9473  0.1116
   88SAPS  H14R 8477   5.800   3.801   9.247  1.9488  0.6280  0.8793
   88SAPS  C215 8478   5.650   3.886   9.121  0.2692 -0.3756  0.2797
   88SAPS  H15R 8479   5.690   3.838   9.030  0.7114 -3.7236  2.1695
   88SAPS  C216 8480   5.530   3.970   9.084  0.3212  0.6324 -0.0154
   88SAPS  H16R 8481   5.483   4.021   9.171  0.8012 -0.9448  1.1835
   88SAPS  H16S 8482   5.459   3.904   9.030  1.2846  0.2750 -0.8455
   88SAPS  C217 8483   5.581   4.081   8.984 -0.0545  0.0015 -0.5055
   88SAPS  H17R 8484   5.658   4.045   8.913  0.2464 -1.9579  0.7668
   88SAPS  H17S 8485   5.638   4.156   9.042  1.1579 -0.8553 -0.5631
   88SAPS  C218 8486   5.461   4.147   8.922  0.1098  0.1877  0.0718
   88SAPS  H18R 8487   5.391   4.188   8.998  0.3848  0.1425  0.3504
   88SAPS  H18S 8488   5.410   4.071   8.859  0.7713  1.1706 -1.7130
   88SAPS  C219 8489   5.501   4.274   8.832  0.1881  0.1083 -0.3617
   88SAPS  H19R 8490   5.558   4.339   8.902  0.1493 -0.1136 -0.1242
   88SAPS  H19S 8491   5.416   4.337   8.799  1.8944  2.6466 -0.0773
   88SAPS  C220 8492   5.593   4.225   8.712  0.3083 -0.2563 -0.2350
   88SAPS  H20R 8493   5.538   4.171   8.632  1.6333 -0.9495 -0.6868
   88SAPS  H20S 8494   5.677   4.161   8.744  1.8685  1.8589  0.0565
   88SAPS  H20T 8495   5.637   4.318   8.670 -0.7081  2.0400  3.5019
   88SAPS   C33 8496   6.651   4.133  10.197  0.8643 -0.4282 -0.3777
   88SAPS   H3X 8497   6.740   4.157  10.259  1.4273 -0.8180 -1.0335
   88SAPS   H3Y 8498   6.597   4.225  10.166 -1.0826 -0.8463  1.5714
   88SAPS   C34 8499   6.708   4.064  10.069 -0.0760  0.6083 -0.0873
   88SAPS   H4X 8500   6.751   3.980  10.128  0.3522  1.3868  0.7202
   88SAPS   H4Y 8501   6.787   4.125  10.020  2.0184 -2.2946 -0.4575
   88SAPS   C35 8502   6.609   4.031   9.958  0.4447 -0.2081  0.7554
   88SAPS   H5X 8503   6.559   4.125   9.926 -1.6442 -1.4856  0.0976
   88SAPS   H5Y 8504   6.522   3.978  10.003 -0.0352 -0.0251  0.0524
   88SAPS   C36 8505   6.657   3.940   9.850 -0.6666  0.2982 -0.0511
   88SAPS   H6X 8506   6.727   3.864   9.890 -1.3264 -1.4786 -2.1707
   88SAPS   H6Y 8507   6.720   4.007   9.787  0.3632  0.2852  0.9573
   88SAPS   C37 8508   6.543   3.876   9.771 -0.2999 -0.2859 -0.2446
   88SAPS   H7X 8509   6.480   3.958   9.731  2.3318  0.6438 -2.6207
   88SAPS   H7Y 8510   6.484   3.810   9.838  0.0050  1.2269  1.5565
   88SAPS   C38 8511   6.592   3.793   9.649 -0.1154  0.6471 -0.7483
   88SAPS   H8X 8512   6.629   3.696   9.690 -2.5380 -0.9415 -2.1640
   88SAPS   H8Y 8513   6.683   3.832   9.600  0.8003 -1.9210 -1.1809
   88SAPS   C39 8514   6.484   3.765   9.539  0.0323  0.2912 -0.0242
   88SAPS   H9X 8515   6.447   3.866   9.511  0.9946 -0.0144 -2.5711
   88SAPS   H9Y 8516   6.406   3.700   9.584 -2.3734  2.0572 -1.5329
   88SAPS  C310 8517   6.545   3.704   9.411  0.4843  0.2012  0.2124
   88SAPS  H10X 8518   6.613   3.620   9.439 -2.6049 -3.1500 -1.8921
   88SAPS  H10Y 8519   6.608   3.780   9.360  0.3469  0.7071  0.7900
   88SAPS  C311 8520   6.440   3.657   9.304  0.4819 -0.3559  0.4521
   88SAPS  H11X 8521   6.383   3.732   9.244 -0.5093 -0.5457  1.1314
   88SAPS  H11Y 8522   6.366   3.596   9.360  0.0920 -1.3666 -1.1537
   88SAPS  C312 8523   6.511   3.563   9.201  0.8452 -0.8775  0.0071
   88SAPS  H12X 8524   6.450   3.470   9.197  1.1554 -1.1791  1.9366
   88SAPS  H12Y 8525   6.615   3.544   9.236 -0.2044  0.1335  3.8059
   88SAPS  C313 8526   6.517   3.628   9.059 -0.5192 -0.0946 -0.0335
   88SAPS  H13X 8527   6.575   3.722   9.055  1.3404 -1.2210 -0.2004
   88SAPS  H13Y 8528   6.416   3.661   9.029 -0.1870  0.3736 -0.6454
   88SAPS  C314 8529   6.554   3.532   8.945 -0.0072  0.3792  0.5313
   88SAPS  H14X 8530   6.653   3.482   8.953  1.5941  3.6271  1.5892
   88SAPS  H14Y 8531   6.576   3.588   8.852 -1.0059  2.5956  1.6012
   88SAPS  C315 8532   6.446   3.422   8.927  0.4992 -0.5047 -0.1827
   88SAPS  H15X 8533   6.341   3.459   8.925  1.7252  3.2344 -0.0371
   88SAPS  H15Y 8534   6.453   3.354   9.015 -3.4026 -1.0128 -0.1925
   88SAPS  C316 8535   6.475   3.335   8.802  0.2534  0.1129  0.4250
   88SAPS  H16X 8536   6.556   3.263   8.825  1.5110  1.3704  0.0013
   88SAPS  H16Y 8537   6.501   3.416   8.731  2.3676 -0.9222 -0.0228
   88SAPS  C317 8538   6.350   3.260   8.756  0.8550  0.0286 -0.1947
   88SAPS  H17X 8539   6.342   3.248   8.646 -0.0565 -1.1438 -0.0148
   88SAPS  H17Y 8540   6.269   3.333   8.779  1.0989  0.1039  0.4518
   88SAPS  C318 8541   6.306   3.128   8.819  0.4388 -0.2774 -0.4439
   88SAPS  H18X 8542   6.298   3.143   8.929  1.6302  1.7325 -0.5977
   88SAPS  H18Y 8543   6.376   3.044   8.800 -0.0581 -0.9569  0.6846
   88SAPS  H18Z 8544   6.202   3.107   8.786  0.3079  0.4660 -0.5137
   89SAPS     N 8545   6.053   6.275  10.841 -0.1517 -0.2028 -0.4907
   89SAPS   HN1 8546   6.130   6.329  10.797 -0.8870  1.9232  0.7644
   89SAPS   HN2 8547   6.084   6.250  10.937  1.1778  0.5935 -0.7004
   89SAPS   HN3 8548   6.054   6.177  10.805 -0.4422 -1.4392  2.7014
   89SAPS   C12 8549   5.919   6.331  10.826 -0.2537  0.2813  0.4678
   89SAPS  H12A 8550   5.885   6.328  10.723 -1.4935  0.7159  0.8553
   89SAPS   C13 8551   5.811   6.252  10.904  0.7027  0.5986  0.0224
   89SAPS  O13A 8552   5.840   6.142  10.958 -0.1840 -0.1365 -0.0270
   89SAPS  O13B 8553   5.683   6.284  10.877 -0.5076  0.6161  0.0813
   89SAPS   C11 8554   5.927   6.477  10.889  0.0976  0.4234  0.9946
   89SAPS  H11A 8555   5.980   6.473  10.986  2.6794  1.3155 -0.3323
   89SAPS  H11B 8556   5.832   6.521  10.924 -1.3054 -0.1052 -2.0212
   89SAPS     P 8557   5.927   6.665  10.707  0.4053  0.1408 -0.0093
   89SAPS   O13 8558   5.823   6.588  10.631 -0.5477 -0.6302 -0.1514
   89SAPS   O14 8559   5.882   6.783  10.784  1.0366  0.0142  0.5789
   89SAPS   O12 8560   6.002   6.569  10.811 -0.6282  0.6202  0.9951
   89SAPS   O11 8561   6.045   6.715  10.623 -0.3042  0.0924 -0.6038
   89SAPS    C1 8562   6.095   6.657  10.501  0.6846 -0.0637 -0.2171
   89SAPS    HA 8563   6.204   6.669  10.483  0.8076 -0.4624  0.2487
   89SAPS    HB 8564   6.064   6.551  10.486  1.0446 -0.4776  1.7968
   89SAPS    C2 8565   6.022   6.732  10.387 -0.4787  0.2997  0.1299
   89SAPS    HS 8566   5.920   6.692  10.372 -0.1123 -0.0496 -1.5848
   89SAPS   O21 8567   6.107   6.713  10.270 -1.0862 -0.3430  0.5217
   89SAPS   C21 8568   6.093   6.592  10.215 -0.8365 -0.2628 -1.2677
   89SAPS   O22 8569   6.010   6.509  10.244 -0.2013 -0.1193  0.5292
   89SAPS   C22 8570   6.199   6.573  10.104 -0.2716 -0.2612 -0.4649
   89SAPS   H2R 8571   6.161   6.633  10.018  0.3413 -0.2884 -0.7590
   89SAPS   H2S 8572   6.291   6.633  10.126 -0.3742 -0.1429 -0.3584
   89SAPS    C3 8573   6.015   6.883  10.423  0.2607  0.1359 -0.1506
   89SAPS    HX 8574   6.120   6.904  10.453 -0.5954  1.8462  1.7555
   89SAPS    HY 8575   5.942   6.891  10.507 -0.0088  1.7803 -0.5232
   89SAPS   O31 8576   5.977   6.944  10.308  0.3345  0.1057 -0.0639
   89SAPS   C31 8577   6.039   7.044  10.254  0.0056  0.4073  0.3645
   89SAPS   O32 8578   6.144   7.089  10.300  0.0340  0.4112  0.4892
   89SAPS   C32 8579   5.958   7.105  10.139 -0.1629 -0.0056  0.4281
   89SAPS   H2X 8580   5.925   7.209  10.160  3.3544  1.3707 -0.4978
   89SAPS   H2Y 8581   5.867   7.043  10.127 -0.4879  0.9932 -2.8033
   89SAPS   C23 8582   6.247   6.438  10.063  0.6614 -0.2429 -0.2619
   89SAPS   H3R 8583   6.162   6.367  10.065  0.9748 -0.5981  0.4766
   89SAPS   H3S 8584   6.321   6.402  10.138 -0.3128 -0.4138  0.6172
   89SAPS   C24 8585   6.317   6.423   9.921  0.4102  0.0632  0.0161
   89SAPS   H4R 8586   6.230   6.414   9.853  0.5993  1.4049 -0.4279
   89SAPS   H4S 8587   6.376   6.332   9.898 -0.3744  0.2596 -2.9213
   89SAPS   C25 8588   6.413   6.540   9.893  0.0932 -0.3277 -0.6371
   89SAPS   H5R 8589   6.483   6.551   9.976 -1.2380  1.2220  0.2994
   89SAPS   C26 8590   6.409   6.617   9.783 -0.3507 -0.7430  0.4514
   89SAPS   H6R 8591   6.486   6.694   9.774  0.7538 -1.8988 -0.1537
   89SAPS   C27 8592   6.301   6.599   9.668 -0.1352  0.0882 -0.0838
   89SAPS   H7R 8593   6.297   6.699   9.621 -2.2257 -0.0821 -0.3236
   89SAPS   H7S 8594   6.198   6.571   9.701 -0.0041 -1.6885 -1.1246
   89SAPS   C28 8595   6.343   6.495   9.569  0.1092 -0.0862 -0.1061
   89SAPS   H8R 8596   6.320   6.391   9.599 -2.6665  0.0350 -1.6717
   89SAPS   C29 8597   6.380   6.514   9.443 -0.3820  0.0704  0.5052
   89SAPS   H9R 8598   6.394   6.423   9.382 -0.2647 -0.6819  1.6334
   89SAPS  C210 8599   6.401   6.646   9.375  0.2299 -0.2905  0.1227
   89SAPS  H10R 8600   6.425   6.735   9.437  1.5333 -1.1718  0.9167
   89SAPS  H10S 8601   6.302   6.659   9.327 -0.4770 -1.4334  1.2522
   89SAPS  C211 8602   6.518   6.646   9.275  0.0404 -0.4156 -0.4353
   89SAPS  H11R 8603   6.618   6.630   9.319  0.1708 -0.7351 -0.8438
   89SAPS  C212 8604   6.521   6.644   9.141  0.6291 -0.6798  0.0250
   89SAPS  H12R 8605   6.612   6.655   9.081  0.9716  0.8927  0.8166
   89SAPS  C213 8606   6.397   6.643   9.052  0.5968 -0.1819  0.0877
   89SAPS  H13R 8607   6.308   6.688   9.102  0.0996  0.6938 -1.5471
   89SAPS  H13S 8608   6.368   6.539   9.027  0.7096 -0.0078 -0.7590
   89SAPS  C214 8609   6.406   6.727   8.923 -0.8489 -0.9171  0.7431
   89SAPS  H14R 8610   6.435   6.832   8.940 -0.0762 -1.0323  0.1604
   89SAPS  C215 8611   6.374   6.680   8.793  0.8490  0.2568  0.4391
   89SAPS  H15R 8612   6.392   6.740   8.702 -0.0441  1.0904  0.8081
   89SAPS  C216 8613   6.318   6.553   8.749  0.2021  1.1630  0.4907
   89SAPS  H16R 8614   6.210   6.563   8.724  0.4630  0.0224 -1.1807
   89SAPS  H16S 8615   6.328   6.485   8.837  2.7501 -0.4412 -0.9785
   89SAPS  C217 8616   6.418   6.488   8.650 -0.0199 -0.1892  0.6930
   89SAPS  H17R 8617   6.396   6.380   8.658 -1.4660  0.0676  0.3374
   89SAPS  H17S 8618   6.525   6.499   8.680 -0.2479  2.9298  0.5863
   89SAPS  C218 8619   6.404   6.549   8.505 -0.1983 -0.0233  0.1242
   89SAPS  H18R 8620   6.453   6.479   8.434  1.3774  0.2950  0.8913
   89SAPS  H18S 8621   6.446   6.652   8.499 -1.0040  0.1987 -2.1390
   89SAPS  C219 8622   6.250   6.540   8.466 -0.5445 -0.2026 -0.1287
   89SAPS  H19R 8623   6.201   6.625   8.518 -1.4976 -0.1224 -1.1299
   89SAPS  H19S 8624   6.198   6.448   8.502  1.5327 -1.5005 -0.3807
   89SAPS  C220 8625   6.234   6.557   8.315 -0.5512  0.1839 -0.5495
   89SAPS  H20R 8626   6.276   6.659   8.298 -2.2152  0.8578 -0.6904
   89SAPS  H20S 8627   6.131   6.547   8.275 -1.5515  3.1348  1.1597
   89SAPS  H20T 8628   6.313   6.495   8.267 -0.9259  0.2470 -1.2537
   89SAPS   C33 8629   6.033   7.100  10.000  0.4541  0.3504 -1.0313
   89SAPS   H3X 8630   6.037   6.992   9.973 -0.8818 -0.6332  2.4541
   89SAPS   H3Y 8631   6.136   7.142  10.006  0.4176  0.1766  1.1018
   89SAPS   C34 8632   5.959   7.156   9.882 -0.4461  0.4730 -0.2771
   89SAPS   H4X 8633   5.942   7.266   9.886 -2.2776  0.2202 -0.6888
   89SAPS   H4Y 8634   5.857   7.113   9.894 -1.7105  2.8689 -2.1080
   89SAPS   C35 8635   6.035   7.124   9.750  0.5956 -0.1772  0.2426
   89SAPS   H5X 8636   6.020   7.024   9.705  1.0916  0.0504 -0.4308
   89SAPS   H5Y 8637   6.145   7.120   9.764  0.7049 -1.1023 -0.8236
   89SAPS   C36 8638   6.015   7.232   9.646  0.4092 -0.0147  0.1218
   89SAPS   H6X 8639   6.040   7.327   9.699 -0.2717  1.3059 -1.8400
   89SAPS   H6Y 8640   5.908   7.243   9.621 -0.5544 -0.9581  3.5604
   89SAPS   C37 8641   6.112   7.240   9.531  0.5691  0.6225 -0.0336
   89SAPS   H7X 8642   6.206   7.285   9.572  1.9376  0.3913 -2.8050
   89SAPS   H7Y 8643   6.096   7.305   9.442  0.8313  0.3515 -0.2786
   89SAPS   C38 8644   6.151   7.105   9.465 -0.2503  0.2618 -0.0698
   89SAPS   H8X 8645   6.184   7.022   9.532 -1.2945 -0.8323 -0.8797
   89SAPS   H8Y 8646   6.231   7.132   9.393  0.2379  1.3547  0.8664
   89SAPS   C39 8647   6.042   7.048   9.370 -0.0142  0.3193  0.2440
   89SAPS   H9X 8648   6.000   7.134   9.314  1.6400  0.9233 -0.1055
   89SAPS   H9Y 8649   5.965   6.995   9.429 -1.9423  2.7662  0.0036
   89SAPS  C310 8650   6.089   6.953   9.260 -0.0882 -0.6257 -0.1225
   89SAPS  H10X 8651   6.147   6.868   9.301 -3.0855 -2.6322  0.1885
   89SAPS  H10Y 8652   6.157   7.009   9.193 -1.3461 -1.5616 -2.2687
   89SAPS  C311 8653   5.983   6.903   9.175 -0.5378  0.2105 -0.4371
   89SAPS  H11X 8654   5.912   6.977   9.132 -2.9581 -0.2538  2.5618
   89SAPS  H11Y 8655   5.909   6.850   9.238 -0.9003 -0.5172 -1.4747
   89SAPS  C312 8656   6.027   6.813   9.061 -0.4065  0.2280  0.0537
   89SAPS  H12X 8657   6.061   6.717   9.105  0.7537  1.6482  2.3954
   89SAPS  H12Y 8658   6.110   6.858   9.003  1.0169 -0.1175  1.7787
   89SAPS  C313 8659   5.910   6.785   8.967  0.0439  0.2905  0.4435
   89SAPS  H13X 8660   5.866   6.878   8.924  0.4125 -0.7735 -2.3789
   89SAPS  H13Y 8661   5.830   6.741   9.030  0.8338 -1.8495 -0.0280
   89SAPS  C314 8662   5.947   6.685   8.861  0.1109 -0.7120 -0.0925
   89SAPS  H14X 8663   5.969   6.589   8.913 -1.9090 -0.5314  1.1359
   89SAPS  H14Y 8664   6.042   6.707   8.808 -0.1165 -0.8568 -0.5623
   89SAPS  C315 8665   5.837   6.653   8.756 -0.3859  0.0913  0.0843
   89SAPS  H15X 8666   5.806   6.755   8.724  0.2999  0.7404  1.4293
   89SAPS  H15Y 8667   5.750   6.600   8.801 -0.8692  0.3458 -0.5392
   89SAPS  C316 8668   5.891   6.565   8.640  0.4446 -0.8020 -0.1107
   89SAPS  H16X 8669   5.917   6.464   8.678  1.3262 -0.8014 -0.6882
   89SAPS  H16Y 8670   5.981   6.610   8.592 -0.4800 -0.3487 -1.4528
   89SAPS  C317 8671   5.784   6.534   8.535  0.1399 -0.0310 -0.3777
   89SAPS  H17X 8672   5.733   6.631   8.519 -1.0960 -0.7316 -0.8136
   89SAPS  H17Y 8673   5.714   6.453   8.567  1.8762 -1.8111 -0.9854
   89SAPS  C318 8674   5.834   6.494   8.401  0.1791 -0.1192 -0.0440
   89SAPS  H18X 8675   5.869   6.586   8.348  0.2516 -0.1754 -0.0947
   89SAPS  H18Y 8676   5.747   6.455   8.343 -0.1712  0.9007 -0.2219
   89SAPS  H18Z 8677   5.928   6.435   8.402  0.2730 -0.0122 -1.2924
   90SAPS     N 8678   1.625   6.163  11.028  0.0472  0.0292  0.4672
   90SAPS   HN1 8679   1.669   6.174  11.122  0.4343 -0.0629  0.2995
   90SAPS   HN2 8680   1.567   6.079  11.008 -0.3080  0.4453 -0.2725
   90SAPS   HN3 8681   1.702   6.164  10.957  1.6284 -2.4672  2.0367
   90SAPS   C12 8682   1.540   6.285  11.005  0.9794  0.1897  0.6229
   90SAPS  H12A 8683   1.460   6.278  11.076 -0.9078  1.4707 -1.3102
   90SAPS   C13 8684   1.607   6.429  11.024  0.4769 -0.0627 -0.8758
   90SAPS  O13A 8685   1.727   6.430  11.046 -0.2164 -0.7387  0.2521
   90SAPS  O13B 8686   1.539   6.535  11.008  0.2490 -0.0584  0.5204
   90SAPS   C11 8687   1.476   6.274  10.862 -0.2867 -0.2438 -0.3430
   90SAPS  H11A 8688   1.548   6.295  10.780 -2.2740 -2.0237 -2.6156
   90SAPS  H11B 8689   1.397   6.353  10.860 -1.9613 -1.7855  2.0459
   90SAPS     P 8690   1.278   6.131  10.775  0.4976  0.2104  0.1177
   90SAPS   O13 8691   1.265   5.985  10.741  0.0377 -0.4166  0.0621
   90SAPS   O14 8692   1.180   6.198  10.858 -1.3068 -0.2429  0.6100
   90SAPS   O12 8693   1.420   6.148  10.841 -0.2197 -0.0306  0.0094
   90SAPS   O11 8694   1.295   6.214  10.634  0.6482  0.0892  0.1778
   90SAPS    C1 8695   1.175   6.247  10.558 -0.2793 -0.1094  0.2681
   90SAPS    HA 8696   1.086   6.276  10.619 -0.7478 -1.5186  0.2676
   90SAPS    HB 8697   1.194   6.332  10.489 -1.3043 -0.2757 -0.2247
   90SAPS    C2 8698   1.136   6.121  10.462  0.5287  0.2692  0.2599
   90SAPS    HS 8699   1.097   6.038  10.525  1.0059  0.6123  1.0130
   90SAPS   O21 8700   1.249   6.084  10.378  0.1573  0.0707 -0.1510
   90SAPS   C21 8701   1.237   5.962  10.320  0.0203  0.2296 -0.2096
   90SAPS   O22 8702   1.145   5.881  10.339 -0.2095 -0.0969 -0.0324
   90SAPS   C22 8703   1.352   5.935  10.223 -0.7224 -0.2987  0.3428
   90SAPS   H2R 8704   1.345   6.010  10.142  0.3839  0.7295  1.1740
   90SAPS   H2S 8705   1.453   5.914  10.267 -0.3921 -0.4485 -0.4885
   90SAPS    C3 8706   1.017   6.163  10.372  0.0814 -0.1796 -0.2282
   90SAPS    HX 8707   0.932   6.173  10.443 -2.0952 -1.0378 -2.6144
   90SAPS    HY 8708   0.980   6.077  10.313 -2.0157  0.1169  0.6083
   90SAPS   O31 8709   1.031   6.284  10.300  0.1515  0.3947 -0.9911
   90SAPS   C31 8710   1.090   6.283  10.182 -0.3357  0.0821 -0.6805
   90SAPS   O32 8711   1.154   6.190  10.137  0.3489  0.4155 -0.0701
   90SAPS   C32 8712   1.063   6.416  10.109  0.1046  0.2596 -0.4821
   90SAPS   H2X 8713   1.084   6.499  10.180 -0.2249 -1.0725  1.2010
   90SAPS   H2Y 8714   0.956   6.410  10.080 -0.8799 -0.7171  3.1245
   90SAPS   C23 8715   1.338   5.789  10.156 -0.3675  0.2857  0.7795
   90SAPS   H3R 8716   1.246   5.784  10.094  0.8111  1.1794 -1.0616
   90SAPS   H3S 8717   1.341   5.704  10.228  1.2612 -1.5733 -1.4186
   90SAPS   C24 8718   1.453   5.770  10.050  0.4852 -0.6234 -0.1530
   90SAPS   H4R 8719   1.554   5.786  10.093  1.4948 -1.2425 -2.2393
   90SAPS   H4S 8720   1.438   5.859   9.985  1.6113 -0.0261  0.3946
   90SAPS   C25 8721   1.441   5.645   9.967  0.0521  0.7115 -0.3969
   90SAPS   H5R 8722   1.459   5.553  10.025 -1.8105  1.3111  1.1909
   90SAPS   C26 8723   1.414   5.642   9.830 -0.5059  0.1107  0.1242
   90SAPS   H6R 8724   1.414   5.544   9.779  0.0641  0.1022  0.1448
   90SAPS   C27 8725   1.363   5.759   9.750  0.5495  0.3846  0.4616
   90SAPS   H7R 8726   1.442   5.803   9.685  0.0764  0.0491 -0.3484
   90SAPS   H7S 8727   1.327   5.846   9.809 -1.0882  0.7044 -0.9805
   90SAPS   C28 8728   1.248   5.716   9.660  0.0006  0.7944 -0.5166
   90SAPS   H8R 8729   1.203   5.626   9.704  1.1328 -0.9327 -2.7175
   90SAPS   C29 8730   1.219   5.755   9.532  0.7696 -0.3499 -0.5258
   90SAPS   H9R 8731   1.125   5.711   9.495  1.0520 -2.5245  1.2361
   90SAPS  C210 8732   1.291   5.849   9.440  0.2780 -0.1218  0.3343
   90SAPS  H10R 8733   1.398   5.864   9.465  0.6364  0.1229 -1.3562
   90SAPS  H10S 8734   1.247   5.951   9.447 -1.3314 -0.7510 -0.2661
   90SAPS  C211 8735   1.278   5.801   9.292  0.4300 -0.1172  0.2364
   90SAPS  H11R 8736   1.351   5.722   9.270  1.0751 -0.0317  2.0115
   90SAPS  C212 8737   1.184   5.832   9.205  0.3309 -0.0919 -0.0728
   90SAPS  H12R 8738   1.196   5.801   9.101  0.3119 -0.7569  0.1190
   90SAPS  C213 8739   1.057   5.915   9.220 -0.3714 -0.3446 -0.2451
   90SAPS  H13R 8740   1.039   5.968   9.124  1.0958  0.7828  0.0832
   90SAPS  H13S 8741   1.091   5.995   9.289  0.2209  0.0363 -0.9705
   90SAPS  C214 8742   0.936   5.847   9.273  0.5000 -0.2235  0.9963
   90SAPS  H14R 8743   0.905   5.872   9.375 -0.8260 -0.3925  0.6504
   90SAPS  C215 8744   0.862   5.760   9.202  0.4488 -0.5154  0.6745
   90SAPS  H15R 8745   0.774   5.718   9.250 -0.1851  0.2236  0.1745
   90SAPS  C216 8746   0.891   5.721   9.057  0.2204 -0.0386  0.1098
   90SAPS  H16R 8747   0.994   5.678   9.054  1.0208  1.9326 -1.5097
   90SAPS  H16S 8748   0.879   5.810   8.991 -1.6307  0.4692  1.1228
   90SAPS  C217 8749   0.790   5.619   9.012 -0.3925  0.2032 -0.2960
   90SAPS  H17R 8750   0.682   5.644   9.025 -0.4228 -0.1243  0.0758
   90SAPS  H17S 8751   0.801   5.527   9.073  0.3816  0.8613  0.5574
   90SAPS  C218 8752   0.822   5.583   8.866  0.0142 -0.5003 -0.3776
   90SAPS  H18R 8753   0.910   5.516   8.862  0.3948  0.0475 -1.3204
   90SAPS  H18S 8754   0.835   5.677   8.809 -1.7569  1.3657  2.1484
   90SAPS  C219 8755   0.715   5.497   8.804 -0.1818  0.1394  0.3951
   90SAPS  H19R 8756   0.614   5.543   8.800  0.2148  1.1589  1.7515
   90SAPS  H19S 8757   0.705   5.392   8.841 -0.0306  0.8236  2.4265
   90SAPS  C220 8758   0.747   5.461   8.650  0.1292  0.0802 -0.1774
   90SAPS  H20R 8759   0.814   5.372   8.650  1.3376  0.9741  0.4318
   90SAPS  H20S 8760   0.795   5.546   8.598 -0.1200  0.0936 -0.3887
   90SAPS  H20T 8761   0.655   5.436   8.593 -0.5992 -0.0634  1.0307
   90SAPS   C33 8762   1.137   6.448   9.975 -0.1368  0.9320  0.2376
   90SAPS   H3X 8763   1.128   6.359   9.909 -2.1532  0.8293  0.6028
   90SAPS   H3Y 8764   1.245   6.462   9.995  0.4777 -0.7508 -1.6592
   90SAPS   C34 8765   1.091   6.565   9.887  0.3778  0.7159 -0.2606
   90SAPS   H4X 8766   1.075   6.663   9.938 -0.6589 -0.3912  1.6104
   90SAPS   H4Y 8767   0.985   6.545   9.862  0.6503 -0.8432 -0.1887
   90SAPS   C35 8768   1.178   6.575   9.757 -0.1199  0.7226  0.1038
   90SAPS   H5X 8769   1.190   6.480   9.701  0.9353  1.8612 -1.6493
   90SAPS   H5Y 8770   1.285   6.582   9.786  0.3981 -1.2611 -1.1660
   90SAPS   C36 8771   1.128   6.693   9.676 -0.4493  0.4263  0.1170
   90SAPS   H6X 8772   1.107   6.778   9.745 -2.4479  1.2101 -1.3793
   90SAPS   H6Y 8773   1.027   6.675   9.633  0.1241  1.9337 -1.9089
   90SAPS   C37 8774   1.219   6.748   9.570 -0.5036  0.4520  0.1647
   90SAPS   H7X 8775   1.317   6.776   9.614  0.4101 -0.4063 -1.2818
   90SAPS   H7Y 8776   1.179   6.846   9.535 -0.6255  0.0519 -0.8460
   90SAPS   C38 8777   1.242   6.644   9.452 -0.4794 -0.3000 -0.4041
   90SAPS   H8X 8778   1.150   6.583   9.447 -1.1647  0.6723  0.2366
   90SAPS   H8Y 8779   1.326   6.578   9.484  0.0718  1.5502  2.0782
   90SAPS   C39 8780   1.294   6.710   9.325 -0.0032  0.1181 -0.6607
   90SAPS   H9X 8781   1.337   6.622   9.272  1.1225  0.0826  0.2886
   90SAPS   H9Y 8782   1.380   6.778   9.342  0.9354 -1.1228 -0.3543
   90SAPS  C310 8783   1.188   6.773   9.243 -0.1656 -0.1324 -0.2515
   90SAPS  H10X 8784   1.153   6.854   9.310  0.3160  0.1237 -0.3104
   90SAPS  H10Y 8785   1.106   6.700   9.226 -1.1083  0.5594  1.2377
   90SAPS  C311 8786   1.225   6.813   9.102 -0.0960 -0.8550 -0.1713
   90SAPS  H11X 8787   1.142   6.871   9.056 -1.3653  0.6063  3.7006
   90SAPS  H11Y 8788   1.237   6.725   9.036 -3.2995 -0.2409 -1.6480
   90SAPS  C312 8789   1.344   6.911   9.102 -0.0336  0.1851  0.1729
   90SAPS  H12X 8790   1.430   6.866   9.156  1.6179  2.4971 -0.4327
   90SAPS  H12Y 8791   1.328   7.003   9.162  0.7794  0.8217 -0.5654
   90SAPS  C313 8792   1.400   6.961   8.963 -0.3768 -0.1475  0.0902
   90SAPS  H13X 8793   1.433   6.868   8.911  2.0248  1.0569 -0.6113
   90SAPS  H13Y 8794   1.488   7.024   8.988 -1.8527  2.1676 -0.4025
   90SAPS  C314 8795   1.301   7.040   8.881  0.1418 -0.4012 -0.1330
   90SAPS  H14X 8796   1.277   7.128   8.944 -0.6188  0.5581 -1.7191
   90SAPS  H14Y 8797   1.210   6.981   8.857  1.3209 -1.5696 -1.8521
   90SAPS  C315 8798   1.361   7.086   8.746 -0.1136 -0.0879 -0.0894
   90SAPS  H15X 8799   1.348   7.003   8.674 -1.3726 -2.5865  2.8557
   90SAPS  H15Y 8800   1.470   7.093   8.767  0.0840 -2.0247 -0.3905
   90SAPS  C316 8801   1.286   7.210   8.696  0.0770 -0.0953  0.3947
   90SAPS  H16X 8802   1.176   7.201   8.710  0.2635 -5.6009 -0.4334
   90SAPS  H16Y 8803   1.302   7.228   8.588  0.2966 -0.1643  0.4152
   90SAPS  C317 8804   1.339   7.331   8.761  0.0328 -0.4225 -0.2774
   90SAPS  H17X 8805   1.449   7.338   8.755  0.1301 -1.9883 -0.5733
   90SAPS  H17Y 8806   1.308   7.332   8.868 -1.3653 -2.0287 -0.6468
   90SAPS  C318 8807   1.291   7.462   8.695 -0.2345 -0.2740 -0.0136
   90SAPS  H18X 8808   1.347   7.549   8.734 -0.0868 -0.8765  1.1449
   90SAPS  H18Y 8809   1.181   7.471   8.704 -0.6426 -2.2389 -2.4513
   90SAPS  H18Z 8810   1.314   7.467   8.586 -0.8487  2.9407 -0.0262
   91SAPS     N 8811   5.911   4.486   5.953 -0.0965  0.4847 -0.0678
   91SAPS   HN1 8812   5.909   4.387   5.984  1.8721  0.6556  0.6614
   91SAPS   HN2 8813   5.899   4.485   5.849  2.8249 -1.3233 -0.4190
   91SAPS   HN3 8814   6.009   4.517   5.970  0.2234 -0.9113  0.7047
   91SAPS   C12 8815   5.823   4.585   6.023  0.2886 -0.1242 -0.0297
   91SAPS  H12A 8816   5.871   4.600   6.118  2.1409 -0.2021 -0.9144
   91SAPS   C13 8817   5.806   4.724   5.953  0.6043  0.3021 -0.3837
   91SAPS  O13A 8818   5.844   4.747   5.840  0.2060 -0.1982 -0.9557
   91SAPS  O13B 8819   5.739   4.811   6.020 -0.7697  0.6465 -0.0495
   91SAPS   C11 8820   5.688   4.516   6.037  0.7252 -0.5831  0.3689
   91SAPS  H11A 8821   5.624   4.524   5.947 -1.5381  0.3368  2.0064
   91SAPS  H11B 8822   5.630   4.564   6.119  0.4513 -0.2364 -0.0284
   91SAPS     P 8823   5.563   4.287   6.041  0.4584 -0.0818 -0.0384
   91SAPS   O13 8824   5.440   4.366   6.062 -0.0989 -0.0985 -0.8464
   91SAPS   O14 8825   5.578   4.221   5.915 -0.2032 -0.1537  0.0310
   91SAPS   O12 8826   5.696   4.373   6.073 -0.1311  0.1301 -0.1028
   91SAPS   O11 8827   5.563   4.174   6.150  0.5642 -1.0427 -0.1140
   91SAPS    C1 8828   5.680   4.104   6.185 -0.1588  0.4807 -0.3341
   91SAPS    HA 8829   5.652   3.997   6.179  1.8305 -0.0367 -0.8825
   91SAPS    HB 8830   5.770   4.131   6.125  1.6676 -0.9984  1.6637
   91SAPS    C2 8831   5.734   4.136   6.323 -0.1105  0.2710  0.0437
   91SAPS    HS 8832   5.828   4.078   6.333  1.0047  2.3635  1.9818
   91SAPS   O21 8833   5.635   4.109   6.426  0.3030 -0.1982  0.2512
   91SAPS   C21 8834   5.621   3.983   6.455  0.1785  0.5638 -0.2091
   91SAPS   O22 8835   5.686   3.889   6.406 -0.2518 -0.2262 -0.4428
   91SAPS   C22 8836   5.509   3.966   6.549 -0.0689  0.2422 -0.2458
   91SAPS   H2R 8837   5.416   4.016   6.514 -0.6191 -2.3868 -2.7445
   91SAPS   H2S 8838   5.492   3.860   6.578  2.8313 -0.2949 -0.3461
   91SAPS    C3 8839   5.785   4.281   6.341 -0.0632 -0.3421  0.4692
   91SAPS    HX 8840   5.712   4.361   6.315  3.2978  2.7946  0.3075
   91SAPS    HY 8841   5.868   4.302   6.271 -0.6551  0.1383 -0.1056
   91SAPS   O31 8842   5.844   4.308   6.467 -0.0652  0.0501 -0.4340
   91SAPS   C31 8843   5.760   4.344   6.570 -0.1256 -0.1678 -0.3112
   91SAPS   O32 8844   5.643   4.368   6.561 -0.1714  0.1351 -0.2728
   91SAPS   C32 8845   5.835   4.339   6.700 -0.9949 -0.0375 -0.1566
   91SAPS   H2X 8846   5.918   4.410   6.684 -1.4869  0.4703 -0.4672
   91SAPS   H2Y 8847   5.876   4.237   6.718 -1.2739  0.1432  1.5575
   91SAPS   C23 8848   5.538   4.050   6.683  0.1326  0.3288 -0.0009
   91SAPS   H3R 8849   5.443   4.058   6.741  0.1398 -0.3915  0.1161
   91SAPS   H3S 8850   5.559   4.154   6.652 -1.0335  0.4632 -0.3885
   91SAPS   C24 8851   5.648   3.996   6.776 -0.3014  0.0312 -0.1303
   91SAPS   H4R 8852   5.682   4.082   6.838 -0.5946 -0.4114  0.6526
   91SAPS   H4S 8853   5.739   3.963   6.721 -0.0754 -1.8298  1.3073
   91SAPS   C25 8854   5.597   3.877   6.854 -0.1632  0.3114  0.2017
   91SAPS   H5R 8855   5.594   3.780   6.801  0.6945  0.7203 -0.6285
   91SAPS   C26 8856   5.563   3.880   6.983 -0.0406 -0.0102  0.5141
   91SAPS   H6R 8857   5.558   3.785   7.038  2.6896 -2.2390 -2.9074
   91SAPS   C27 8858   5.574   3.998   7.077  0.6119  0.6460  0.0444
   91SAPS   H7R 8859   5.596   4.096   7.030  0.7225  0.8398  0.4967
   91SAPS   H7S 8860   5.660   3.972   7.144 -0.2851  0.4171  1.1222
   91SAPS   C28 8861   5.440   4.016   7.146 -0.3224 -0.5094 -0.3291
   91SAPS   H8R 8862   5.346   4.017   7.089 -0.6901 -1.0733  0.2649
   91SAPS   C29 8863   5.438   4.023   7.282  0.1759  0.2750 -0.4382
   91SAPS   H9R 8864   5.343   4.022   7.337  0.7491 -2.8895  0.5910
   91SAPS  C210 8865   5.550   4.014   7.383  0.2613 -0.0108 -0.0956
   91SAPS  H10R 8866   5.561   4.110   7.439  0.2915  1.6510 -2.8831
   91SAPS  H10S 8867   5.646   4.005   7.329  1.7201  2.0213  2.0359
   91SAPS  C211 8868   5.536   3.901   7.488  0.3527  0.7141 -0.5649
   91SAPS  H11R 8869   5.576   3.805   7.451 -1.1412 -0.3400  0.5080
   91SAPS  C212 8870   5.495   3.920   7.614 -0.5373  0.3164  0.3220
   91SAPS  H12R 8871   5.508   3.835   7.682  0.8493 -1.2802 -1.8999
   91SAPS  C213 8872   5.451   4.047   7.672 -0.0943  0.2693  0.3690
   91SAPS  H13R 8873   5.415   4.123   7.599 -1.0039 -0.7156 -0.2205
   91SAPS  H13S 8874   5.540   4.098   7.715  0.9139  0.2516 -1.6703
   91SAPS  C214 8875   5.336   4.033   7.767 -0.3632  0.1630 -0.4051
   91SAPS  H14R 8876   5.234   4.037   7.729 -0.0114  3.0397 -1.1867
   91SAPS  C215 8877   5.354   4.019   7.904  0.0248  0.5612  0.9004
   91SAPS  H15R 8878   5.266   4.009   7.969 -1.0696 -0.5149 -0.7272
   91SAPS  C216 8879   5.479   4.009   7.977  0.9594  0.0889  0.2524
   91SAPS  H16R 8880   5.568   3.999   7.911  0.5124  0.1154 -0.3559
   91SAPS  H16S 8881   5.477   3.924   8.049  3.3378 -0.4883 -0.3066
   91SAPS  C217 8882   5.527   4.135   8.050  0.1694  0.6016 -0.6100
   91SAPS  H17R 8883   5.537   4.225   7.986 -1.5527  2.1354  1.2022
   91SAPS  H17S 8884   5.632   4.126   8.086 -0.8969  0.3312  2.6187
   91SAPS  C218 8885   5.440   4.170   8.170  0.1550 -0.5363  0.5851
   91SAPS  H18R 8886   5.424   4.074   8.223  0.7991 -0.8040  0.2991
   91SAPS  H18S 8887   5.342   4.206   8.130 -0.8999 -1.9524  1.8306
   91SAPS  C219 8888   5.500   4.282   8.258 -0.7256  0.1408 -0.5011
   91SAPS  H19R 8889   5.544   4.360   8.193  1.3090 -2.1108 -1.8936
   91SAPS  H19S 8890   5.587   4.233   8.306 -0.6027 -1.3532 -2.1853
   91SAPS  C220 8891   5.407   4.352   8.358 -0.2301  0.0637 -0.0392
   91SAPS  H20R 8892   5.335   4.414   8.302  0.0897 -0.5370 -1.1250
   91SAPS  H20S 8893   5.475   4.410   8.425 -0.7355 -2.4365  2.7349
   91SAPS  H20T 8894   5.357   4.283   8.429 -0.1245  0.4598  0.4299
   91SAPS   C33 8895   5.760   4.383   6.829  0.4376  0.2504  0.0087
   91SAPS   H3X 8896   5.667   4.324   6.844  0.0301  0.8741 -0.0937
   91SAPS   H3Y 8897   5.721   4.486   6.819 -0.7660 -0.3213 -1.3407
   91SAPS   C34 8898   5.840   4.367   6.957 -0.9554 -0.3140  0.5474
   91SAPS   H4X 8899   5.930   4.431   6.951 -0.9604 -0.5581 -4.6260
   91SAPS   H4Y 8900   5.861   4.258   6.955 -2.0074 -0.5106 -0.5652
   91SAPS   C35 8901   5.766   4.410   7.085  0.4645 -0.4893 -0.3956
   91SAPS   H5X 8902   5.661   4.397   7.050  0.7896 -2.7410 -0.6387
   91SAPS   H5Y 8903   5.787   4.519   7.091  1.8648 -0.8306  1.1121
   91SAPS   C36 8904   5.797   4.333   7.210  0.6886 -0.4600 -0.0527
   91SAPS   H6X 8905   5.901   4.355   7.243  0.4490 -1.1769  1.1748
   91SAPS   H6Y 8906   5.785   4.224   7.195  1.4635 -0.5370 -0.1658
   91SAPS   C37 8907   5.707   4.390   7.323 -0.2622 -0.3135  0.2788
   91SAPS   H7X 8908   5.603   4.359   7.302 -0.8675  1.2106  0.9670
   91SAPS   H7Y 8909   5.705   4.501   7.332  2.5845 -0.2619  1.0496
   91SAPS   C38 8910   5.748   4.339   7.464 -0.3512 -0.2483  0.2069
   91SAPS   H8X 8911   5.851   4.380   7.470 -0.0420 -1.0167  0.1786
   91SAPS   H8Y 8912   5.754   4.230   7.480  0.7923 -0.1020  0.9039
   91SAPS   C39 8913   5.645   4.400   7.565  0.1157  0.3073 -0.2771
   91SAPS   H9X 8914   5.547   4.359   7.535 -0.8391  1.5754  1.0366
   91SAPS   H9Y 8915   5.638   4.509   7.545  1.4714 -0.0404 -2.8222
   91SAPS  C310 8916   5.688   4.368   7.708  0.0163 -0.2094  0.6606
   91SAPS  H10X 8917   5.791   4.405   7.724 -0.9787  1.3374  4.0092
   91SAPS  H10Y 8918   5.680   4.259   7.723 -0.6833  0.1562  3.3562
   91SAPS  C311 8919   5.589   4.423   7.821 -0.2024 -0.7717 -0.4370
   91SAPS  H11X 8920   5.631   4.415   7.923  1.1875 -0.8604 -1.0101
   91SAPS  H11Y 8921   5.506   4.349   7.823  0.7912 -1.8874  1.7029
   91SAPS  C312 8922   5.539   4.571   7.812  0.6027 -0.4838  0.5492
   91SAPS  H12X 8923   5.485   4.588   7.716  4.5143 -1.5061 -1.9497
   91SAPS  H12Y 8924   5.634   4.630   7.810  1.6851 -2.1774  1.3084
   91SAPS  C313 8925   5.456   4.628   7.928  0.1675 -0.1270 -0.2227
   91SAPS  H13X 8926   5.507   4.623   8.027 -0.0641 -1.0984 -0.1445
   91SAPS  H13Y 8927   5.367   4.562   7.937  0.1327  0.1508  1.6231
   91SAPS  C314 8928   5.424   4.776   7.906  0.2499  0.2777 -0.5144
   91SAPS  H14X 8929   5.347   4.795   7.984 -2.4699 -1.3166 -2.7073
   91SAPS  H14Y 8930   5.381   4.785   7.804 -3.9590 -0.0835  1.1090
   91SAPS  C315 8931   5.546   4.867   7.931 -0.4956 -0.4004  0.0635
   91SAPS  H15X 8932   5.624   4.857   7.853 -1.3784  1.5142 -1.0964
   91SAPS  H15Y 8933   5.604   4.848   8.025  0.9456  1.0809 -0.4957
   91SAPS  C316 8934   5.505   5.015   7.921  0.5238  0.3511 -0.0693
   91SAPS  H16X 8935   5.450   5.044   8.013 -0.2542 -3.3272  0.7098
   91SAPS  H16Y 8936   5.430   5.035   7.841  0.8260  2.0048  0.0464
   91SAPS  C317 8937   5.626   5.107   7.900  0.2516  0.4644  0.1199
   91SAPS  H17X 8938   5.685   5.061   7.817  1.5116  0.4705  1.0068
   91SAPS  H17Y 8939   5.681   5.108   7.996 -1.8763 -2.1606  1.4359
   91SAPS  C318 8940   5.589   5.245   7.874 -0.1724 -0.6053 -0.0463
   91SAPS  H18X 8941   5.512   5.284   7.945  1.7635  3.5354 -0.0630
   91SAPS  H18Y 8942   5.535   5.270   7.781 -1.4918 -0.8107  0.6429
   91SAPS  H18Z 8943   5.676   5.312   7.890  0.0207 -0.9037  0.1720
   92SAPS     N 8944   4.152   2.363   6.369 -0.6959 -0.4902  0.3368
   92SAPS   HN1 8945   4.134   2.407   6.276  1.9255  0.7773  0.3966
   92SAPS   HN2 8946   4.062   2.329   6.408 -1.4510 -0.4371 -1.3141
   92SAPS   HN3 8947   4.190   2.435   6.433  0.1920  0.5866 -1.3812
   92SAPS   C12 8948   4.260   2.262   6.341  0.0382  0.6187  0.5834
   92SAPS  H12A 8949   4.302   2.226   6.433 -0.5661 -0.6846  0.3758
   92SAPS   C13 8950   4.200   2.137   6.272  0.1296  0.3662 -0.2672
   92SAPS  O13A 8951   4.078   2.134   6.227  0.1023  0.9223  0.0934
   92SAPS  O13B 8952   4.272   2.035   6.262 -0.3213  0.1881  0.2213
   92SAPS   C11 8953   4.376   2.327   6.259 -0.3607  0.4303  0.2078
   92SAPS  H11A 8954   4.350   2.355   6.154  2.0122  0.3870 -0.4256
   92SAPS  H11B 8955   4.440   2.236   6.259  0.1966  0.8150  0.5200
   92SAPS     P 8956   4.579   2.408   6.412  0.2197 -0.0404 -0.3218
   92SAPS   O13 8957   4.676   2.351   6.320 -0.3214 -0.0215  0.0926
   92SAPS   O14 8958   4.628   2.530   6.480  0.7648  0.2905  0.5266
   92SAPS   O12 8959   4.442   2.444   6.327 -0.7986  0.1216 -0.0687
   92SAPS   O11 8960   4.526   2.301   6.520 -0.4443 -0.9440  0.0951
   92SAPS    C1 8961   4.609   2.187   6.560 -0.3839 -0.2795  0.1530
   92SAPS    HA 8962   4.657   2.136   6.474  1.4462 -1.3698  1.7747
   92SAPS    HB 8963   4.693   2.222   6.624 -0.4989  1.2806 -0.5356
   92SAPS    C2 8964   4.519   2.083   6.634 -0.5457 -0.1586 -0.3039
   92SAPS    HS 8965   4.449   2.042   6.558  0.9506 -1.5640 -0.9469
   92SAPS   O21 8966   4.449   2.164   6.738  0.4378  0.3410  0.6460
   92SAPS   C21 8967   4.363   2.091   6.814  0.5585 -0.4108 -0.4200
   92SAPS   O22 8968   4.330   1.976   6.798  0.3133  0.1506 -0.1731
   92SAPS   C22 8969   4.327   2.175   6.935  0.2588 -0.7233 -0.3494
   92SAPS   H2R 8970   4.369   2.277   6.920 -1.7865  0.2357  0.2512
   92SAPS   H2S 8971   4.217   2.177   6.942  0.3074  0.4574  0.0966
   92SAPS    C3 8972   4.602   1.963   6.685  0.0539  0.1078  0.0159
   92SAPS    HX 8973   4.654   1.925   6.594 -0.2601 -0.0476 -0.0993
   92SAPS    HY 8974   4.537   1.877   6.710 -1.3462  0.9243 -0.7636
   92SAPS   O31 8975   4.693   1.999   6.796  0.0420  0.1146  0.4662
   92SAPS   C31 8976   4.796   1.924   6.815 -0.5004 -0.3725  0.5034
   92SAPS   O32 8977   4.815   1.819   6.751 -0.0096  0.2365  0.1672
   92SAPS   C32 8978   4.885   1.970   6.930  0.3199 -0.5015 -0.4139
   92SAPS   H2X 8979   4.903   2.079   6.936  0.6611 -0.5343 -0.8495
   92SAPS   H2Y 8980   4.981   1.916   6.917  0.9818 -0.2038  2.7110
   92SAPS   C23 8981   4.363   2.095   7.064  0.0334 -0.3294  0.0082
   92SAPS   H3R 8982   4.350   1.986   7.048 -1.6612 -0.1279 -0.0720
   92SAPS   H3S 8983   4.299   2.129   7.149  1.8824  1.6257  0.6643
   92SAPS   C24 8984   4.503   2.116   7.115 -0.0106 -0.4213 -0.2755
   92SAPS   H4R 8985   4.576   2.074   7.042  2.5651 -1.2658  2.6826
   92SAPS   H4S 8986   4.522   2.049   7.202  0.0616  0.0542  0.0738
   92SAPS   C25 8987   4.540   2.256   7.146  0.3773 -0.8141 -0.3226
   92SAPS   H5R 8988   4.546   2.324   7.059  0.3672 -2.6252 -1.7761
   92SAPS   C26 8989   4.561   2.306   7.268  0.1184  0.4162  0.4803
   92SAPS   H6R 8990   4.585   2.414   7.268  0.1519  0.4064  0.9011
   92SAPS   C27 8991   4.549   2.238   7.402 -0.3491 -0.1507 -0.2595
   92SAPS   H7R 8992   4.649   2.203   7.437 -0.3353 -0.3498 -0.4904
   92SAPS   H7S 8993   4.486   2.147   7.398  0.1401 -0.5835  1.3283
   92SAPS   C28 8994   4.488   2.321   7.512  0.1957  0.2084  0.3482
   92SAPS   H8R 8995   4.384   2.354   7.500  0.9163  2.9943  1.3484
   92SAPS   C29 8996   4.555   2.359   7.622  0.2435  0.4977 -0.5893
   92SAPS   H9R 8997   4.505   2.437   7.682 -1.4890  0.4547 -1.9309
   92SAPS  C210 8998   4.697   2.331   7.663 -0.1930  0.0133  0.3117
   92SAPS  H10R 8999   4.763   2.287   7.586  0.4156  0.7793  0.3856
   92SAPS  H10S 9000   4.684   2.248   7.736 -0.2009  1.1453  1.6317
   92SAPS  C211 9001   4.772   2.444   7.725 -1.1129  0.4279 -0.9029
   92SAPS  H11R 9002   4.813   2.517   7.654 -0.8466  1.5233  0.3464
   92SAPS  C212 9003   4.790   2.455   7.857  0.6236  0.5893  0.2792
   92SAPS  H12R 9004   4.845   2.544   7.890  3.2208 -1.1239  0.7242
   92SAPS  C213 9005   4.731   2.371   7.969 -0.1847  0.8761 -0.2009
   92SAPS  H13R 9006   4.683   2.276   7.938 -0.1895 -0.2123  2.9242
   92SAPS  H13S 9007   4.639   2.421   8.005 -1.3982 -1.4976  0.0591
   92SAPS  C214 9008   4.818   2.322   8.083  0.4326  0.6299 -0.1220
   92SAPS  H14R 9009   4.908   2.262   8.062 -0.8770 -1.7628  0.9271
   92SAPS  C215 9010   4.797   2.336   8.219 -0.5966 -0.4146 -0.1303
   92SAPS  H15R 9011   4.855   2.278   8.292 -2.4868 -1.7027  0.3815
   92SAPS  C216 9012   4.678   2.410   8.284 -0.0327  0.0912  0.8083
   92SAPS  H16R 9013   4.598   2.407   8.207  1.6845 -0.5612 -0.9966
   92SAPS  H16S 9014   4.702   2.514   8.316  0.0445 -0.4197  2.4371
   92SAPS  C217 9015   4.618   2.335   8.398 -0.9859  0.2240 -1.0799
   92SAPS  H17R 9016   4.686   2.335   8.486  0.5209  0.2686 -2.2281
   92SAPS  H17S 9017   4.621   2.228   8.368 -0.1768 -0.1657  0.3442
   92SAPS  C218 9018   4.468   2.374   8.431 -0.1684 -0.6824  0.5978
   92SAPS  H18R 9019   4.409   2.371   8.337 -1.6367  0.4897  1.4536
   92SAPS  H18S 9020   4.447   2.466   8.489  0.8097 -0.8965  1.3175
   92SAPS  C219 9021   4.398   2.258   8.512  0.7074  0.5046  0.7865
   92SAPS  H19R 9022   4.436   2.248   8.616  2.0028 -2.1512  0.1157
   92SAPS  H19S 9023   4.416   2.171   8.445 -0.4195  0.2206  0.8324
   92SAPS  C220 9024   4.243   2.284   8.528  0.1755 -0.5046 -1.0808
   92SAPS  H20R 9025   4.208   2.343   8.440 -1.7518 -1.0334 -0.6852
   92SAPS  H20S 9026   4.213   2.335   8.621  2.9057  0.1591 -0.5188
   92SAPS  H20T 9027   4.185   2.189   8.527 -1.0348  0.2261 -0.4521
   92SAPS   C33 9028   4.832   1.933   7.069 -0.7805 -0.4788  0.0267
   92SAPS   H3X 9029   4.804   1.829   7.098 -0.0096 -0.7918 -0.3431
   92SAPS   H3Y 9030   4.761   2.011   7.104  1.6061  0.9240  1.8929
   92SAPS   C34 9031   4.958   1.941   7.164 -0.2924  0.4632  0.5990
   92SAPS   H4X 9032   5.002   2.043   7.159 -0.8649  0.6480 -0.7925
   92SAPS   H4Y 9033   5.029   1.868   7.119 -3.2810 -2.0446 -0.2078
   92SAPS   C35 9034   4.933   1.900   7.309 -0.0560  0.2185  0.0119
   92SAPS   H5X 9035   4.918   1.790   7.309  0.6134  0.1178  0.9503
   92SAPS   H5Y 9036   4.841   1.957   7.332 -1.8874 -0.2029 -5.5884
   92SAPS   C36 9037   5.038   1.954   7.400  0.6136 -0.4504 -0.1332
   92SAPS   H6X 9038   5.075   2.052   7.365  0.7573 -0.9195 -1.3467
   92SAPS   H6Y 9039   5.129   1.891   7.389  1.5370  0.7440  0.5135
   92SAPS   C37 9040   4.981   1.956   7.546 -0.5036  0.1081 -0.3679
   92SAPS   H7X 9041   4.965   1.852   7.584  0.8642 -0.1116 -0.3549
   92SAPS   H7Y 9042   4.886   2.014   7.550 -0.6274 -0.2069  2.0904
   92SAPS   C38 9043   5.065   2.020   7.655 -0.5242 -0.1822  0.4647
   92SAPS   H8X 9044   5.039   2.128   7.662 -3.3217 -0.8649  1.6469
   92SAPS   H8Y 9045   5.173   2.015   7.630 -0.7131  0.0250 -0.4261
   92SAPS   C39 9046   5.061   1.941   7.789 -0.0283 -0.3192 -0.6359
   92SAPS   H9X 9047   5.085   1.833   7.786  0.4696 -0.2526  0.6341
   92SAPS   H9Y 9048   4.961   1.954   7.834  0.3734  0.0454  0.1596
   92SAPS  C310 9049   5.173   2.001   7.876  0.9197 -0.4721  0.5158
   92SAPS  H10X 9050   5.162   2.110   7.892  0.9899 -0.0349 -2.1205
   92SAPS  H10Y 9051   5.270   1.982   7.824 -0.5814 -1.6101 -1.9362
   92SAPS  C311 9052   5.175   1.917   8.012 -0.1320  0.7840 -0.3812
   92SAPS  H11X 9053   5.222   1.819   7.988 -2.2661 -0.3832  0.0999
   92SAPS  H11Y 9054   5.073   1.902   8.053 -0.6063  0.8214 -1.5400
   92SAPS  C312 9055   5.256   1.985   8.115  0.3206  0.1248  0.2437
   92SAPS  H12X 9056   5.192   2.071   8.145  0.8688  0.5227  0.2703
   92SAPS  H12Y 9057   5.356   2.013   8.075  0.7984  1.4685  2.3254
   92SAPS  C313 9058   5.272   1.907   8.245 -0.1388  0.6330 -0.2704
   92SAPS  H13X 9059   5.308   1.805   8.222 -1.5194 -0.1543  1.0085
   92SAPS  H13Y 9060   5.177   1.898   8.303 -0.7411 -2.2069 -1.6387
   92SAPS  C314 9061   5.382   1.978   8.337  0.0359  0.1065  0.4671
   92SAPS  H14X 9062   5.363   2.085   8.358  1.9103  0.5652 -0.0808
   92SAPS  H14Y 9063   5.471   1.983   8.271  0.0974  1.3349  0.6371
   92SAPS  C315 9064   5.412   1.900   8.459  0.5269  0.2691 -0.7049
   92SAPS  H15X 9065   5.433   1.797   8.423 -1.5398 -0.6940  0.7247
   92SAPS  H15Y 9066   5.330   1.914   8.533  0.6642 -0.9857 -0.3022
   92SAPS  C316 9067   5.543   1.963   8.508 -0.6756  0.0508  0.3011
   92SAPS  H16X 9068   5.529   2.073   8.507 -0.3176  0.0907 -0.6567
   92SAPS  H16Y 9069   5.624   1.938   8.436 -1.3708 -0.1788 -0.4070
   92SAPS  C317 9070   5.590   1.924   8.648 -0.4735  0.1018 -0.3086
   92SAPS  H17X 9071   5.694   1.956   8.670 -0.3366 -0.9582  0.6286
   92SAPS  H17Y 9072   5.592   1.813   8.658  0.6493  0.1874  0.5150
   92SAPS  C318 9073   5.499   1.980   8.765 -0.0906  0.2344 -0.2370
   92SAPS  H18X 9074   5.540   1.954   8.865 -0.2299  0.1288 -0.2074
   92SAPS  H18Y 9075   5.395   1.945   8.750  0.0412  0.0998 -0.8597
   92SAPS  H18Z 9076   5.499   2.091   8.755  2.7869  0.4004  1.0295
   93SAPS     N 9077   5.874   2.074   6.346 -0.2673  0.2459  0.0239
   93SAPS   HN1 9078   5.963   2.076   6.293  0.4523  2.2789  1.2691
   93SAPS   HN2 9079   5.892   2.066   6.448 -0.9492  0.2107  0.1503
   93SAPS   HN3 9080   5.821   1.986   6.329 -1.7740  0.9153  1.1294
   93SAPS   C12 9081   5.783   2.193   6.309 -0.1339  0.4275 -0.2450
   93SAPS  H12A 9082   5.822   2.284   6.351  0.9899 -0.0215 -0.3159
   93SAPS   C13 9083   5.765   2.224   6.160  0.0699 -0.7563  0.1409
   93SAPS  O13A 9084   5.810   2.142   6.075  0.2169 -0.0278 -0.2355
   93SAPS  O13B 9085   5.691   2.317   6.128  0.1234  0.1488  0.1176
   93SAPS   C11 9086   5.637   2.155   6.369  0.4027 -0.4843 -0.0799
   93SAPS  H11A 9087   5.606   2.067   6.308  1.7774 -1.5592  0.7537
   93SAPS  H11B 9088   5.560   2.231   6.346 -1.4598 -2.6642 -1.2982
   93SAPS     P 9089   5.632   2.243   6.624  0.2961  0.1279  0.0163
   93SAPS   O13 9090   5.700   2.192   6.745 -0.5748  0.5854 -0.5104
   93SAPS   O14 9091   5.686   2.371   6.574 -0.3815 -0.2115  0.2151
   93SAPS   O12 9092   5.645   2.133   6.514  0.4874 -0.2826  0.7388
   93SAPS   O11 9093   5.473   2.261   6.647  0.4524 -0.2777 -0.1598
   93SAPS    C1 9094   5.390   2.149   6.681  0.3761 -0.3366 -0.0813
   93SAPS    HA 9095   5.322   2.120   6.598  1.2295 -0.7042 -0.6678
   93SAPS    HB 9096   5.453   2.057   6.687  2.1403  0.8690  0.3925
   93SAPS    C2 9097   5.317   2.164   6.820 -0.3889 -0.3264  0.5596
   93SAPS    HS 9098   5.237   2.241   6.808 -1.9074 -2.2643 -2.3650
   93SAPS   O21 9099   5.417   2.206   6.917 -0.1737  0.9227 -0.6054
   93SAPS   C21 9100   5.424   2.334   6.955  0.2432  0.1497 -0.0412
   93SAPS   O22 9101   5.337   2.418   6.942 -0.0295  0.1108  0.1357
   93SAPS   C22 9102   5.550   2.358   7.039 -0.2026 -0.1952  0.2583
   93SAPS   H2R 9103   5.628   2.282   7.016 -0.2100 -0.4247  0.9625
   93SAPS   H2S 9104   5.591   2.459   7.019 -1.4841  0.5994  1.5057
   93SAPS    C3 9105   5.248   2.031   6.849  0.6696  0.3609 -0.7139
   93SAPS    HX 9106   5.189   2.003   6.759  0.3185 -1.8384  0.1779
   93SAPS    HY 9107   5.168   2.044   6.925 -1.3043 -2.5581 -2.1885
   93SAPS   O31 9108   5.345   1.929   6.883 -0.1207  0.1538  0.4096
   93SAPS   C31 9109   5.296   1.805   6.913 -0.6243  0.2083  0.0218
   93SAPS   O32 9110   5.179   1.776   6.901  0.9195 -0.0722 -0.2920
   93SAPS   C32 9111   5.407   1.708   6.940 -0.0972 -0.7713  0.5715
   93SAPS   H2X 9112   5.508   1.743   6.909 -1.8481  1.6970 -2.7252
   93SAPS   H2Y 9113   5.393   1.612   6.886  0.9902 -2.5378  3.3526
   93SAPS   C23 9114   5.534   2.351   7.192  0.5429  0.1681 -0.1373
   93SAPS   H3R 9115   5.624   2.306   7.239  0.2991 -0.2382 -0.0647
   93SAPS   H3S 9116   5.444   2.292   7.220 -0.2107  1.1739 -0.3873
   93SAPS   C24 9117   5.537   2.488   7.267 -0.1043  0.2095  0.2933
   93SAPS   H4R 9118   5.639   2.532   7.255  0.5377 -0.6610  2.2278
   93SAPS   H4S 9119   5.518   2.467   7.374 -0.8052 -1.2036 -0.0974
   93SAPS   C25 9120   5.441   2.599   7.221 -0.5263 -0.4011 -0.0614
   93SAPS   H5R 9121   5.380   2.582   7.130 -0.3854 -0.5451 -0.1292
   93SAPS   C26 9122   5.420   2.702   7.302  0.4516 -0.4867  0.5485
   93SAPS   H6R 9123   5.357   2.784   7.263 -0.7674 -2.0391 -0.8019
   93SAPS   C27 9124   5.484   2.731   7.430  0.0726  0.5513  0.4205
   93SAPS   H7R 9125   5.518   2.836   7.422  0.7186  0.0974 -4.0336
   93SAPS   H7S 9126   5.582   2.682   7.447  0.5289  1.4888  0.5249
   93SAPS   C28 9127   5.395   2.700   7.545 -0.3096 -0.0547  1.3020
   93SAPS   H8R 9128   5.361   2.595   7.549 -1.0252  0.0254 -1.8150
   93SAPS   C29 9129   5.363   2.781   7.650  0.3063 -0.2201  0.0711
   93SAPS   H9R 9130   5.309   2.740   7.737  0.4687 -0.5583  0.0135
   93SAPS  C210 9131   5.415   2.921   7.657 -0.4702  0.5237 -0.0086
   93SAPS  H10R 9132   5.448   2.967   7.561 -0.6108  0.4578 -0.0889
   93SAPS  H10S 9133   5.505   2.919   7.722 -0.7421  0.5391  0.3667
   93SAPS  C211 9134   5.316   3.016   7.713 -0.3795  0.2165 -0.8648
   93SAPS  H11R 9135   5.245   3.058   7.641 -2.3948  1.6448  1.8823
   93SAPS  C212 9136   5.297   3.066   7.839  0.0788 -0.0427 -0.2090
   93SAPS  H12R 9137   5.220   3.142   7.856  0.6887  0.3316  0.9119
   93SAPS  C213 9138   5.372   3.039   7.966 -0.1871  0.2221 -0.1094
   93SAPS  H13R 9139   5.442   3.120   7.996  0.5446  0.6052 -2.7122
   93SAPS  H13S 9140   5.441   2.953   7.956 -0.6935 -0.2206  0.2277
   93SAPS  C214 9141   5.274   3.009   8.074  0.7374 -0.5014  0.0800
   93SAPS  H14R 9142   5.255   2.901   8.089 -2.2027 -0.2160 -1.2205
   93SAPS  C215 9143   5.214   3.099   8.157  0.3924  1.3295 -0.2698
   93SAPS  H15R 9144   5.142   3.054   8.227  0.6706 -0.0008 -0.8181
   93SAPS  C216 9145   5.233   3.247   8.147  0.4480 -0.7131 -0.3988
   93SAPS  H16R 9146   5.133   3.288   8.172  0.0752 -2.4985  1.2104
   93SAPS  H16S 9147   5.244   3.283   8.042  0.2016 -0.1799 -0.2451
   93SAPS  C217 9148   5.352   3.303   8.232 -0.2853 -0.2348  0.3094
   93SAPS  H17R 9149   5.359   3.413   8.219 -0.8997 -0.3495 -1.0834
   93SAPS  H17S 9150   5.449   3.259   8.199  0.6616  0.1391  2.5021
   93SAPS  C218 9151   5.325   3.273   8.380 -0.3352  1.0263 -0.0573
   93SAPS  H18R 9152   5.336   3.165   8.399  0.4812  1.3250  1.2145
   93SAPS  H18S 9153   5.225   3.314   8.405 -0.4688 -0.5898  2.1954
   93SAPS  C219 9154   5.424   3.358   8.460  0.2919  0.1221 -0.1072
   93SAPS  H19R 9155   5.517   3.356   8.399 -1.6481  0.0555 -3.1675
   93SAPS  H19S 9156   5.454   3.313   8.557 -1.4459  2.4476  1.5266
   93SAPS  C220 9157   5.378   3.509   8.484 -0.2758  0.7404 -0.1520
   93SAPS  H20R 9158   5.274   3.515   8.522  0.0145  3.3957  0.3228
   93SAPS  H20S 9159   5.393   3.569   8.392  2.5543  0.8195  0.2960
   93SAPS  H20T 9160   5.446   3.556   8.559  0.2091  2.9864 -1.9489
   93SAPS   C33 9161   5.406   1.682   7.091 -0.1464 -0.1421 -0.8607
   93SAPS   H3X 9162   5.450   1.582   7.111  1.5401  1.2397  2.7748
   93SAPS   H3Y 9163   5.299   1.685   7.123  0.0268  0.2712 -0.3152
   93SAPS   C34 9164   5.477   1.778   7.188 -0.0036 -0.6804 -0.4561
   93SAPS   H4X 9165   5.453   1.882   7.155 -1.9362 -0.1453  2.4237
   93SAPS   H4Y 9166   5.588   1.774   7.176  0.2646  0.6212  1.3175
   93SAPS   C35 9167   5.438   1.766   7.339 -0.2297  0.1047  0.1372
   93SAPS   H5X 9168   5.468   1.663   7.366  0.4858  0.6695  1.5608
   93SAPS   H5Y 9169   5.331   1.794   7.350 -0.0626  0.8220 -0.0363
   93SAPS   C36 9170   5.522   1.857   7.434  0.4105  0.2458  0.0721
   93SAPS   H6X 9171   5.631   1.837   7.430  0.5812  0.3930  3.1591
   93SAPS   H6Y 9172   5.493   1.810   7.530  0.1982 -1.1174 -0.6401
   93SAPS   C37 9173   5.493   2.000   7.426  0.8450  0.9363 -0.3835
   93SAPS   H7X 9174   5.384   2.010   7.441  0.7460 -0.9983  0.4040
   93SAPS   H7Y 9175   5.513   2.027   7.321  2.3312 -0.4804 -0.4953
   93SAPS   C38 9176   5.569   2.088   7.524 -0.7200 -0.0736  0.3413
   93SAPS   H8X 9177   5.544   2.194   7.504  0.6111 -0.2273 -2.3890
   93SAPS   H8Y 9178   5.678   2.066   7.517 -0.8958 -0.3673 -1.7929
   93SAPS   C39 9179   5.519   2.065   7.674 -0.0260  0.1615 -0.1588
   93SAPS   H9X 9180   5.557   1.965   7.704  1.5258  1.4423  2.2955
   93SAPS   H9Y 9181   5.408   2.069   7.679  0.0527 -0.0037  1.8449
   93SAPS  C310 9182   5.575   2.165   7.771  0.1532 -0.2087 -0.2082
   93SAPS  H10X 9183   5.534   2.261   7.732 -1.9581 -1.4680 -1.1146
   93SAPS  H10Y 9184   5.686   2.166   7.767  0.1362 -0.4868 -0.8830
   93SAPS  C311 9185   5.541   2.144   7.919 -0.2156 -0.2152  0.3995
   93SAPS  H11X 9186   5.582   2.045   7.947  1.3318  0.1729 -0.4529
   93SAPS  H11Y 9187   5.434   2.160   7.945  0.0651 -0.1615  1.5361
   93SAPS  C312 9188   5.626   2.236   8.006 -1.0511  0.0911  0.1389
   93SAPS  H12X 9189   5.631   2.335   7.957  3.0356  0.0856  0.3283
   93SAPS  H12Y 9190   5.724   2.183   8.000 -0.8339  0.2761  1.8358
   93SAPS  C313 9191   5.568   2.251   8.146  0.4292  0.6137 -0.2518
   93SAPS  H13X 9192   5.566   2.147   8.183 -1.4590  0.6388 -0.2511
   93SAPS  H13Y 9193   5.466   2.291   8.130 -0.5446 -2.4232 -1.9583
   93SAPS  C314 9194   5.656   2.353   8.224  0.2265 -0.3488 -0.3198
   93SAPS  H14X 9195   5.643   2.456   8.183  2.7945  1.1855  2.5277
   93SAPS  H14Y 9196   5.759   2.315   8.214  0.0997 -0.5664 -0.8075
   93SAPS  C315 9197   5.624   2.357   8.369 -0.4423 -0.2896 -0.7441
   93SAPS  H15X 9198   5.638   2.254   8.409  2.1199 -0.4720 -1.9785
   93SAPS  H15Y 9199   5.522   2.397   8.389 -0.4558 -1.4063  1.5661
   93SAPS  C316 9200   5.724   2.450   8.443  0.3206  0.6887  0.0871
   93SAPS  H16X 9201   5.685   2.549   8.414  0.0741  0.2638 -1.0224
   93SAPS  H16Y 9202   5.828   2.440   8.404 -0.2029  1.3204 -1.4777
   93SAPS  C317 9203   5.711   2.450   8.593 -0.1230  0.4590 -0.9366
   93SAPS  H17X 9204   5.793   2.513   8.632 -0.3102 -1.4223  2.7459
   93SAPS  H17Y 9205   5.740   2.350   8.635 -1.3574  1.0286  1.3768
   93SAPS  C318 9206   5.572   2.485   8.655 -0.0189 -0.3995 -0.0774
   93SAPS  H18X 9207   5.534   2.586   8.630 -0.6597 -0.8754 -1.0474
   93SAPS  H18Y 9208   5.596   2.488   8.764  0.9970  1.3230 -0.3279
   93SAPS  H18Z 9209   5.494   2.413   8.621  1.3540 -2.3805  0.8752
   94SAPS     N 9210   5.993   4.870   5.654  0.3091  0.2487 -0.4163
   94SAPS   HN1 9211   5.925   4.853   5.577 -0.4743 -2.1397  0.7257
   94SAPS   HN2 9212   5.970   4.807   5.734  1.3007  0.8760  0.3649
   94SAPS   HN3 9213   5.994   4.970   5.681  1.2789  0.4466 -1.1628
   94SAPS   C12 9214   6.128   4.836   5.595 -0.5429  0.3122 -0.4668
   94SAPS  H12A 9215   6.094   4.754   5.532  1.1849 -0.4577 -0.4304
   94SAPS   C13 9216   6.193   4.936   5.496 -0.9631  1.0329 -1.2255
   94SAPS  O13A 9217   6.124   5.024   5.446 -0.0893  0.5401  0.0884
   94SAPS  O13B 9218   6.313   4.914   5.454  0.1677  0.3647 -0.1619
   94SAPS   C11 9219   6.226   4.798   5.709 -0.0517  0.6091  0.9719
   94SAPS  H11A 9220   6.265   4.887   5.762  2.7042 -0.5834  1.0353
   94SAPS  H11B 9221   6.302   4.742   5.651 -2.7422 -2.5266  0.2876
   94SAPS     P 9222   6.240   4.657   5.934  0.2240 -0.0101  0.3627
   94SAPS   O13 9223   6.157   4.555   5.992 -0.4306  0.5111 -0.4451
   94SAPS   O14 9224   6.379   4.632   5.907 -0.3100 -0.0979  0.6795
   94SAPS   O12 9225   6.165   4.715   5.810 -0.3555 -0.4887 -0.2070
   94SAPS   O11 9226   6.233   4.768   6.046 -0.4533  0.4634 -0.1829
   94SAPS    C1 9227   6.124   4.859   6.059  0.2011  0.5512 -0.1046
   94SAPS    HA 9228   6.133   4.938   5.981  1.9979  0.8689  0.4080
   94SAPS    HB 9229   6.026   4.817   6.027 -0.1278 -0.7045  2.4934
   94SAPS    C2 9230   6.103   4.910   6.202 -0.2100  0.2687  0.2820
   94SAPS    HS 9231   6.018   4.982   6.206  0.7350  1.4242 -0.1327
   94SAPS   O21 9232   6.226   4.976   6.242  0.1664  0.2055  0.2395
   94SAPS   C21 9233   6.231   5.101   6.200 -0.0348 -0.2020 -0.0384
   94SAPS   O22 9234   6.153   5.155   6.130  0.1391 -0.4846  0.6597
   94SAPS   C22 9235   6.351   5.169   6.275  0.4226 -0.5988  0.4219
   94SAPS   H2R 9236   6.423   5.090   6.304  0.1755 -0.9148  0.1844
   94SAPS   H2S 9237   6.400   5.233   6.199  1.0912 -1.1708  0.3698
   94SAPS    C3 9238   6.063   4.791   6.300 -0.5445 -0.4054  0.3856
   94SAPS    HX 9239   6.140   4.712   6.284 -1.6946 -0.8817 -3.2555
   94SAPS    HY 9240   5.973   4.738   6.262 -1.1745  0.9371 -0.0030
   94SAPS   O31 9241   6.058   4.821   6.439  0.2629 -0.4767  0.4201
   94SAPS   C31 9242   5.950   4.838   6.507 -0.0982  0.5146  0.1779
   94SAPS   O32 9243   5.832   4.844   6.466  0.3726 -0.1141  0.4838
   94SAPS   C32 9244   5.996   4.846   6.652  0.0064 -0.3613 -0.3881
   94SAPS   H2X 9245   6.015   4.952   6.680 -0.6449 -0.4202  0.2939
   94SAPS   H2Y 9246   6.087   4.789   6.681 -0.2917 -0.3465  0.5874
   94SAPS   C23 9247   6.303   5.249   6.399  0.7026  0.0120  0.5225
   94SAPS   H3R 9248   6.212   5.204   6.446 -1.5937  2.4246 -1.4342
   94SAPS   H3S 9249   6.269   5.348   6.362  1.8039  0.3938  0.5339
   94SAPS   C24 9250   6.418   5.260   6.501  0.3958 -0.1158 -0.1227
   94SAPS   H4R 9251   6.420   5.154   6.535  0.5423  0.0186  0.3014
   94SAPS   H4S 9252   6.389   5.322   6.588 -0.2783 -0.1828 -0.3017
   94SAPS   C25 9253   6.567   5.298   6.467 -0.1058 -0.3889 -0.8815
   94SAPS   H5R 9254   6.618   5.220   6.409  0.4306  2.0336 -3.7879
   94SAPS   C26 9255   6.639   5.390   6.526  0.5127  0.0012 -1.3163
   94SAPS   H6R 9256   6.743   5.386   6.490  0.8125 -0.5048 -0.3992
   94SAPS   C27 9257   6.606   5.494   6.636  0.1526 -0.0915 -0.3056
   94SAPS   H7R 9258   6.514   5.464   6.689 -0.3171  0.0044 -1.0675
   94SAPS   H7S 9259   6.580   5.590   6.588 -2.5248 -0.4577  0.3474
   94SAPS   C28 9260   6.730   5.521   6.715 -0.4134  0.2533 -0.2812
   94SAPS   H8R 9261   6.789   5.608   6.682 -0.5687 -0.1297 -1.5705
   94SAPS   C29 9262   6.767   5.469   6.838  0.5962  0.3343  0.6529
   94SAPS   H9R 9263   6.864   5.493   6.885  0.8450  0.5341  0.0440
   94SAPS  C210 9264   6.687   5.364   6.912 -0.5831  0.2237  0.0569
   94SAPS  H10R 9265   6.753   5.291   6.964 -1.8504 -0.4149  0.7903
   94SAPS  H10S 9266   6.629   5.304   6.839  1.3192 -2.0169  0.3267
   94SAPS  C211 9267   6.589   5.425   7.007 -0.6027 -0.4430  0.3906
   94SAPS  H11R 9268   6.514   5.485   6.954  0.2477  1.9920  1.8382
   94SAPS  C212 9269   6.600   5.448   7.137  0.1307 -0.3133 -0.5492
   94SAPS  H12R 9270   6.528   5.508   7.194  3.2668 -0.5782  3.9403
   94SAPS  C213 9271   6.720   5.396   7.220 -0.2374 -0.5553 -0.0805
   94SAPS  H13R 9272   6.811   5.373   7.160  1.2515  2.5754  0.9028
   94SAPS  H13S 9273   6.689   5.295   7.256  1.6809 -0.9682  0.4412
   94SAPS  C214 9274   6.759   5.499   7.331  0.6241  1.0379  0.4013
   94SAPS  H14R 9275   6.809   5.586   7.287  0.6795  0.3612 -0.9210
   94SAPS  C215 9276   6.744   5.486   7.459  0.7258 -0.5352 -0.9684
   94SAPS  H15R 9277   6.782   5.570   7.519 -1.9966  0.1342 -0.1186
   94SAPS  C216 9278   6.688   5.372   7.539 -0.3310 -0.0457  0.6662
   94SAPS  H16R 9279   6.720   5.275   7.494  1.6461  0.2605  1.3513
   94SAPS  H16S 9280   6.577   5.378   7.543 -0.3137  0.2607  0.6247
   94SAPS  C217 9281   6.735   5.371   7.689  0.5133 -0.3594 -0.5147
   94SAPS  H17R 9282   6.845   5.387   7.687  0.8143 -1.7489  2.1627
   94SAPS  H17S 9283   6.701   5.271   7.724 -1.8603  0.4727 -0.3560
   94SAPS  C218 9284   6.656   5.462   7.781  0.3775 -0.8925  0.0002
   94SAPS  H18R 9285   6.550   5.431   7.787  0.4964 -1.1039  0.9683
   94SAPS  H18S 9286   6.640   5.563   7.739 -0.4852  0.2306  2.9376
   94SAPS  C219 9287   6.705   5.475   7.927  0.1980 -0.1191  0.9099
   94SAPS  H19R 9288   6.631   5.531   7.989 -1.2096 -0.7551 -0.1725
   94SAPS  H19S 9289   6.810   5.510   7.923  0.2312 -0.3439 -0.5761
   94SAPS  C220 9290   6.710   5.342   7.999 -0.5996  0.0331 -0.3543
   94SAPS  H20R 9291   6.790   5.271   7.969 -0.9732 -1.1710  1.4382
   94SAPS  H20S 9292   6.608   5.300   8.004  1.0127 -3.8281  1.5827
   94SAPS  H20T 9293   6.733   5.371   8.104 -1.2617 -0.5712 -0.0409
   94SAPS   C33 9294   5.891   4.782   6.742  0.4038  0.0156  0.0678
   94SAPS   H3X 9295   5.874   4.677   6.711  0.3955 -1.3366  4.3401
   94SAPS   H3Y 9296   5.792   4.829   6.722 -0.1720  0.6986  4.1952
   94SAPS   C34 9297   5.914   4.771   6.894 -0.3414  0.2688 -0.3450
   94SAPS   H4X 9298   6.012   4.724   6.917 -0.4899 -0.9797 -2.1111
   94SAPS   H4Y 9299   5.825   4.715   6.931  0.8776 -0.2258  1.8881
   94SAPS   C35 9300   5.920   4.911   6.959  0.2430  0.1907 -0.3061
   94SAPS   H5X 9301   5.818   4.955   6.966 -0.4289 -0.7530 -3.3789
   94SAPS   H5Y 9302   5.981   4.987   6.906 -0.1514  0.3227 -0.5703
   94SAPS   C36 9303   5.965   4.912   7.111  0.2480 -1.1318 -0.2611
   94SAPS   H6X 9304   5.948   5.012   7.156 -1.4615 -1.6074  0.1815
   94SAPS   H6Y 9305   6.075   4.897   7.113  0.9964  3.7384 -0.5089
   94SAPS   C37 9306   5.900   4.805   7.191  0.3460  0.2413  0.5728
   94SAPS   H7X 9307   5.951   4.707   7.185 -1.3738 -0.7999  2.3365
   94SAPS   H7Y 9308   5.794   4.800   7.157  0.7914  0.6545 -0.9000
   94SAPS   C38 9309   5.912   4.844   7.339  0.2207  0.1712  0.3815
   94SAPS   H8X 9310   5.839   4.925   7.360 -1.8607 -1.6947  0.5361
   94SAPS   H8Y 9311   6.012   4.890   7.350  0.0375  0.3780  1.2446
   94SAPS   C39 9312   5.908   4.719   7.428 -0.0689 -0.0612 -0.2342
   94SAPS   H9X 9313   5.973   4.631   7.412  1.3645  1.2186 -1.5635
   94SAPS   H9Y 9314   5.802   4.684   7.422 -1.5773  4.3418 -1.6043
   94SAPS  C310 9315   5.932   4.742   7.583 -0.2707 -0.1849 -0.0776
   94SAPS  H10X 9316   5.902   4.658   7.649 -0.3199 -1.7405 -2.0283
   94SAPS  H10Y 9317   5.863   4.823   7.612  0.5272  0.6060 -0.3746
   94SAPS  C311 9318   6.074   4.781   7.623 -0.3954 -0.5235 -0.3324
   94SAPS  H11X 9319   6.123   4.840   7.541  1.1905 -1.6147 -0.1944
   94SAPS  H11Y 9320   6.144   4.695   7.624 -1.5476 -1.4575  3.0918
   94SAPS  C312 9321   6.081   4.858   7.756  0.5288 -0.3566  0.4243
   94SAPS  H12X 9322   6.009   4.943   7.766 -0.0547 -0.9668  1.4757
   94SAPS  H12Y 9323   6.181   4.903   7.772 -0.6881  2.3592  0.6703
   94SAPS  C313 9324   6.057   4.764   7.877 -0.2675 -0.1459 -0.2016
   94SAPS  H13X 9325   6.143   4.695   7.866  0.7175  0.7538  1.6112
   94SAPS  H13Y 9326   5.961   4.709   7.866 -0.9933  1.2726 -1.0176
   94SAPS  C314 9327   6.062   4.832   8.014  0.7779 -0.3165  0.0741
   94SAPS  H14X 9328   5.989   4.915   8.005 -0.9780 -1.7378  1.0011
   94SAPS  H14Y 9329   6.168   4.866   8.027  0.1764  1.1436  1.4401
   94SAPS  C315 9330   6.020   4.740   8.117 -0.1812  0.0794 -0.2367
   94SAPS  H15X 9331   6.066   4.641   8.103  2.0070  0.9912  0.3760
   94SAPS  H15Y 9332   5.915   4.710   8.097 -0.1864  1.1927 -1.9825
   94SAPS  C316 9333   6.026   4.801   8.253 -0.1882 -0.5937  0.3847
   94SAPS  H16X 9334   5.963   4.892   8.256 -0.3201 -0.6806  0.2769
   94SAPS  H16Y 9335   6.130   4.837   8.265 -0.4651  0.2667  0.2312
   94SAPS  C317 9336   5.984   4.704   8.373 -0.3432 -0.6282 -0.3536
   94SAPS  H17X 9337   6.034   4.608   8.351  0.9794  0.1544 -0.8333
   94SAPS  H17Y 9338   5.876   4.682   8.358 -0.2480 -0.5863 -1.0871
   94SAPS  C318 9339   6.018   4.758   8.514  0.4689  0.1704  0.1282
   94SAPS  H18X 9340   5.991   4.674   8.582 -1.6014 -0.6098 -1.5936
   94SAPS  H18Y 9341   5.957   4.848   8.540  2.2732  0.7332  2.6708
   94SAPS  H18Z 9342   6.124   4.787   8.529  0.3234  0.4982  0.5338
   95SAPS     N 9343   1.959   3.407   6.329  0.0049  0.5990  0.1165
   95SAPS   HN1 9344   2.018   3.490   6.304  1.7173 -0.9261 -1.0405
   95SAPS   HN2 9345   1.991   3.358   6.414  0.9239 -0.9842 -1.1097
   95SAPS   HN3 9346   1.949   3.339   6.251  0.1681  0.9746 -0.2352
   95SAPS   C12 9347   1.822   3.459   6.344 -0.1611  0.0116 -1.5942
   95SAPS  H12A 9348   1.822   3.528   6.427 -1.5779 -3.6122  1.5879
   95SAPS   C13 9349   1.765   3.536   6.218 -0.7383  0.4397 -0.0646
   95SAPS  O13A 9350   1.822   3.519   6.105 -0.1593 -0.0399 -0.0139
   95SAPS  O13B 9351   1.662   3.604   6.222 -0.0896  0.2067 -0.4993
   95SAPS   C11 9352   1.729   3.346   6.392 -0.1004 -0.2457  0.4476
   95SAPS  H11A 9353   1.632   3.397   6.408  1.3845  3.0651 -0.5719
   95SAPS  H11B 9354   1.760   3.301   6.489  0.6309  2.9270  1.7737
   95SAPS     P 9355   1.605   3.141   6.271  0.0127 -0.0796  0.1588
   95SAPS   O13 9356   1.479   3.198   6.222  0.3151 -0.0109  0.5956
   95SAPS   O14 9357   1.671   3.034   6.190  0.1168 -0.5380 -0.6352
   95SAPS   O12 9358   1.711   3.254   6.288  0.4737  0.2079  0.4343
   95SAPS   O11 9359   1.588   3.093   6.420 -0.4124  0.5344 -0.0918
   95SAPS    C1 9360   1.510   3.158   6.520  0.4379 -0.6443 -0.1280
   95SAPS    HA 9361   1.493   3.264   6.489 -0.6209 -0.5585  0.7082
   95SAPS    HB 9362   1.408   3.114   6.524  0.9702 -2.1591 -2.2312
   95SAPS    C2 9363   1.575   3.145   6.656 -1.0022  0.2138 -0.5380
   95SAPS    HS 9364   1.677   3.186   6.640 -0.3951 -1.5895 -1.2997
   95SAPS   O21 9365   1.571   3.005   6.698 -0.1580 -0.3621  0.1505
   95SAPS   C21 9366   1.664   2.959   6.778  0.2891  0.0468  0.3254
   95SAPS   O22 9367   1.769   3.015   6.801  0.0319  0.4319 -0.3135
   95SAPS   C22 9368   1.606   2.829   6.836  0.2530  0.0275  0.8459
   95SAPS   H2R 9369   1.538   2.775   6.766 -0.6730  0.0829  1.6960
   95SAPS   H2S 9370   1.694   2.761   6.847  1.8231  1.5529 -1.7341
   95SAPS    C3 9371   1.502   3.241   6.760  0.4599  0.7305  0.1097
   95SAPS    HX 9372   1.400   3.196   6.773  1.6322 -2.7260 -1.8254
   95SAPS    HY 9373   1.489   3.336   6.705  0.9234  1.4746  1.2806
   95SAPS   O31 9374   1.574   3.254   6.886 -0.0433  0.3939  0.3164
   95SAPS   C31 9375   1.693   3.316   6.875 -0.1964  0.2934  0.4482
   95SAPS   O32 9376   1.734   3.378   6.778  0.2219 -0.0095 -0.3185
   95SAPS   C32 9377   1.773   3.317   7.007 -0.1670  0.1215 -0.5182
   95SAPS   H2X 9378   1.774   3.422   7.043 -2.2840 -0.3134  0.9059
   95SAPS   H2Y 9379   1.874   3.288   6.972  1.0850  0.0977  2.9257
   95SAPS   C23 9380   1.546   2.854   6.979  0.4221 -0.2410  0.0994
   95SAPS   H3R 9381   1.472   2.774   7.001 -0.2544 -0.1673 -1.8330
   95SAPS   H3S 9382   1.483   2.945   6.983 -1.2877 -1.4370  1.1339
   95SAPS   C24 9383   1.657   2.861   7.092  0.2183  0.2099 -0.9020
   95SAPS   H4R 9384   1.614   2.895   7.189 -1.8238 -1.2529 -1.2515
   95SAPS   H4S 9385   1.734   2.930   7.054  0.6141 -0.2939 -1.0206
   95SAPS   C25 9386   1.710   2.720   7.111 -0.3407  0.2587  0.5207
   95SAPS   H5R 9387   1.745   2.665   7.022 -0.5617  0.9544  0.0001
   95SAPS   C26 9388   1.696   2.640   7.224  0.7149 -0.2472  0.1851
   95SAPS   H6R 9389   1.737   2.538   7.218 -1.5630 -1.3898  2.8497
   95SAPS   C27 9390   1.648   2.685   7.356 -0.2238 -0.7588  0.3846
   95SAPS   H7R 9391   1.699   2.779   7.384 -0.8629 -0.1384 -0.5251
   95SAPS   H7S 9392   1.695   2.623   7.435  3.2339  3.7411  2.0458
   95SAPS   C28 9393   1.495   2.686   7.372  0.3397 -0.3144 -0.4768
   95SAPS   H8R 9394   1.446   2.687   7.274 -0.2289 -0.4933 -0.1937
   95SAPS   C29 9395   1.430   2.682   7.490 -0.3951  0.1472  0.1883
   95SAPS   H9R 9396   1.322   2.661   7.497  0.0556 -2.1839  0.3104
   95SAPS  C210 9397   1.496   2.699   7.626 -0.6373 -0.5450  0.0689
   95SAPS  H10R 9398   1.420   2.734   7.699  0.0450  1.2520 -0.0628
   95SAPS  H10S 9399   1.577   2.774   7.610 -0.3381 -0.8392  0.1812
   95SAPS  C211 9400   1.571   2.580   7.683 -0.0429 -0.2737  0.4409
   95SAPS  H11R 9401   1.617   2.517   7.605  0.4705 -0.8570  1.2174
   95SAPS  C212 9402   1.584   2.538   7.812 -0.3956 -0.4921  0.2190
   95SAPS  H12R 9403   1.631   2.440   7.820 -2.0711 -1.3650 -0.2832
   95SAPS  C213 9404   1.523   2.609   7.934  0.6421  0.0479 -0.2470
   95SAPS  H13R 9405   1.530   2.719   7.923 -0.7337  0.1412 -0.2775
   95SAPS  H13S 9406   1.581   2.586   8.026  1.7283 -1.7906 -1.3381
   95SAPS  C214 9407   1.383   2.574   7.971 -0.0726  0.1138  0.6582
   95SAPS  H14R 9408   1.351   2.474   7.938  1.9675 -0.5116  0.4925
   95SAPS  C215 9409   1.298   2.653   8.043  0.2737 -0.0638  0.3503
   95SAPS  H15R 9410   1.193   2.635   8.070  0.1244  0.9928  0.5208
   95SAPS  C216 9411   1.338   2.787   8.100 -0.4692  0.5236  0.1947
   95SAPS  H16R 9412   1.447   2.805   8.084 -0.1199 -0.4291  1.4668
   95SAPS  H16S 9413   1.310   2.801   8.206 -3.2539  2.7843 -0.7860
   95SAPS  C217 9414   1.279   2.905   8.021  0.8468  0.2738  0.1323
   95SAPS  H17R 9415   1.283   2.884   7.911 -0.4744 -1.5147  0.4009
   95SAPS  H17S 9416   1.344   2.994   8.025  0.6041  0.4970 -0.7749
   95SAPS  C218 9417   1.138   2.966   8.068 -0.6141  0.2745  0.3763
   95SAPS  H18R 9418   1.102   3.047   8.001 -0.2671  0.3685  0.3004
   95SAPS  H18S 9419   1.158   3.017   8.165  0.7459  0.0203  0.2429
   95SAPS  C219 9420   1.030   2.867   8.098 -0.1239 -0.7149  0.0769
   95SAPS  H19R 9421   1.070   2.795   8.174 -0.8248  0.2851  1.4140
   95SAPS  H19S 9422   0.995   2.819   8.004  2.5979  0.2463 -1.4700
   95SAPS  C220 9423   0.915   2.932   8.174  0.4169 -0.4581  0.4884
   95SAPS  H20R 9424   0.861   3.010   8.117  0.6913  0.3798  1.3618
   95SAPS  H20S 9425   0.956   2.980   8.266 -0.7842 -0.7704  1.2071
   95SAPS  H20T 9426   0.832   2.863   8.202 -0.0592  0.1103  0.4852
   95SAPS   C33 9427   1.724   3.227   7.129  0.0606  0.5517 -0.7933
   95SAPS   H3X 9428   1.702   3.121   7.102 -0.5189  0.7552 -1.1217
   95SAPS   H3Y 9429   1.630   3.269   7.172 -0.2286 -0.8973  0.0109
   95SAPS   C34 9430   1.822   3.225   7.251  0.4077  0.5217  1.4366
   95SAPS   H4X 9431   1.828   3.329   7.292  1.1190  1.1585 -0.2413
   95SAPS   H4Y 9432   1.925   3.186   7.242  0.4366  0.1712  3.0673
   95SAPS   C35 9433   1.758   3.140   7.360 -0.2766 -0.0115 -0.3559
   95SAPS   H5X 9434   1.797   3.037   7.342  1.2044 -0.0688  2.8232
   95SAPS   H5Y 9435   1.648   3.155   7.367 -0.2935 -0.6398  0.7629
   95SAPS   C36 9436   1.804   3.186   7.499  0.2533 -0.1857  0.6192
   95SAPS   H6X 9437   1.792   3.291   7.534  1.5947 -0.0096  0.5929
   95SAPS   H6Y 9438   1.914   3.168   7.492 -0.1156 -2.7960  0.9600
   95SAPS   C37 9439   1.764   3.070   7.602  0.5695  0.1093 -0.9241
   95SAPS   H7X 9440   1.795   2.975   7.553 -0.2349 -3.0268  4.2785
   95SAPS   H7Y 9441   1.653   3.063   7.601  0.6163 -0.7992 -2.6635
   95SAPS   C38 9442   1.840   3.080   7.732  0.0875 -0.3593 -0.5209
   95SAPS   H8X 9443   1.845   3.189   7.754 -0.8520  0.1139 -2.5681
   95SAPS   H8Y 9444   1.942   3.042   7.710  0.4313  0.3121 -0.1047
   95SAPS   C39 9445   1.775   3.006   7.845 -0.1189 -0.2779  0.3218
   95SAPS   H9X 9446   1.762   2.896   7.832  1.0641 -0.3742 -0.1022
   95SAPS   H9Y 9447   1.676   3.053   7.862 -0.6374 -0.8789 -1.0127
   95SAPS  C310 9448   1.856   3.012   7.974 -0.3994  0.0051  0.2623
   95SAPS  H10X 9449   1.872   3.118   8.002 -3.3483  1.0474 -1.7490
   95SAPS  H10Y 9450   1.948   2.949   7.969 -0.4303  0.1003 -1.9605
   95SAPS  C311 9451   1.783   2.941   8.094 -0.0424 -0.8745 -0.2794
   95SAPS  H11X 9452   1.850   2.928   8.182  0.2113  1.3608 -0.1133
   95SAPS  H11Y 9453   1.739   2.845   8.058 -0.1579 -0.5554 -0.9922
   95SAPS  C312 9454   1.669   3.030   8.148 -0.0869  0.1638  0.1794
   95SAPS  H12X 9455   1.588   2.968   8.192 -0.3239 -0.4228 -1.0465
   95SAPS  H12Y 9456   1.616   3.073   8.061  0.4421 -1.1899 -0.8433
   95SAPS  C313 9457   1.712   3.139   8.246  0.5273 -0.1063  0.0132
   95SAPS  H13X 9458   1.755   3.219   8.182  2.1414 -0.8460  0.1624
   95SAPS  H13Y 9459   1.781   3.102   8.324 -0.9006  1.6582  2.1753
   95SAPS  C314 9460   1.589   3.207   8.330 -0.7002  0.9518  0.3524
   95SAPS  H14X 9461   1.637   3.278   8.400  3.6364 -1.3816 -0.0601
   95SAPS  H14Y 9462   1.543   3.125   8.389 -0.7969 -2.1252 -3.7275
   95SAPS  C315 9463   1.488   3.252   8.231 -0.0801 -0.0948  0.1686
   95SAPS  H15X 9464   1.430   3.166   8.190  0.3968 -1.7360  2.7893
   95SAPS  H15Y 9465   1.534   3.296   8.140 -2.1778  0.8124 -0.4754
   95SAPS  C316 9466   1.393   3.358   8.297 -0.8045 -0.4346 -0.2612
   95SAPS  H16X 9467   1.443   3.434   8.361 -1.6324 -0.3066  0.2488
   95SAPS  H16Y 9468   1.326   3.306   8.369 -1.6442 -0.0267 -0.7381
   95SAPS  C317 9469   1.299   3.424   8.200  0.0869 -0.6140 -0.2985
   95SAPS  H17X 9470   1.234   3.355   8.143  1.6895 -2.7180  0.3470
   95SAPS  H17Y 9471   1.361   3.486   8.132 -0.4456 -0.8401 -0.9918
   95SAPS  C318 9472   1.208   3.522   8.269  0.2135  0.7941 -0.1158
   95SAPS  H18X 9473   1.133   3.577   8.209  0.8864  1.6225 -0.2097
   95SAPS  H18Y 9474   1.271   3.592   8.329  0.1765 -1.4918  2.7452
   95SAPS  H18Z 9475   1.150   3.454   8.335 -0.5268  1.0956 -0.4571
   96SAPS     N 9476   2.607   4.443   6.006 -0.3831 -0.2068  0.6786
   96SAPS   HN1 9477   2.532   4.419   6.074 -1.5101  2.3703  0.3807
   96SAPS   HN2 9478   2.572   4.444   5.908 -1.2405  3.9719  0.9262
   96SAPS   HN3 9479   2.675   4.364   6.017 -0.2723 -0.3105 -0.7028
   96SAPS   C12 9480   2.663   4.569   6.047 -0.5529  0.3048  0.1467
   96SAPS  H12A 9481   2.754   4.586   5.992 -0.0570  0.6214  1.0538
   96SAPS   C13 9482   2.572   4.696   6.033  0.5229  0.0389 -0.3664
   96SAPS  O13A 9483   2.463   4.681   5.969  0.2564 -0.0038  0.4980
   96SAPS  O13B 9484   2.631   4.806   6.028 -0.0305  0.2803  0.2651
   96SAPS   C11 9485   2.717   4.555   6.191 -0.6629  0.9882 -0.1455
   96SAPS  H11A 9486   2.633   4.532   6.261  0.0306  0.8805  0.6709
   96SAPS  H11B 9487   2.757   4.650   6.232  0.7545  1.1007 -1.7417
   96SAPS     P 9488   2.966   4.487   6.197  0.0122 -0.6930 -0.4137
   96SAPS   O13 9489   3.056   4.373   6.200 -0.9256  0.2593  0.0223
   96SAPS   O14 9490   3.000   4.601   6.111  0.4327 -0.5691 -0.1389
   96SAPS   O12 9491   2.813   4.449   6.179 -0.3500  0.4444 -0.1861
   96SAPS   O11 9492   2.975   4.531   6.345 -0.7797  0.3373  0.1707
   96SAPS    C1 9493   2.941   4.437   6.451  0.4387  0.1861 -0.1941
   96SAPS    HA 9494   2.865   4.490   6.512  0.1096 -1.6628  1.0383
   96SAPS    HB 9495   2.881   4.350   6.416  0.7978 -0.2080  0.1592
   96SAPS    C2 9496   3.057   4.394   6.543  0.0006  0.2741 -0.0100
   96SAPS    HS 9497   3.102   4.304   6.495  0.4858 -0.5971  2.0430
   96SAPS   O21 9498   3.003   4.362   6.670 -0.3462 -0.2625  0.3717
   96SAPS   C21 9499   2.931   4.249   6.674 -0.0817  0.1059  0.3049
   96SAPS   O22 9500   2.908   4.178   6.580 -1.0604  0.4887  0.3702
   96SAPS   C22 9501   2.873   4.232   6.817  0.4847  0.3153  0.0054
   96SAPS   H2R 9502   2.795   4.154   6.825 -2.1105  2.6073 -1.9726
   96SAPS   H2S 9503   2.960   4.202   6.880 -0.5850 -2.5711  0.1599
   96SAPS    C3 9504   3.164   4.503   6.561 -0.0305 -0.5473 -0.1896
   96SAPS    HX 9505   3.115   4.602   6.573 -0.1394 -0.6389  0.1336
   96SAPS    HY 9506   3.213   4.516   6.462 -0.1587 -1.8854 -0.4381
   96SAPS   O31 9507   3.267   4.482   6.662 -0.4682 -0.2985 -0.2383
   96SAPS   C31 9508   3.236   4.518   6.788 -0.5740 -0.0858  0.2124
   96SAPS   O32 9509   3.139   4.584   6.820  0.4753  0.4028  0.2318
   96SAPS   C32 9510   3.349   4.486   6.877 -0.4261 -0.8195 -0.3400
   96SAPS   H2X 9511   3.433   4.545   6.833 -1.4322 -1.3983 -3.1439
   96SAPS   H2Y 9512   3.383   4.381   6.873 -1.2355 -1.0921 -0.0121
   96SAPS   C23 9513   2.817   4.366   6.877 -0.3461  0.3116 -0.1325
   96SAPS   H3R 9514   2.889   4.449   6.859 -0.8405  0.5278 -1.1182
   96SAPS   H3S 9515   2.812   4.359   6.987  0.7049 -0.0606 -0.1054
   96SAPS   C24 9516   2.676   4.396   6.823 -0.5688 -0.7059  0.4006
   96SAPS   H4R 9517   2.692   4.442   6.723 -1.0203  1.4069  1.2827
   96SAPS   H4S 9518   2.645   4.475   6.894  1.0237  0.2174  0.1059
   96SAPS   C25 9519   2.564   4.303   6.830 -0.6229  0.2689  0.2406
   96SAPS   H5R 9520   2.543   4.251   6.735 -1.0386  1.0422 -0.0909
   96SAPS   C26 9521   2.494   4.269   6.939 -0.2085  0.0756  0.2986
   96SAPS   H6R 9522   2.426   4.183   6.932  0.1307 -0.1037 -0.7865
   96SAPS   C27 9523   2.524   4.313   7.085 -0.9242 -0.1224 -0.0145
   96SAPS   H7R 9524   2.634   4.324   7.098 -0.2741 -4.2859 -1.2428
   96SAPS   H7S 9525   2.491   4.235   7.157  0.4388  0.1935  0.9488
   96SAPS   C28 9526   2.450   4.444   7.117 -0.1161  0.7598 -0.0456
   96SAPS   H8R 9527   2.420   4.496   7.025 -0.0495 -0.6050 -0.8525
   96SAPS   C29 9528   2.392   4.469   7.236  0.2397  0.3269 -0.0286
   96SAPS   H9R 9529   2.332   4.561   7.245  1.2456  0.9555  0.3931
   96SAPS  C210 9530   2.385   4.385   7.361 -0.4749 -0.8218 -0.8236
   96SAPS  H10R 9531   2.429   4.283   7.357  2.1115  0.1372  1.1718
   96SAPS  H10S 9532   2.277   4.375   7.386 -0.5277  2.4310  0.4926
   96SAPS  C211 9533   2.468   4.453   7.470 -0.6756  0.2643  0.6676
   96SAPS  H11R 9534   2.469   4.562   7.452  2.2302  0.0515 -0.7502
   96SAPS  C212 9535   2.517   4.400   7.583  0.1856 -0.5442  0.2625
   96SAPS  H12R 9536   2.582   4.464   7.644  0.5297  0.7715 -1.4163
   96SAPS  C213 9537   2.501   4.259   7.625 -0.1560 -0.1357 -0.0769
   96SAPS  H13R 9538   2.596   4.233   7.677 -1.1393 -2.0179  0.7975
   96SAPS  H13S 9539   2.492   4.194   7.536 -0.2567 -0.1505 -0.0546
   96SAPS  C214 9540   2.382   4.237   7.711 -0.0181 -0.5089  0.1525
   96SAPS  H14R 9541   2.281   4.249   7.669  0.0693 -0.7144 -0.1112
   96SAPS  C215 9542   2.391   4.207   7.838  0.0557 -0.3062 -0.2630
   96SAPS  H15R 9543   2.301   4.176   7.893 -0.1305 -1.8687 -1.3946
   96SAPS  C216 9544   2.521   4.179   7.919 -0.4150  0.5425  0.3248
   96SAPS  H16R 9545   2.617   4.189   7.865  0.1179 -1.0243  0.9553
   96SAPS  H16S 9546   2.530   4.073   7.950  0.6406  0.7606  0.8019
   96SAPS  C217 9547   2.545   4.264   8.041  0.4517  0.5656 -0.8459
   96SAPS  H17R 9548   2.628   4.226   8.104  1.7437 -0.5594 -3.1762
   96SAPS  H17S 9549   2.453   4.275   8.103  0.1840  1.2996 -1.3618
   96SAPS  C218 9550   2.598   4.401   8.000 -0.0383  1.3212 -0.1944
   96SAPS  H18R 9551   2.514   4.456   7.952 -0.2137  1.7004  0.5455
   96SAPS  H18S 9552   2.682   4.395   7.928  1.9310 -1.4653  2.2069
   96SAPS  C219 9553   2.656   4.484   8.106  0.3126 -0.6601 -1.1277
   96SAPS  H19R 9554   2.590   4.485   8.195  0.0414 -1.1902 -1.3179
   96SAPS  H19S 9555   2.669   4.589   8.072  1.2497  0.2582  1.9317
   96SAPS  C220 9556   2.804   4.446   8.147  0.2565  0.0223  0.2806
   96SAPS  H20R 9557   2.807   4.343   8.187 -0.1804  0.3549  1.1825
   96SAPS  H20S 9558   2.840   4.510   8.230  0.4041 -0.0692  0.2855
   96SAPS  H20T 9559   2.873   4.459   8.061  3.1109  1.7344  2.7102
   96SAPS   C33 9560   3.326   4.532   7.027 -0.0829  0.0464 -0.0742
   96SAPS   H3X 9561   3.227   4.499   7.064  0.5860  0.1852  1.9343
   96SAPS   H3Y 9562   3.330   4.642   7.013 -2.3201  0.2419  0.6526
   96SAPS   C34 9563   3.426   4.476   7.118 -0.2710 -0.4988 -0.3816
   96SAPS   H4X 9564   3.531   4.477   7.080 -0.0073 -0.4604  0.3465
   96SAPS   H4Y 9565   3.409   4.366   7.121 -1.9601 -0.2493 -0.4577
   96SAPS   C35 9566   3.428   4.537   7.266  0.3300 -0.1524  0.4165
   96SAPS   H5X 9567   3.325   4.573   7.286 -0.1073 -1.1422  0.0077
   96SAPS   H5Y 9568   3.507   4.615   7.266 -0.5819  0.8078 -1.4739
   96SAPS   C36 9569   3.461   4.433   7.366  0.4453  0.1754  0.4983
   96SAPS   H6X 9570   3.568   4.407   7.354  0.1967 -1.5115  1.7736
   96SAPS   H6Y 9571   3.410   4.335   7.352 -0.3937  0.4505  1.6023
   96SAPS   C37 9572   3.462   4.483   7.508  0.1849 -0.7054  0.0314
   96SAPS   H7X 9573   3.517   4.405   7.565  2.1004  1.4140  1.1849
   96SAPS   H7Y 9574   3.356   4.485   7.542  0.5320 -2.5514  1.3015
   96SAPS   C38 9575   3.542   4.610   7.535  0.3267 -0.2171  0.2066
   96SAPS   H8X 9576   3.477   4.688   7.490  0.0996 -0.9603 -0.7906
   96SAPS   H8Y 9577   3.643   4.620   7.491 -0.1238  1.2721 -0.5233
   96SAPS   C39 9578   3.555   4.631   7.691 -0.6125  0.0485 -0.9530
   96SAPS   H9X 9579   3.617   4.550   7.734 -1.5974 -0.8650 -1.2350
   96SAPS   H9Y 9580   3.454   4.622   7.738 -0.5659  2.9992 -0.1634
   96SAPS  C310 9581   3.610   4.766   7.731  0.5538 -0.1707  0.1863
   96SAPS  H10X 9582   3.523   4.827   7.699 -0.0365 -0.2357  1.6665
   96SAPS  H10Y 9583   3.704   4.800   7.681  0.2316  0.3120 -0.0944
   96SAPS  C311 9584   3.641   4.781   7.878 -0.3954 -0.3318  0.4065
   96SAPS  H11X 9585   3.691   4.690   7.916  1.2715 -0.4556 -1.9542
   96SAPS  H11Y 9586   3.538   4.779   7.921  0.2687  1.0247  2.1026
   96SAPS  C312 9587   3.704   4.923   7.909 -0.6153 -0.5177  0.4170
   96SAPS  H12X 9588   3.621   4.993   7.885 -1.5195 -0.8342  2.5089
   96SAPS  H12Y 9589   3.791   4.947   7.844  0.6471  0.1693  2.2945
   96SAPS  C313 9590   3.736   4.942   8.062  0.2114 -0.4500  0.1526
   96SAPS  H13X 9591   3.816   4.876   8.103 -0.1341  0.5234  2.4663
   96SAPS  H13Y 9592   3.637   4.935   8.111  0.7955 -1.3996  1.2284
   96SAPS  C314 9593   3.792   5.077   8.105 -0.5587 -0.9009  0.0216
   96SAPS  H14X 9594   3.763   5.156   8.033  0.0974  0.3754  1.1278
   96SAPS  H14Y 9595   3.902   5.062   8.109 -0.6973 -1.9619 -0.1290
   96SAPS  C315 9596   3.756   5.114   8.253  0.3161 -0.5523 -0.0767
   96SAPS  H15X 9597   3.741   5.028   8.322 -0.7076 -0.6935 -0.4623
   96SAPS  H15Y 9598   3.660   5.168   8.243  1.2784  0.9800 -1.2431
   96SAPS  C316 9599   3.847   5.220   8.321  0.5435 -0.1969 -0.0085
   96SAPS  H16X 9600   3.936   5.160   8.353 -0.0044 -0.0866  1.7640
   96SAPS  H16Y 9601   3.791   5.246   8.412 -0.4002 -1.6516 -0.1581
   96SAPS  C317 9602   3.895   5.329   8.226 -0.2500 -0.0086  0.2800
   96SAPS  H17X 9603   3.802   5.362   8.173 -0.1963  0.3288  0.3968
   96SAPS  H17Y 9604   3.950   5.280   8.143 -1.2226  0.3513 -0.5919
   96SAPS  C318 9605   3.986   5.442   8.290 -0.2709  0.2563 -0.0913
   96SAPS  H18X 9606   4.081   5.413   8.340 -0.4847 -0.2344  0.0295
   96SAPS  H18Y 9607   3.930   5.511   8.357  1.6348  1.4638  0.3071
   96SAPS  H18Z 9608   4.008   5.512   8.207  0.0284  1.0888  0.6791
   97SAPS     N 9609   3.869   2.245   6.101  0.8644  0.0281 -0.3831
   97SAPS   HN1 9610   3.922   2.291   6.024  1.3854 -1.0356 -0.6605
   97SAPS   HN2 9611   3.941   2.207   6.165  2.2903  0.0688 -1.9243
   97SAPS   HN3 9612   3.809   2.165   6.075 -0.1983 -0.0356  2.1208
   97SAPS   C12 9613   3.784   2.350   6.183 -0.1711  0.4292 -0.4804
   97SAPS  H12A 9614   3.852   2.401   6.249 -0.5132  1.4665 -0.9211
   97SAPS   C13 9615   3.687   2.447   6.114  0.6508  0.3752  0.1480
   97SAPS  O13A 9616   3.652   2.423   5.994  0.7214 -0.5018  0.1045
   97SAPS  O13B 9617   3.657   2.550   6.177  0.4874 -0.3577  0.2903
   97SAPS   C11 9618   3.681   2.268   6.276 -0.3768  0.6323 -0.2431
   97SAPS  H11A 9619   3.604   2.228   6.206 -1.2241  1.2284  0.3471
   97SAPS  H11B 9620   3.625   2.328   6.350  1.1913 -2.0698  3.2512
   97SAPS     P 9621   3.827   2.163   6.471 -0.4926  0.2775 -0.3223
   97SAPS   O13 9622   3.884   2.021   6.483 -0.5715  0.2598 -0.5397
   97SAPS   O14 9623   3.923   2.276   6.471 -0.0769 -0.5055 -0.6580
   97SAPS   O12 9624   3.739   2.159   6.338 -0.0915 -0.4894  0.2695
   97SAPS   O11 9625   3.719   2.187   6.573 -0.6037 -0.1058  0.1719
   97SAPS    C1 9626   3.657   2.075   6.641  0.4350 -0.0882  0.3394
   97SAPS    HA 9627   3.605   2.012   6.566  0.0317 -0.9739  1.3465
   97SAPS    HB 9628   3.733   2.015   6.694  1.4434  1.9397  1.2595
   97SAPS    C2 9629   3.560   2.128   6.755 -0.4559 -0.2631 -0.4368
   97SAPS    HS 9630   3.484   2.194   6.710 -0.4397  0.3815  0.4621
   97SAPS   O21 9631   3.648   2.205   6.845 -0.0943 -0.4947 -0.8195
   97SAPS   C21 9632   3.576   2.280   6.928 -0.2896 -0.1255 -0.2586
   97SAPS   O22 9633   3.455   2.295   6.929 -0.4101  0.2769 -0.5258
   97SAPS   C22 9634   3.668   2.357   7.021 -0.0306 -0.2521 -0.9000
   97SAPS   H2R 9635   3.696   2.451   6.970 -2.3256  0.8531 -0.1638
   97SAPS   H2S 9636   3.608   2.386   7.109 -2.3272 -0.0469 -2.4979
   97SAPS    C3 9637   3.479   2.004   6.825 -0.3804  0.4548  0.3357
   97SAPS    HX 9638   3.563   1.954   6.879 -0.9708  0.5590  1.3579
   97SAPS    HY 9639   3.458   1.918   6.758  1.5233  0.1184  0.1185
   97SAPS   O31 9640   3.368   2.039   6.918  0.1564 -0.4845 -0.3090
   97SAPS   C31 9641   3.251   2.053   6.857 -0.4654 -0.3071  0.5338
   97SAPS   O32 9642   3.235   2.052   6.736 -0.1927  0.1260 -0.5170
   97SAPS   C32 9643   3.148   2.052   6.966  0.2381 -0.1346 -1.0112
   97SAPS   H2X 9644   3.118   2.157   6.986  2.2530  0.1627  0.5949
   97SAPS   H2Y 9645   3.186   2.004   7.059  0.7280  2.8510  0.3814
   97SAPS   C23 9646   3.801   2.300   7.073  0.0977  0.2700  1.1296
   97SAPS   H3R 9647   3.863   2.372   7.130  3.4304 -1.8039  0.2767
   97SAPS   H3S 9648   3.860   2.248   6.995 -1.4715 -1.9723  1.3695
   97SAPS   C24 9649   3.780   2.190   7.174 -1.0573 -0.4171  0.3167
   97SAPS   H4R 9650   3.729   2.239   7.259 -0.3951  1.6033 -0.4103
   97SAPS   H4S 9651   3.877   2.153   7.214 -0.2358  0.7869 -0.4932
   97SAPS   C25 9652   3.707   2.067   7.125  0.0844 -0.0835 -0.1958
   97SAPS   H5R 9653   3.713   2.045   7.017 -0.6840  0.1576 -0.2934
   97SAPS   C26 9654   3.633   1.988   7.199 -0.0426 -0.1814 -0.5144
   97SAPS   H6R 9655   3.592   1.895   7.157 -0.2661 -1.3935  2.2310
   97SAPS   C27 9656   3.610   2.017   7.353  0.0825  0.0821  0.2341
   97SAPS   H7R 9657   3.509   1.984   7.382  0.8404 -0.4587  2.3615
   97SAPS   H7S 9658   3.608   2.126   7.375 -0.4475 -0.0230  0.6876
   97SAPS   C28 9659   3.706   1.965   7.455 -0.5300  0.6302 -0.3360
   97SAPS   H8R 9660   3.751   2.046   7.514 -0.5485 -0.6705  1.4911
   97SAPS   C29 9661   3.746   1.839   7.475  0.1773  0.4394 -0.4159
   97SAPS   H9R 9662   3.815   1.828   7.560 -2.2699  1.1741  1.7642
   97SAPS  C210 9663   3.697   1.724   7.389 -0.0819  0.6063 -0.7347
   97SAPS  H10R 9664   3.749   1.735   7.291 -0.2787 -1.1233 -1.0480
   97SAPS  H10S 9665   3.587   1.726   7.371 -0.4940  1.0622  1.7586
   97SAPS  C211 9666   3.743   1.596   7.439  0.7648  0.3366  0.6096
   97SAPS  H11R 9667   3.840   1.565   7.397 -0.9899  0.0514 -3.5220
   97SAPS  C212 9668   3.685   1.506   7.524 -0.9159 -0.5596  0.5381
   97SAPS  H12R 9669   3.734   1.413   7.556  1.8035  0.5551 -0.2662
   97SAPS  C213 9670   3.550   1.506   7.590  0.6033 -0.3470  0.1587
   97SAPS  H13R 9671   3.480   1.447   7.526  0.8857  0.6478 -1.0709
   97SAPS  H13S 9672   3.512   1.609   7.572  1.4148  0.4225  2.5884
   97SAPS  C214 9673   3.542   1.483   7.742  0.2909 -1.0604  0.3305
   97SAPS  H14R 9674   3.545   1.376   7.766 -0.7108 -1.4373 -1.1616
   97SAPS  C215 9675   3.524   1.582   7.834  0.0539  0.5949  0.2863
   97SAPS  H15R 9676   3.533   1.551   7.939 -2.2920 -0.1827  0.2786
   97SAPS  C216 9677   3.523   1.734   7.813  0.0239 -0.5641  0.4684
   97SAPS  H16R 9678   3.422   1.776   7.835 -0.2081  0.6945 -2.7316
   97SAPS  H16S 9679   3.564   1.763   7.714 -1.2289 -0.1773  0.0554
   97SAPS  C217 9680   3.602   1.803   7.923  0.1276 -0.3129 -0.0670
   97SAPS  H17R 9681   3.647   1.734   7.998  0.8646 -0.0054 -0.2262
   97SAPS  H17S 9682   3.533   1.878   7.966  0.1769 -0.3295  0.0420
   97SAPS  C218 9683   3.715   1.892   7.868 -0.3376 -0.1746  0.5061
   97SAPS  H18R 9684   3.740   1.972   7.941  1.9897  0.5304 -1.0175
   97SAPS  H18S 9685   3.691   1.945   7.774  0.6336 -0.9075 -0.1558
   97SAPS  C219 9686   3.839   1.806   7.849  0.4713  0.6114  0.3325
   97SAPS  H19R 9687   3.831   1.720   7.780 -1.6160 -0.5586  1.9586
   97SAPS  H19S 9688   3.858   1.756   7.947  1.0219  2.7130  1.3478
   97SAPS  C220 9689   3.958   1.898   7.817  0.4513  0.6743  0.4001
   97SAPS  H20R 9690   4.044   1.829   7.806 -1.6051 -1.8184 -0.6084
   97SAPS  H20S 9691   3.989   1.964   7.901 -0.3403  0.7783  0.6211
   97SAPS  H20T 9692   3.940   1.951   7.721 -0.1459 -0.1439  0.0519
   97SAPS   C33 9693   3.023   1.983   6.925 -0.2321 -0.0709  0.5239
   97SAPS   H3X 9694   3.032   1.876   6.955  0.3229  0.0465  0.7750
   97SAPS   H3Y 9695   3.005   1.990   6.816  0.0840 -0.9651  0.4122
   97SAPS   C34 9696   2.891   2.040   6.996  0.0310 -0.4721  0.4210
   97SAPS   H4X 9697   2.796   2.001   6.954  0.9098 -0.3727 -1.6932
   97SAPS   H4Y 9698   2.896   2.151   6.993  0.5028 -0.5264 -0.7625
   97SAPS   C35 9699   2.898   2.003   7.143  0.0283 -0.7702  0.1020
   97SAPS   H5X 9700   2.993   2.026   7.197  1.1520 -2.7042 -1.0163
   97SAPS   H5Y 9701   2.895   1.892   7.134  1.8733 -0.7083 -1.6336
   97SAPS   C36 9702   2.787   2.073   7.223  0.3023  0.0672  0.2114
   97SAPS   H6X 9703   2.690   2.073   7.168  0.8483 -0.7351 -0.7585
   97SAPS   H6Y 9704   2.802   2.182   7.234  0.2099  0.0967  0.0428
   97SAPS   C37 9705   2.785   2.012   7.364 -0.1122  0.8044  0.1337
   97SAPS   H7X 9706   2.882   2.026   7.415  0.7561 -2.6583 -0.4554
   97SAPS   H7Y 9707   2.766   1.903   7.357  0.7794  0.7412 -1.4037
   97SAPS   C38 9708   2.668   2.075   7.443  0.6037  0.2807  0.1357
   97SAPS   H8X 9709   2.576   2.056   7.384  0.9073  0.7098 -0.4806
   97SAPS   H8Y 9710   2.689   2.184   7.449 -0.0239  0.4818 -1.2161
   97SAPS   C39 9711   2.652   2.029   7.588  0.1125 -0.3834 -1.0104
   97SAPS   H9X 9712   2.683   1.922   7.584  0.1663 -0.5095  1.7888
   97SAPS   H9Y 9713   2.544   2.032   7.612  0.2788  0.3786 -0.3242
   97SAPS  C310 9714   2.742   2.110   7.687  0.6034 -0.1227 -0.0175
   97SAPS  H10X 9715   2.720   2.219   7.679  0.2506 -0.2497 -0.8881
   97SAPS  H10Y 9716   2.846   2.101   7.651  1.7003  3.0187  2.1698
   97SAPS  C311 9717   2.747   2.057   7.829 -0.4295  0.1301  0.3993
   97SAPS  H11X 9718   2.824   2.115   7.883 -2.0284  1.6221  1.1306
   97SAPS  H11Y 9719   2.770   1.949   7.839  0.9987  0.2034 -1.6556
   97SAPS  C312 9720   2.616   2.068   7.907  0.4078 -0.0570 -0.0288
   97SAPS  H12X 9721   2.533   2.006   7.868 -0.1177  1.4105 -1.3165
   97SAPS  H12Y 9722   2.590   2.177   7.905  0.2026  0.0376  3.9481
   97SAPS  C313 9723   2.638   2.022   8.052  0.1086  0.2867 -0.0294
   97SAPS  H13X 9724   2.727   2.077   8.090 -0.7364  2.0035 -0.4626
   97SAPS  H13Y 9725   2.650   1.913   8.065  0.3596  0.5348  2.0174
   97SAPS  C314 9726   2.518   2.060   8.138 -0.2472 -0.0094 -0.2941
   97SAPS  H14X 9727   2.495   2.162   8.100 -1.5473  0.2470  1.1089
   97SAPS  H14Y 9728   2.556   2.062   8.242  1.0776 -0.3010 -0.7586
   97SAPS  C315 9729   2.396   1.968   8.135  0.4630  0.2693  0.9124
   97SAPS  H15X 9730   2.399   1.911   8.039 -0.5624 -0.3173  1.2233
   97SAPS  H15Y 9731   2.297   2.013   8.159  0.4080 -0.7729  2.6694
   97SAPS  C316 9732   2.411   1.851   8.241  0.0165  0.5759 -0.3150
   97SAPS  H16X 9733   2.418   1.890   8.345 -1.8715  0.5145 -0.1500
   97SAPS  H16Y 9734   2.501   1.789   8.220 -1.3435 -1.4235 -0.4040
   97SAPS  C317 9735   2.279   1.771   8.240  0.5671  0.9282 -0.2014
   97SAPS  H17X 9736   2.266   1.719   8.143 -2.0309  0.7669  0.1997
   97SAPS  H17Y 9737   2.193   1.842   8.246 -1.2620 -1.2286  0.0514
   97SAPS  C318 9738   2.269   1.656   8.346 -0.5308  0.1597 -0.5788
   97SAPS  H18X 9739   2.361   1.594   8.335 -0.2268  0.4878  0.1102
   97SAPS  H18Y 9740   2.177   1.595   8.333 -0.9443  1.0286 -1.8334
   97SAPS  H18Z 9741   2.279   1.691   8.450  0.6435 -0.3077 -0.5205
   98SAPS     N 9742   0.719   3.087   5.835 -0.0156 -0.0102 -0.7991
   98SAPS   HN1 9743   0.705   3.171   5.894  0.6341  0.1342 -0.8456
   98SAPS   HN2 9744   0.655   3.105   5.754 -1.2011 -0.4720  0.0205
   98SAPS   HN3 9745   0.672   3.005   5.879 -0.9340  0.5351 -0.7539
   98SAPS   C12 9746   0.854   3.057   5.792 -0.1696  0.5873 -0.2554
   98SAPS  H12A 9747   0.846   2.975   5.722  1.8037 -1.3263  1.6782
   98SAPS   C13 9748   0.932   3.172   5.722  0.4341 -0.3925 -0.2472
   98SAPS  O13A 9749   0.867   3.280   5.689 -0.0462  0.2076  0.1388
   98SAPS  O13B 9750   1.047   3.155   5.677 -0.3945 -0.3207 -1.0709
   98SAPS   C11 9751   0.935   3.009   5.913  0.1168  0.6629  0.5519
   98SAPS  H11A 9752   0.933   3.090   5.990  1.0501 -0.3730  1.6759
   98SAPS  H11B 9753   1.041   2.996   5.883 -1.0950 -1.6158 -2.9362
   98SAPS     P 9754   0.933   2.752   5.961 -0.1432  0.0907 -0.2797
   98SAPS   O13 9755   0.859   2.687   5.849  0.5481  0.1450 -0.4551
   98SAPS   O14 9756   1.077   2.760   5.941  0.0086  0.4070 -0.7181
   98SAPS   O12 9757   0.879   2.900   5.986  0.8082 -0.2311 -0.6122
   98SAPS   O11 9758   0.896   2.692   6.104 -0.3459  0.7208 -0.3074
   98SAPS    C1 9759   0.977   2.591   6.176  0.4130 -1.4835  0.0155
   98SAPS    HA 9760   0.923   2.497   6.203 -1.2610 -0.8296 -1.0059
   98SAPS    HB 9761   1.067   2.560   6.119  0.1043 -1.1107 -0.6859
   98SAPS    C2 9762   1.033   2.650   6.307 -0.5374 -0.5642  0.7076
   98SAPS    HS 9763   1.130   2.601   6.333  0.4864 -0.0976 -2.0807
   98SAPS   O21 9764   0.932   2.637   6.403 -0.1247 -0.3113  0.6398
   98SAPS   C21 9765   0.939   2.519   6.464 -0.0993 -0.5184 -0.3707
   98SAPS   O22 9766   1.034   2.444   6.451 -0.1944  0.0775 -0.3904
   98SAPS   C22 9767   0.822   2.496   6.551 -0.5610 -0.0093  0.2438
   98SAPS   H2R 9768   0.822   2.586   6.618  0.5752 -1.0528  1.6744
   98SAPS   H2S 9769   0.726   2.491   6.496 -0.5787  0.0638  0.2672
   98SAPS    C3 9770   1.064   2.809   6.291  0.5443  0.1090  0.8648
   98SAPS    HX 9771   0.971   2.860   6.259 -0.6262 -2.1118  0.6164
   98SAPS    HY 9772   1.136   2.821   6.207  0.9621  0.6497  1.2938
   98SAPS   O31 9773   1.106   2.878   6.413 -0.6308  1.1946  0.6069
   98SAPS   C31 9774   1.227   2.849   6.453 -0.1454 -0.4743 -0.5908
   98SAPS   O32 9775   1.317   2.789   6.395 -0.2919 -0.0292  0.3279
   98SAPS   C32 9776   1.233   2.891   6.599  0.8107 -0.0909 -0.4506
   98SAPS   H2X 9777   1.168   2.978   6.622  0.4112 -0.4335 -0.2787
   98SAPS   H2Y 9778   1.338   2.921   6.624  0.2904  0.0083  1.7396
   98SAPS   C23 9779   0.837   2.373   6.640  0.0785 -0.5521 -0.2576
   98SAPS   H3R 9780   0.930   2.379   6.700  1.2758 -1.2066 -1.9866
   98SAPS   H3S 9781   0.838   2.287   6.570  0.9073 -1.6761  1.1252
   98SAPS   C24 9782   0.709   2.368   6.728  0.3067  0.4808  0.2349
   98SAPS   H4R 9783   0.624   2.358   6.656 -1.0179 -1.7692  2.0295
   98SAPS   H4S 9784   0.700   2.465   6.781  2.1086  0.6136  0.3282
   98SAPS   C25 9785   0.711   2.238   6.816 -0.2736 -0.1682  0.7463
   98SAPS   H5R 9786   0.707   2.145   6.757 -1.9502 -0.2237  0.9430
   98SAPS   C26 9787   0.713   2.238   6.951 -0.4273  0.1401 -0.2582
   98SAPS   H6R 9788   0.704   2.140   7.001  0.8014  0.5159  0.7151
   98SAPS   C27 9789   0.705   2.357   7.042 -0.0976  0.8001 -0.1242
   98SAPS   H7R 9790   0.790   2.423   7.017  1.0713 -0.6325  0.0062
   98SAPS   H7S 9791   0.726   2.326   7.147 -1.1826  0.4077 -0.0165
   98SAPS   C28 9792   0.579   2.429   7.049 -0.0054 -0.5729 -0.0187
   98SAPS   H8R 9793   0.523   2.435   6.955 -0.2870  2.3424  0.2909
   98SAPS   C29 9794   0.525   2.502   7.148 -0.0112 -0.7746  0.2335
   98SAPS   H9R 9795   0.423   2.544   7.141  1.0101  1.3053 -3.3229
   98SAPS  C210 9796   0.580   2.513   7.288 -0.2555 -0.1233 -0.1056
   98SAPS  H10R 9797   0.684   2.477   7.302 -0.8666 -1.7697  0.3415
   98SAPS  H10S 9798   0.525   2.439   7.351 -3.5714  3.6311  1.6512
   98SAPS  C211 9799   0.581   2.649   7.344 -0.8265  0.1632  0.7882
   98SAPS  H11R 9800   0.589   2.726   7.265  0.1554  0.1223  0.8426
   98SAPS  C212 9801   0.590   2.684   7.472  0.0186 -0.2215 -0.3200
   98SAPS  H12R 9802   0.580   2.791   7.493 -0.7645 -0.9875  3.4878
   98SAPS  C213 9803   0.599   2.595   7.590 -0.0761 -0.9984  0.5462
   98SAPS  H13R 9804   0.676   2.633   7.661  1.8762  1.0873 -2.5817
   98SAPS  H13S 9805   0.641   2.501   7.548 -0.8884 -0.5870 -1.2435
   98SAPS  C214 9806   0.479   2.562   7.665 -0.8456 -0.0338 -0.5294
   98SAPS  H14R 9807   0.382   2.575   7.615 -0.4831  1.5029 -0.8771
   98SAPS  C215 9808   0.485   2.517   7.793 -0.2646 -0.1554 -0.7356
   98SAPS  H15R 9809   0.396   2.526   7.858 -0.5244 -0.2891 -1.0701
   98SAPS  C216 9810   0.607   2.499   7.878 -0.1493 -0.3940 -0.3349
   98SAPS  H16R 9811   0.692   2.478   7.809  0.0909  0.3126 -0.2605
   98SAPS  H16S 9812   0.604   2.405   7.936  0.1361 -0.6154 -0.6748
   98SAPS  C217 9813   0.627   2.603   7.989 -0.3708  0.7318  0.1259
   98SAPS  H17R 9814   0.582   2.700   7.959 -1.6309 -0.2544 -1.2067
   98SAPS  H17S 9815   0.733   2.627   8.012  0.3221 -2.3588  0.3482
   98SAPS  C218 9816   0.556   2.551   8.120 -0.5094 -0.1019 -0.3658
   98SAPS  H18R 9817   0.610   2.456   8.141  2.1039  1.4177 -0.0058
   98SAPS  H18S 9818   0.448   2.550   8.094 -0.5033 -0.1871 -0.3878
   98SAPS  C219 9819   0.593   2.652   8.241  0.4274  0.9920  0.0969
   98SAPS  H19R 9820   0.559   2.751   8.204  0.5251  1.3059  0.8263
   98SAPS  H19S 9821   0.703   2.645   8.259  0.2895 -1.1525  0.1886
   98SAPS  C220 9822   0.524   2.618   8.374 -0.0287  0.4853 -1.1955
   98SAPS  H20R 9823   0.561   2.519   8.410 -0.0762  0.8652 -0.0892
   98SAPS  H20S 9824   0.418   2.593   8.350 -0.1652 -0.4947  0.3820
   98SAPS  H20T 9825   0.550   2.691   8.453 -1.1905 -0.5075  0.1431
   98SAPS   C33 9826   1.184   2.773   6.692  0.3689 -0.0910 -0.4105
   98SAPS   H3X 9827   1.091   2.737   6.644  0.9053 -0.9871 -0.7791
   98SAPS   H3Y 9828   1.159   2.809   6.794 -3.3129 -2.3058 -0.4550
   98SAPS   C34 9829   1.292   2.664   6.715  0.0266 -0.1590 -0.1546
   98SAPS   H4X 9830   1.356   2.707   6.796 -0.8842 -0.1296  0.5637
   98SAPS   H4Y 9831   1.351   2.648   6.623  1.2757  0.2952  0.5536
   98SAPS   C35 9832   1.237   2.531   6.774 -0.2744  0.2212 -0.8646
   98SAPS   H5X 9833   1.307   2.446   6.757 -0.8391 -1.0446  2.7469
   98SAPS   H5Y 9834   1.148   2.504   6.713 -1.6928  1.7965  0.4865
   98SAPS   C36 9835   1.188   2.540   6.922  0.0610 -0.1043 -0.4714
   98SAPS   H6X 9836   1.092   2.485   6.935  2.2664 -3.9211  0.3100
   98SAPS   H6Y 9837   1.175   2.649   6.942 -0.5640 -0.3367  0.4404
   98SAPS   C37 9838   1.290   2.480   7.021  0.7505 -0.0532 -0.0119
   98SAPS   H7X 9839   1.382   2.542   7.028  0.5833  0.3136 -1.0291
   98SAPS   H7Y 9840   1.320   2.376   6.995 -0.5558 -1.1755  2.8033
   98SAPS   C38 9841   1.246   2.472   7.170  0.0600 -0.3313 -0.1194
   98SAPS   H8X 9842   1.245   2.575   7.212  0.1839 -0.5387  0.3965
   98SAPS   H8Y 9843   1.306   2.403   7.233 -1.5670 -0.5899  1.1772
   98SAPS   C39 9844   1.115   2.413   7.201  0.7375 -0.3275  0.9297
   98SAPS   H9X 9845   1.088   2.319   7.149  0.7578  1.2545 -2.0441
   98SAPS   H9Y 9846   1.039   2.492   7.180  1.7886  0.1897 -1.0670
   98SAPS  C310 9847   1.085   2.389   7.355 -0.1479  0.3188  0.3573
   98SAPS  H10X 9848   0.994   2.327   7.343  0.8950 -0.9155 -1.3070
   98SAPS  H10Y 9849   1.057   2.491   7.389 -0.0775 -0.1591  1.8804
   98SAPS  C311 9850   1.192   2.325   7.440 -0.2338  0.9711 -0.4641
   98SAPS  H11X 9851   1.277   2.394   7.457  0.2163  0.1382  0.6940
   98SAPS  H11Y 9852   1.250   2.241   7.394  2.2598  2.1254  0.5022
   98SAPS  C312 9853   1.140   2.281   7.571  0.9174 -0.3294 -0.7795
   98SAPS  H12X 9854   1.218   2.258   7.647  0.2575  1.1215  0.3526
   98SAPS  H12Y 9855   1.084   2.185   7.562 -0.3201 -0.1008  3.4079
   98SAPS  C313 9856   1.036   2.367   7.644  0.0475 -0.1661 -0.6493
   98SAPS  H13X 9857   1.000   2.314   7.735  2.6331  0.4445  0.7919
   98SAPS  H13Y 9858   0.950   2.378   7.574 -1.4628 -2.7276  0.7280
   98SAPS  C314 9859   1.090   2.498   7.698  0.4418 -0.2202 -0.2843
   98SAPS  H14X 9860   1.148   2.544   7.614  1.8641 -1.9824 -0.2925
   98SAPS  H14Y 9861   1.150   2.482   7.790 -2.1854  1.7999  1.8585
   98SAPS  C315 9862   0.976   2.587   7.733  0.1755 -0.4201  0.7643
   98SAPS  H15X 9863   0.939   2.581   7.837 -3.6079  1.0845 -0.4031
   98SAPS  H15Y 9864   0.892   2.563   7.663 -0.8002  3.1202  0.6534
   98SAPS  C316 9865   1.014   2.730   7.706  0.2573 -0.1334 -0.0945
   98SAPS  H16X 9866   1.044   2.738   7.599  1.6286 -2.1926  0.1071
   98SAPS  H16Y 9867   1.101   2.752   7.771 -0.4575  0.5877  0.6272
   98SAPS  C317 9868   0.896   2.835   7.732  0.0080  0.4203 -0.2971
   98SAPS  H17X 9869   0.869   2.794   7.831  0.9410 -2.7047 -1.2631
   98SAPS  H17Y 9870   0.824   2.807   7.652  0.2718 -3.5207  0.7597
   98SAPS  C318 9871   0.956   2.978   7.732  0.4318 -0.1125  0.2593
   98SAPS  H18X 9872   0.875   3.054   7.736  1.0602  0.5197  1.3742
   98SAPS  H18Y 9873   1.007   2.986   7.634  0.6319 -0.7300  0.3141
   98SAPS  H18Z 9874   1.029   2.999   7.814  0.2135  1.8367 -0.0130
   99SAPS     N 9875   0.474   6.783   6.004  0.1014 -0.5809 -0.6571
   99SAPS   HN1 9876   0.407   6.715   5.963 -2.6165  0.3244  2.1527
   99SAPS   HN2 9877   0.416   6.851   6.055 -1.3342  0.2435 -3.2964
   99SAPS   HN3 9878   0.537   6.829   5.934  0.6464  3.6180  2.4154
   99SAPS   C12 9879   0.572   6.712   6.081  0.1183 -0.0072  0.0395
   99SAPS  H12A 9880   0.518   6.647   6.148  0.3337 -2.1636 -1.8246
   99SAPS   C13 9881   0.676   6.624   6.009  0.1472  0.6125 -0.1985
   99SAPS  O13A 9882   0.666   6.608   5.889 -0.2068 -0.0812  0.1048
   99SAPS  O13B 9883   0.752   6.559   6.083 -0.4290 -0.2100  0.3043
   99SAPS   C11 9884   0.659   6.813   6.172  0.0497  0.1577 -0.5662
   99SAPS  H11A 9885   0.709   6.889   6.109  0.3959  0.1788 -0.2644
   99SAPS  H11B 9886   0.745   6.760   6.218 -1.3021 -0.4715  1.3657
   99SAPS     P 9887   0.534   6.815   6.404 -0.2526 -0.3166 -0.3051
   99SAPS   O13 9888   0.487   6.918   6.500  0.4213 -0.3094  0.3185
   99SAPS   O14 9889   0.441   6.702   6.368  0.1863  0.5070 -0.1790
   99SAPS   O12 9890   0.567   6.881   6.268 -0.5665 -0.0466 -0.5760
   99SAPS   O11 9891   0.670   6.754   6.453 -0.2690  0.2731 -0.5662
   99SAPS    C1 9892   0.786   6.836   6.495  0.1802  0.2576  0.4324
   99SAPS    HA 9893   0.853   6.861   6.409 -0.6327 -0.1067 -0.3103
   99SAPS    HB 9894   0.747   6.935   6.526  0.5560  1.8200 -3.6777
   99SAPS    C2 9895   0.874   6.770   6.604 -0.0527 -0.3484 -0.2127
   99SAPS    HS 9896   0.899   6.666   6.572 -0.8313 -0.9478  1.0553
   99SAPS   O21 9897   0.795   6.764   6.725 -0.3937 -0.3907 -0.4843
   99SAPS   C21 9898   0.811   6.651   6.798 -1.0848 -0.7002 -0.1225
   99SAPS   O22 9899   0.880   6.558   6.776 -0.2208 -0.5767  0.2565
   99SAPS   C22 9900   0.715   6.665   6.913 -0.2724  0.2619 -0.6567
   99SAPS   H2R 9901   0.684   6.566   6.953  0.1630 -0.1479 -1.3250
   99SAPS   H2S 9902   0.764   6.717   6.998  1.0608 -0.8527 -0.7247
   99SAPS    C3 9903   1.008   6.850   6.622  0.5097  0.2898  0.5307
   99SAPS    HX 9904   0.975   6.956   6.625 -0.3700  0.0432 -0.3765
   99SAPS    HY 9905   1.074   6.823   6.537  0.4932  0.5196  0.4447
   99SAPS   O31 9906   1.071   6.827   6.746  0.0480  0.1073 -0.3414
   99SAPS   C31 9907   1.187   6.885   6.760  0.1194 -0.1510 -0.8121
   99SAPS   O32 9908   1.238   6.962   6.681  0.4866  0.1785 -0.8138
   99SAPS   C32 9909   1.242   6.842   6.902 -0.0614  0.3908  0.4557
   99SAPS   H2X 9910   1.318   6.921   6.919 -0.7952  1.1885  0.0456
   99SAPS   H2Y 9911   1.300   6.747   6.898  0.3510  0.5448  2.5111
   99SAPS   C23 9912   0.586   6.737   6.873 -0.0200  0.6420  0.1756
   99SAPS   H3R 9913   0.541   6.683   6.786  0.5500 -1.2673  1.0554
   99SAPS   H3S 9914   0.607   6.840   6.839  1.4238  1.4054  3.2601
   99SAPS   C24 9915   0.491   6.734   6.998 -0.2310  0.1165  0.1825
   99SAPS   H4R 9916   0.481   6.626   7.023  2.4013 -0.1358  0.2977
   99SAPS   H4S 9917   0.397   6.782   6.964  0.0060  0.8710  0.5844
   99SAPS   C25 9918   0.548   6.810   7.115  0.4901 -0.1084 -0.0065
   99SAPS   H5R 9919   0.602   6.903   7.093  1.1573 -0.3058  0.7797
   99SAPS   C26 9920   0.550   6.781   7.248  0.2556  0.1350  0.2570
   99SAPS   H6R 9921   0.602   6.852   7.314  2.5676 -1.4132  0.1573
   99SAPS   C27 9922   0.484   6.663   7.313  0.0359  0.4286 -0.7031
   99SAPS   H7R 9923   0.423   6.596   7.248  1.0713 -1.4173  0.1765
   99SAPS   H7S 9924   0.421   6.699   7.397  0.7064  1.8552 -0.8021
   99SAPS   C28 9925   0.594   6.579   7.381 -0.2641  0.0839  0.9148
   99SAPS   H8R 9926   0.623   6.496   7.315  2.1697  0.4744  1.4537
   99SAPS   C29 9927   0.662   6.605   7.500  0.2769 -0.5916  0.1355
   99SAPS   H9R 9928   0.738   6.531   7.530  0.3782 -0.7005 -0.3914
   99SAPS  C210 9929   0.636   6.719   7.593  1.2194  0.3530 -0.0822
   99SAPS  H10R 9930   0.528   6.748   7.595  0.9743 -0.6083  1.7489
   99SAPS  H10S 9931   0.687   6.808   7.549  1.8371 -1.5896 -3.4490
   99SAPS  C211 9932   0.688   6.683   7.732  0.2847 -1.0208 -0.2991
   99SAPS  H11R 9933   0.790   6.724   7.745  0.7549 -2.1591 -0.3239
   99SAPS  C212 9934   0.620   6.633   7.840 -0.3839 -0.7704 -0.4323
   99SAPS  H12R 9935   0.675   6.635   7.935 -1.0381  1.1386 -0.0619
   99SAPS  C213 9936   0.476   6.585   7.842 -0.4153  0.5193  0.0251
   99SAPS  H13R 9937   0.473   6.474   7.852  0.8478  0.5279  0.6864
   99SAPS  H13S 9938   0.429   6.598   7.743 -0.3643  0.6535  0.0182
   99SAPS  C214 9939   0.396   6.661   7.944 -0.6700  0.2764  0.1010
   99SAPS  H14R 9940   0.358   6.759   7.912  0.1556  0.2180 -1.0620
   99SAPS  C215 9941   0.387   6.637   8.072 -0.1539 -0.0448 -0.3138
   99SAPS  H15R 9942   0.321   6.701   8.133  0.6009 -0.5000  1.0049
   99SAPS  C216 9943   0.453   6.527   8.150 -0.2109 -0.1534 -0.2037
   99SAPS  H16R 9944   0.515   6.573   8.229 -0.7148 -0.9225  0.6457
   99SAPS  H16S 9945   0.519   6.463   8.087  0.4937  0.3133  0.0606
   99SAPS  C217 9946   0.355   6.434   8.226 -0.2129  0.2544  0.8626
   99SAPS  H17R 9947   0.313   6.367   8.148 -0.0688  0.2995  0.7477
   99SAPS  H17S 9948   0.279   6.487   8.288  1.7328  1.3575  2.3659
   99SAPS  C218 9949   0.429   6.339   8.324  0.5226 -0.3664 -0.0818
   99SAPS  H18R 9950   0.470   6.397   8.409  0.1546  2.3870 -1.6938
   99SAPS  H18S 9951   0.511   6.290   8.268  1.0651 -0.3758  0.7177
   99SAPS  C219 9952   0.326   6.244   8.387  0.0456  0.5731 -0.3412
   99SAPS  H19R 9953   0.275   6.178   8.314  2.9546 -0.7504 -1.2435
   99SAPS  H19S 9954   0.242   6.302   8.431  0.0400  0.8308 -0.6943
   99SAPS  C220 9955   0.398   6.160   8.492  0.0646 -1.0717 -0.1161
   99SAPS  H20R 9956   0.464   6.217   8.560 -0.1253 -1.5824  0.5009
   99SAPS  H20S 9957   0.465   6.090   8.437 -0.1061 -0.3393 -1.2777
   99SAPS  H20T 9958   0.325   6.104   8.555 -2.4765  0.5144 -1.5515
   99SAPS   C33 9959   1.145   6.833   7.017 -0.3420 -0.1003  0.2931
   99SAPS   H3X 9960   1.069   6.755   6.992 -0.1685 -0.4545  0.8669
   99SAPS   H3Y 9961   1.085   6.925   7.031 -1.7512 -1.0778  0.8171
   99SAPS   C34 9962   1.217   6.797   7.147  0.7067 -0.2429 -0.5287
   99SAPS   H4X 9963   1.319   6.843   7.148 -0.5623  2.6456 -0.6586
   99SAPS   H4Y 9964   1.242   6.689   7.139  0.7038 -0.1602 -1.8547
   99SAPS   C35 9965   1.134   6.824   7.276 -0.2957  0.0781 -0.1090
   99SAPS   H5X 9966   1.035   6.774   7.272  0.2559 -1.3563  2.3330
   99SAPS   H5Y 9967   1.121   6.933   7.293  1.6678  0.2802  0.2832
   99SAPS   C36 9968   1.205   6.765   7.404 -0.5154 -0.1094  0.2744
   99SAPS   H6X 9969   1.307   6.809   7.405  0.0248 -1.3277  0.8276
   99SAPS   H6Y 9970   1.215   6.654   7.399 -0.0455 -0.1102  1.1074
   99SAPS   C37 9971   1.137   6.806   7.532 -0.3792 -0.2330 -0.8002
   99SAPS   H7X 9972   1.029   6.781   7.526 -0.4699  0.2402 -1.2035
   99SAPS   H7Y 9973   1.144   6.916   7.521  1.2244 -0.2554  0.0059
   99SAPS   C38 9974   1.189   6.756   7.666  0.9144  0.1189  0.4905
   99SAPS   H8X 9975   1.281   6.812   7.695  1.0426 -1.2816  2.8909
   99SAPS   H8Y 9976   1.215   6.649   7.651  1.4089  0.1366  1.1990
   99SAPS   C39 9977   1.088   6.775   7.787  0.1729  0.4374  0.4181
   99SAPS   H9X 9978   1.129   6.721   7.875  2.8033  1.5678 -0.0667
   99SAPS   H9Y 9979   0.990   6.733   7.757  0.4709  0.0509 -0.0174
   99SAPS  C310 9980   1.078   6.925   7.831 -0.3697  0.1954  0.3119
   99SAPS  H10X 9981   1.018   6.981   7.757 -0.3286  2.1363  1.7029
   99SAPS  H10Y 9982   1.180   6.967   7.818 -0.8397  1.1673 -0.3015
   99SAPS  C311 9983   1.044   6.938   7.983 -0.0672 -0.5468 -0.7124
   99SAPS  H11X 9984   1.120   6.898   8.053 -1.7379  2.8303  3.2035
   99SAPS  H11Y 9985   0.951   6.884   8.012 -0.1367 -0.6909 -1.1979
   99SAPS  C312 9986   1.025   7.089   8.024  0.9968 -0.1633 -0.4716
   99SAPS  H12X 9987   0.985   7.091   8.128  1.0821 -1.9226 -0.4040
   99SAPS  H12Y 9988   0.942   7.132   7.964 -0.6015  0.3111  2.0186
   99SAPS  C313 9989   1.148   7.188   8.014  0.2668 -0.0079 -0.7771
   99SAPS  H13X 9990   1.100   7.288   8.017  0.8432  0.2461  0.5500
   99SAPS  H13Y 9991   1.193   7.187   7.912  0.4776  0.9392 -0.6989
   99SAPS  C314 9992   1.257   7.152   8.114  0.4160  0.2922  0.3426
   99SAPS  H14X 9993   1.302   7.053   8.091  0.8480  0.8971 -1.4628
   99SAPS  H14Y 9994   1.203   7.137   8.210  0.2113  0.3944  0.2450
   99SAPS  C315 9995   1.350   7.270   8.139 -0.6100  0.5497 -0.9676
   99SAPS  H15X 9996   1.306   7.372   8.146  1.6652  1.4127  2.1270
   99SAPS  H15Y 9997   1.427   7.282   8.059 -0.6902  2.9190 -0.7290
   99SAPS  C316 9998   1.440   7.253   8.262 -0.1808 -0.1003  0.1384
   99SAPS  H16X 9999   1.511   7.167   8.254 -0.9576 -0.7297  0.0157
   99SAPS  H16Y10000   1.366   7.245   8.344 -1.6295 -0.0980 -1.1522
   99SAPS  C31710001   1.527   7.374   8.310  0.6172 -0.1862  0.1725
   99SAPS  H17X10002   1.542   7.357   8.419  0.0873 -0.0745  0.2629
   99SAPS  H17Y10003   1.464   7.465   8.299  0.2375 -0.2007  2.1301
   99SAPS  C31810004   1.655   7.398   8.227 -0.1835  0.3435 -0.4996
   99SAPS  H18X10005   1.682   7.506   8.224 -0.0071  0.3523  0.9989
   99SAPS  H18Y10006   1.634   7.373   8.120 -1.0716  0.0835 -0.2745
   99SAPS  H18Z10007   1.737   7.342   8.276 -0.3057  2.9870  2.9452
  100SAPS     N10008   4.013   1.855   6.275 -0.2483 -0.1386 -0.2972
  100SAPS   HN110009   4.100   1.799   6.286 -0.4688 -0.8825 -2.2791
  100SAPS   HN210010   4.045   1.942   6.227 -0.3243  0.1487  0.1622
  100SAPS   HN310011   3.963   1.880   6.363 -0.9085 -1.4942 -0.2763
  100SAPS   C1210012   3.925   1.784   6.179 -0.1998 -0.2396 -0.1593
  100SAPS  H12A10013   3.838   1.845   6.160 -1.5686 -2.3266 -0.7582
  100SAPS   C1310014   3.990   1.757   6.042  0.0525  0.0294  0.3994
  100SAPS  O13A10015   4.100   1.812   6.007 -0.0845 -0.0488  0.0860
  100SAPS  O13B10016   3.922   1.694   5.956 -0.2866  0.4053  0.3258
  100SAPS   C1110017   3.883   1.653   6.247  0.6084 -0.3851  0.1299
  100SAPS  H11A10018   3.969   1.592   6.280 -0.0992 -2.7435 -2.2026
  100SAPS  H11B10019   3.849   1.578   6.172  2.0571 -1.8066  0.8899
  100SAPS     P10020   3.644   1.632   6.349 -0.2299  0.1115  0.0268
  100SAPS   O1310021   3.553   1.743   6.391 -0.0116 -0.1954 -0.4178
  100SAPS   O1410022   3.608   1.566   6.222  0.2386 -0.0221 -0.0330
  100SAPS   O1210023   3.784   1.681   6.343 -0.2064 -0.9827  0.5753
  100SAPS   O1110024   3.657   1.523   6.478 -0.3040  0.4370 -0.0108
  100SAPS    C110025   3.788   1.492   6.546 -0.1257 -0.3752 -0.1999
  100SAPS    HA10026   3.777   1.383   6.567 -0.1885 -0.1054  1.2086
  100SAPS    HB10027   3.878   1.514   6.486  0.1427  0.1336  0.3864
  100SAPS    C210028   3.800   1.549   6.685 -0.0985  0.1385 -0.9520
  100SAPS    HS10029   3.887   1.505   6.739 -1.8185 -0.3850  1.5043
  100SAPS   O2110030   3.685   1.519   6.762 -0.1501 -0.2091 -0.6449
  100SAPS   C2110031   3.670   1.407   6.820  0.1021  0.3682 -0.0905
  100SAPS   O2210032   3.757   1.317   6.831  0.4848  0.0559 -0.0031
  100SAPS   C2210033   3.522   1.415   6.885  0.3247  0.1376  0.5100
  100SAPS   H2R10034   3.470   1.505   6.848 -2.1265 -1.7920 -0.8976
  100SAPS   H2S10035   3.466   1.328   6.844  0.8082  0.2343 -0.3588
  100SAPS    C310036   3.820   1.703   6.676 -0.8456  0.5460  0.2979
  100SAPS    HX10037   3.737   1.741   6.614 -0.6853  1.7514  0.8082
  100SAPS    HY10038   3.916   1.705   6.620 -2.0895 -1.5053 -1.9988
  100SAPS   O3110039   3.827   1.769   6.805  0.0440  0.2602  0.6011
  100SAPS   C3110040   3.936   1.759   6.876 -0.0228  0.0655 -0.6196
  100SAPS   O3210041   4.038   1.700   6.846 -0.1193 -0.1763  0.3693
  100SAPS   C3210042   3.918   1.834   7.011 -0.0462  0.3360 -0.2248
  100SAPS   H2X10043   3.818   1.812   7.054  0.0774 -3.1251 -1.5479
  100SAPS   H2Y10044   3.930   1.942   6.989 -1.8717  0.2167 -1.9452
  100SAPS   C2310045   3.520   1.415   7.043 -0.3361  0.4023  0.0101
  100SAPS   H3R10046   3.556   1.318   7.082 -2.3844 -1.7255 -3.1729
  100SAPS   H3S10047   3.415   1.418   7.080 -0.3930 -1.1132 -0.0195
  100SAPS   C2410048   3.592   1.538   7.104 -0.1139  0.1559 -0.3538
  100SAPS   H4R10049   3.700   1.532   7.079 -0.2471  2.9708 -1.7572
  100SAPS   H4S10050   3.586   1.543   7.215 -0.5720  2.2038 -0.4519
  100SAPS   C2510051   3.526   1.659   7.037 -0.0311 -0.0572  0.2608
  100SAPS   H5R10052   3.576   1.682   6.941 -1.9921 -1.5789 -1.1609
  100SAPS   C2610053   3.414   1.718   7.087  0.6990  0.2077  0.0378
  100SAPS   H6R10054   3.376   1.804   7.028 -3.2493 -2.0460 -0.9126
  100SAPS   C2710055   3.337   1.688   7.211 -0.4663 -0.0358 -0.5887
  100SAPS   H7R10056   3.373   1.763   7.286 -0.1979  0.1741 -0.9258
  100SAPS   H7S10057   3.361   1.588   7.253  0.0271 -0.2522 -1.3691
  100SAPS   C2810058   3.190   1.702   7.193  0.0092 -0.5091  0.8578
  100SAPS   H8R10059   3.160   1.659   7.096  0.7487 -0.2867  0.5286
  100SAPS   C2910060   3.108   1.751   7.289 -0.6461  1.2697  0.7342
  100SAPS   H9R10061   3.000   1.752   7.270 -0.5840  1.7119  0.4083
  100SAPS  C21010062   3.146   1.782   7.430 -0.0176  0.3427 -0.3099
  100SAPS  H10R10063   3.242   1.734   7.457 -1.4313 -2.2039  0.3720
  100SAPS  H10S10064   3.072   1.747   7.505 -0.4043  1.3815 -0.1883
  100SAPS  C21110065   3.151   1.932   7.454 -0.4582 -1.1208  0.0029
  100SAPS  H11R10066   3.177   1.990   7.364 -1.5551  0.2500  0.5654
  100SAPS  C21210067   3.160   1.992   7.577 -0.1608 -0.2236  0.0087
  100SAPS  H12R10068   3.159   2.102   7.587  1.7362  0.0190 -1.9487
  100SAPS  C21310069   3.165   1.913   7.707  0.3673 -0.3053  0.5225
  100SAPS  H13R10070   3.216   1.814   7.697  4.0782  1.6971 -1.1987
  100SAPS  H13S10071   3.063   1.897   7.749  0.4743 -0.0138  0.8968
  100SAPS  C21410072   3.229   1.992   7.822  0.3377  0.4745  0.6885
  100SAPS  H14R10073   3.318   2.052   7.798  1.6808 -1.9198 -0.5625
  100SAPS  C21510074   3.194   1.981   7.955 -0.1711  0.3987 -0.2966
  100SAPS  H15R10075   3.255   2.048   8.018  0.1204  1.1728 -1.3805
  100SAPS  C21610076   3.082   1.901   8.014 -0.5597  0.3371 -0.4719
  100SAPS  H16R10077   2.999   1.866   7.949 -0.1634  0.3972 -1.0146
  100SAPS  H16S10078   3.027   1.967   8.084 -0.2205  1.3727 -1.1671
  100SAPS  C21710079   3.144   1.780   8.088  0.4954  0.4853  0.8551
  100SAPS  H17R10080   3.208   1.722   8.017 -1.5559  1.1626 -1.5992
  100SAPS  H17S10081   3.064   1.715   8.129  1.0396 -1.1818 -0.6476
  100SAPS  C21810082   3.240   1.816   8.199 -1.0794  0.7915 -0.4078
  100SAPS  H18R10083   3.183   1.876   8.273 -1.4672 -0.7383  0.5572
  100SAPS  H18S10084   3.330   1.873   8.168 -0.1652 -0.3440  0.1594
  100SAPS  C21910085   3.297   1.692   8.261 -0.2674 -0.0887  0.0629
  100SAPS  H19R10086   3.315   1.613   8.185 -1.4906  0.1002 -0.4237
  100SAPS  H19S10087   3.214   1.642   8.315 -0.5137 -0.2897 -0.5039
  100SAPS  C22010088   3.422   1.699   8.343 -0.7583 -0.7733 -0.2508
  100SAPS  H20R10089   3.490   1.782   8.315  0.1088 -1.8513 -1.3822
  100SAPS  H20S10090   3.493   1.615   8.331  0.7855  0.7651 -2.3255
  100SAPS  H20T10091   3.396   1.713   8.451 -2.4155  2.4030 -0.9996
  100SAPS   C3310092   4.031   1.799   7.115 -0.7399  0.4440 -0.1558
  100SAPS   H3X10093   4.130   1.780   7.068 -0.5480 -0.4681  0.6040
  100SAPS   H3Y10094   4.003   1.706   7.169  0.6323 -0.1733 -0.4799
  100SAPS   C3410095   4.048   1.897   7.238 -0.0957  0.5328  1.0887
  100SAPS   H4X10096   3.953   1.900   7.295 -0.4798  2.6619  0.3873
  100SAPS   H4Y10097   4.051   1.998   7.191 -0.5265 -0.8644 -2.0210
  100SAPS   C3510098   4.170   1.885   7.328  0.3204 -0.8628 -0.0703
  100SAPS   H5X10099   4.264   1.871   7.270  0.5797  0.7011 -0.0319
  100SAPS   H5Y10100   4.158   1.786   7.377 -0.8252 -0.8183 -0.2457
  100SAPS   C3610101   4.180   2.003   7.437  0.2111  0.3763 -0.4338
  100SAPS   H6X10102   4.075   2.018   7.468 -0.1031 -0.1005 -1.2638
  100SAPS   H6Y10103   4.222   2.089   7.381  2.3736 -1.6775 -2.0966
  100SAPS   C3710104   4.269   1.975   7.558  0.3091  0.2703 -0.4931
  100SAPS   H7X10105   4.379   1.974   7.538  0.2914 -0.7540 -0.5639
  100SAPS   H7Y10106   4.243   1.876   7.601 -0.4122  0.4659 -0.4814
  100SAPS   C3810107   4.223   2.079   7.657  0.0351 -0.3539 -0.0429
  100SAPS   H8X10108   4.113   2.084   7.670 -0.0251  0.2709 -0.7453
  100SAPS   H8Y10109   4.241   2.177   7.608  0.4191 -0.8147 -0.8267
  100SAPS   C3910110   4.288   2.068   7.791  0.1952  0.2344  0.2693
  100SAPS   H9X10111   4.395   2.042   7.783 -0.0267 -0.7860  0.5521
  100SAPS   H9Y10112   4.244   1.979   7.841  0.3589 -0.5701 -1.0118
  100SAPS  C31010113   4.269   2.191   7.891  0.9003 -0.7514  0.2688
  100SAPS  H10X10114   4.161   2.185   7.918  0.6607  0.2761 -0.4117
  100SAPS  H10Y10115   4.275   2.291   7.843 -0.5766  0.4184  2.4409
  100SAPS  C31110116   4.352   2.184   8.019  0.5284  0.4848 -0.9004
  100SAPS  H11X10117   4.358   2.284   8.066 -0.3293  0.6441 -1.1348
  100SAPS  H11Y10118   4.453   2.159   7.980 -0.2034 -0.4446 -2.2146
  100SAPS  C31210119   4.318   2.084   8.129 -0.4569 -0.0030 -0.0186
  100SAPS  H12X10120   4.411   2.060   8.185 -0.5955 -2.8119 -0.9401
  100SAPS  H12Y10121   4.285   1.990   8.079  1.8398 -0.2539 -1.1052
  100SAPS  C31310122   4.198   2.132   8.210 -0.4121 -0.1834 -0.2601
  100SAPS  H13X10123   4.114   2.151   8.138 -0.5673 -0.3174 -0.1130
  100SAPS  H13Y10124   4.230   2.225   8.262 -0.8359  0.1238 -0.5479
  100SAPS  C31410125   4.157   2.024   8.321  0.5375 -0.1556  0.1718
  100SAPS  H14X10126   4.222   2.025   8.411  0.3227  2.9964  0.3202
  100SAPS  H14Y10127   4.163   1.923   8.274 -0.2238 -1.3491  2.5311
  100SAPS  C31510128   4.008   2.040   8.364  0.7254  0.1530 -0.2144
  100SAPS  H15X10129   3.964   2.126   8.309 -0.4326 -0.1248  0.2709
  100SAPS  H15Y10130   4.005   2.053   8.475  0.0126 -0.9790 -0.0953
  100SAPS  C31610131   3.928   1.916   8.321 -0.2902 -0.6919  0.3995
  100SAPS  H16X10132   3.951   1.817   8.367  1.0460 -0.8356 -0.5566
  100SAPS  H16Y10133   3.954   1.903   8.214  0.4917  2.4998  0.1626
  100SAPS  C31710134   3.780   1.932   8.339 -0.4378  0.3422 -0.3179
  100SAPS  H17X10135   3.759   1.954   8.446  3.0296 -0.4953  0.6252
  100SAPS  H17Y10136   3.732   1.834   8.323 -1.1137  0.7440 -0.7729
  100SAPS  C31810137   3.704   2.040   8.266  0.6908 -1.0442  0.3715
  100SAPS  H18X10138   3.693   2.016   8.158 -0.4544  0.4689  0.1349
  100SAPS  H18Y10139   3.758   2.136   8.270 -0.8489 -0.0252 -1.7439
  100SAPS  H18Z10140   3.605   2.058   8.313  1.4792 -2.1183  2.5068
  101OSM      N10141   3.270   1.440  11.130  0.0404 -0.1983  0.2137
  101OSM    C1510142   3.326   1.507  11.256 -0.1029 -0.5181  0.1148
  101OSM   H15A10143   3.284   1.474  11.349 -1.2263  1.6545  0.3978
  101OSM   H15B10144   3.304   1.612  11.246 -1.2664 -0.4080  3.4229
  101OSM   H15C10145   3.433   1.491  11.259 -0.0124  0.2097  0.9787
  101OSM    C1410146   3.306   1.299  11.130  0.4372 -0.1979  0.0744
  101OSM   H14A10147   3.411   1.293  11.104  0.3796  1.7531 -0.7306
  101OSM   H14B10148   3.247   1.247  11.056 -0.9637  2.3356 -0.6440
  101OSM   H14C10149   3.307   1.258  11.230  1.6353 -0.1302  0.1054
  101OSM    C1310150   3.121   1.450  11.134  0.6029  0.5236 -0.7013
  101OSM   H13A10151   3.079   1.399  11.048 -2.8875 -0.1015  1.2489
  101OSM   H13B10152   3.098   1.555  11.138  0.0280  0.4744 -2.5315
  101OSM   H13C10153   3.077   1.403  11.221 -1.3824 -0.7914 -2.3502
  101OSM    C1210154   3.317   1.500  11.002 -0.2552  0.6744  0.2178
  101OSM   H12A10155   3.314   1.607  11.011  2.7674  0.7085  1.6101
  101OSM   H12B10156   3.254   1.464  10.922  2.1348 -2.2457 -0.4699
  101OSM    C1110157   3.457   1.469  10.950 -0.1269  0.9682  0.1090
  101OSM   H11A10158   3.517   1.483  11.042  1.9138  0.3177 -1.0994
  101OSM   H11B10159   3.484   1.546  10.875  1.9794  0.9033  0.7897
  101OSM      P10160   3.619   1.288  10.879  0.3521 -0.0068  0.3902
  101OSM    O1310161   3.696   1.313  11.003  0.0622  0.3300  0.3303
  101OSM    O1410162   3.614   1.143  10.833  0.2119 -0.2916  0.4712
  101OSM    O1110163   3.682   1.373  10.757 -0.2058  0.7688  0.3927
  101OSM    O1210164   3.475   1.339  10.899 -0.1933  0.3697 -0.5895
  101OSM    C1S10165   3.594   1.389  10.640  0.7108 -1.1157  0.0148
  101OSM    H1S10166   3.510   1.460  10.659 -0.0376 -1.4388 -1.9701
  101OSM    H1T10167   3.539   1.295  10.614  1.3233 -1.1208 -1.3087
  101OSM     NF10168   3.605   1.508  10.420  0.1880  0.1266 -0.0633
  101OSM    HNF10169   3.591   1.462  10.332 -3.5063 -0.3469  0.6736
  101OSM    C2S10170   3.683   1.435  10.518 -0.5676  1.0926  0.7875
  101OSM    H2S10171   3.755   1.505  10.566 -0.0244  1.5419 -0.6568
  101OSM    C3S10172   3.761   1.317  10.453 -0.4357  0.5423  0.5225
  101OSM    H3S10173   3.695   1.240  10.408  1.2822 -0.7432  0.1543
  101OSM     O310174   3.851   1.248  10.539  0.2841  0.1272  0.1660
  101OSM    HO310175   3.825   1.262  10.631 -0.1175  1.3252 -0.1370
  101OSM    C4S10176   3.844   1.371  10.335  0.3463  0.0344 -0.3428
  101OSM    H4S10177   3.807   1.341  10.236 -2.0351 -1.6598  1.0283
  101OSM    C5S10178   3.964   1.433  10.344  0.3728  1.0413 -0.0900
  101OSM    H5S10179   4.005   1.452  10.445 -0.8262  0.2415  0.5531
  101OSM    C6S10180   4.049   1.475  10.230 -0.0181 -0.0050  0.3960
  101OSM    H6S10181   4.130   1.400  10.222 -0.7754 -1.0083  1.9666
  101OSM    H6T10182   4.112   1.563  10.255  2.0541 -1.6121  0.8892
  101OSM    C7S10183   3.995   1.499  10.094 -0.2295 -0.4681 -0.5193
  101OSM    H7S10184   3.899   1.555  10.099 -0.0426 -0.2849  1.1299
  101OSM    H7T10185   3.963   1.398  10.061 -1.3099  0.5351 -2.6619
  101OSM    C8S10186   4.094   1.545   9.986 -1.1638  0.1259  0.4577
  101OSM    H8S10187   4.185   1.481   9.992  0.6126  2.2972 -2.2538
  101OSM    H8T10188   4.130   1.648  10.007  3.1934 -1.0913 -0.5799
  101OSM    C9S10189   4.043   1.553   9.838  0.0482  0.7053 -0.5000
  101OSM    H9S10190   3.961   1.627   9.822  0.0862  0.6949 -0.7516
  101OSM    H9T10191   4.004   1.454   9.808  0.8998 -0.0307  0.7926
  101OSM   C10S10192   4.162   1.576   9.739  0.1448 -0.6780 -0.5203
  101OSM   H10S10193   4.229   1.487   9.748  1.1372 -0.1481 -2.3298
  101OSM   H10T10194   4.215   1.668   9.772 -1.8285  1.2477 -2.5846
  101OSM   C11S10195   4.110   1.595   9.602  0.3317  0.5278  0.3356
  101OSM   H11S10196   4.055   1.687   9.575  1.9960  1.3634 -0.3256
  101OSM   H11T10197   4.022   1.529   9.589  0.4308  0.6692 -1.1347
  101OSM   C12S10198   4.220   1.555   9.501  0.6176 -0.0962 -0.0581
  101OSM   H12S10199   4.278   1.460   9.511 -1.6352 -1.4428  0.6956
  101OSM   H12T10200   4.296   1.635   9.486  0.9666 -0.4466 -0.1704
  101OSM   C13S10201   4.168   1.544   9.360  0.0806  0.4920  0.1002
  101OSM   H13S10202   4.102   1.456   9.347 -0.3999  0.4404  2.7182
  101OSM   H13T10203   4.251   1.539   9.286 -0.1647  1.0479 -0.2099
  101OSM   C14S10204   4.091   1.663   9.304  0.0770 -0.3509  0.2756
  101OSM   H14S10205   4.148   1.758   9.309  0.2272 -0.4043 -0.4193
  101OSM   H14T10206   3.992   1.675   9.352  0.5120  0.3013  1.0216
  101OSM   C15S10207   4.061   1.648   9.152  0.3179 -0.1945  0.2389
  101OSM   H15S10208   4.011   1.551   9.132  0.2991 -0.2320  0.4714
  101OSM   H15T10209   4.156   1.658   9.096  0.6562 -1.0980  0.6451
  101OSM   C16S10210   3.957   1.758   9.098  0.4596  0.8686  0.4662
  101OSM   H16S10211   3.989   1.864   9.102 -5.1697  2.6669  2.2370
  101OSM   H16T10212   3.863   1.747   9.156 -0.6124  0.3141 -1.3257
  101OSM   C17S10213   3.930   1.726   8.951  0.2043  0.6653  0.9681
  101OSM   H17S10214   3.907   1.618   8.939 -0.2952  0.9720 -0.9436
  101OSM   H17T10215   4.025   1.746   8.897  1.4590 -1.7202  2.2194
  101OSM   C18S10216   3.815   1.802   8.879  0.0231 -0.2113  0.2259
  101OSM   H18S10217   3.837   1.911   8.885 -1.2017  0.1330 -1.1323
  101OSM   H18T10218   3.723   1.771   8.933  0.4287  0.2867  1.2278
  101OSM   H18U10219   3.793   1.769   8.775  1.7554  0.2942 -0.3125
  101OSM    C1F10220   3.543   1.619  10.450  0.5180  0.6171  0.1783
  101OSM     OF10221   3.571   1.667  10.559 -0.2717 -0.3375 -0.3092
  101OSM    C2F10222   3.449   1.686  10.353  0.0609 -0.7532 -0.1600
  101OSM    H2F10223   3.345   1.647  10.352 -0.8373  1.5517 -0.9481
  101OSM    H2G10224   3.489   1.681  10.249 -1.1694 -0.5223 -0.6539
  101OSM    C3F10225   3.445   1.837  10.385 -0.8112  0.2618 -0.4529
  101OSM    H3F10226   3.544   1.886  10.381 -0.5940 -0.2014 -0.8379
  101OSM    H3G10227   3.402   1.854  10.486 -0.2007  1.2177 -0.3506
  101OSM    C4F10228   3.360   1.910  10.275 -0.4114  0.0825  0.1963
  101OSM    H4F10229   3.330   2.014  10.302  0.9206  1.0772 -2.0216
  101OSM    H4G10230   3.262   1.858  10.272 -0.1735 -0.3620  0.1153
  101OSM    C5F10231   3.420   1.901  10.134 -0.2811  0.0684 -0.0446
  101OSM    H5F10232   3.408   1.806  10.079  1.4225  0.2119 -0.7055
  101OSM    H5G10233   3.528   1.928  10.130 -0.7342  1.8275 -0.9616
  101OSM    C6F10234   3.356   2.005  10.039 -0.1422 -0.7060 -0.1207
  101OSM    H6F10235   3.380   2.102  10.087 -1.7921 -1.6571  2.7331
  101OSM    H6G10236   3.245   2.003  10.035 -0.2150 -3.5259  1.5761
  101OSM    C7F10237   3.404   1.985   9.895 -0.1380  0.1200  0.5315
  101OSM    H7F10238   3.363   1.889   9.857 -3.4581  1.4016  0.6492
  101OSM    H7G10239   3.515   1.990   9.891 -0.2464  0.9374 -3.1086
  101OSM    C8F10240   3.344   2.095   9.802 -0.8536  0.8679 -0.5939
  101OSM    H8F10241   3.379   2.196   9.835  0.9687  0.2570 -0.6042
  101OSM    H8G10242   3.234   2.097   9.815 -1.0195 -1.4423 -1.4703
  101OSM    C9F10243   3.394   2.077   9.659  0.7445  0.4144 -0.3922
  101OSM    H9F10244   3.496   2.110   9.638  0.8388  0.9432  0.8995
  101OSM   C10F10245   3.317   2.027   9.556 -0.6916 -0.3201 -0.0629
  101OSM   H10F10246   3.363   2.016   9.456  0.6272 -1.0149  0.6010
  101OSM   C11F10247   3.173   1.983   9.549 -0.0838  0.3271  0.4806
  101OSM   H11F10248   3.128   2.047   9.471 -2.5454  0.0415  1.5855
  101OSM   H11G10249   3.115   2.009   9.640 -2.3030 -0.0130 -0.7984
  101OSM   C12F10250   3.159   1.831   9.528  0.1292 -0.1015  0.8602
  101OSM   H12F10251   3.212   1.778   9.610  1.7579  0.1973  0.0265
  101OSM   H12G10252   3.204   1.804   9.430 -0.7003 -0.2366  0.5124
  101OSM   C13F10253   3.008   1.798   9.540  0.4594  0.1715  0.5430
  101OSM   H13F10254   2.999   1.703   9.483 -1.7785 -0.1230  1.3478
  101OSM   H13G10255   2.947   1.871   9.482  1.1962 -0.3351 -0.8942
  101OSM   C14F10256   2.962   1.783   9.687  0.0227 -0.0337  0.3816
  101OSM   H14F10257   2.852   1.776   9.697  0.0148 -3.2448 -1.2423
  101OSM   H14G10258   2.999   1.867   9.750  0.9344 -0.8867  0.9991
  101OSM   C15F10259   3.016   1.657   9.760 -0.3831 -0.3012  0.0595
  101OSM   H15F10260   3.127   1.647   9.767 -0.5462 -2.2757  0.1215
  101OSM   H15G10261   2.975   1.569   9.705 -2.8666  0.3730  0.7672
  101OSM   C16F10262   2.960   1.646   9.902  0.4135  0.3515  0.2673
  101OSM   H16F10263   2.962   1.537   9.925 -0.4495  0.2536 -0.1116
  101OSM   H16G10264   2.855   1.680   9.906  1.1231  2.6579  0.0547
  101OSM   C17F10265   3.041   1.722  10.011 -0.4006  0.0852 -0.5820
  101OSM   H17F10266   3.026   1.829   9.984  0.7118  0.0848 -1.2553
  101OSM   H17G10267   3.149   1.698  10.003 -0.3159  0.8372 -1.8179
  101OSM   C18F10268   3.002   1.696  10.162  0.7714  0.2177 -0.1567
  101OSM   H18F10269   2.994   1.586  10.173  0.0350  0.3683  0.8991
  101OSM   H18G10270   2.899   1.727  10.188  0.7127  0.2343 -0.4107
  101OSM   H18H10271   3.076   1.730  10.238 -0.5133 -1.4041  1.8495
  102OSM      N10272   3.167   1.027  10.804 -0.1666  0.3791  0.1863
  102OSM    C1510273   3.264   1.144  10.796  0.4716 -0.3652  0.6457
  102OSM   H15A10274   3.232   1.228  10.856 -3.0292 -2.1488  1.3911
  102OSM   H15B10275   3.281   1.176  10.694 -2.4623  1.3600  0.6401
  102OSM   H15C10276   3.359   1.124  10.844  0.1205  0.8573  1.8795
  102OSM    C1410277   3.221   0.913  10.722  0.1915 -0.1045 -0.5673
  102OSM   H14A10278   3.224   0.932  10.616 -0.1770  2.5553 -0.1523
  102OSM   H14B10279   3.153   0.830  10.737  1.0407 -0.9861 -1.5305
  102OSM   H14C10280   3.321   0.894  10.759 -0.3904  0.3515  1.2871
  102OSM    C1310281   3.153   0.983  10.954  0.7130  0.3731 -0.4301
  102OSM   H13A10282   3.093   0.893  10.955  0.0354  0.8056 -1.9111
  102OSM   H13B10283   3.107   1.057  11.017 -1.3806 -0.4057 -1.0212
  102OSM   H13C10284   3.255   0.962  10.985  0.6018 -0.1199 -0.3999
  102OSM    C1210285   3.027   1.061  10.747  0.0788  0.2829 -0.3113
  102OSM   H12A10286   2.973   0.969  10.728 -0.8909  0.5242  1.1973
  102OSM   H12B10287   3.051   1.114  10.656  0.3503  1.9098  0.6889
  102OSM    C1110288   2.949   1.156  10.842 -0.1801  0.8057  0.8466
  102OSM   H11A10289   2.909   1.105  10.933  2.1885  0.0986  1.5231
  102OSM   H11B10290   2.852   1.165  10.787  0.5919 -1.3675 -0.9728
  102OSM      P10291   2.986   1.404  10.792 -0.1668  0.0058  0.0972
  102OSM    O1310292   2.861   1.468  10.842  0.3282  0.0685 -0.0998
  102OSM    O1410293   3.105   1.489  10.796 -0.2765  0.8446 -0.1675
  102OSM    O1110294   2.963   1.340  10.648 -0.0864 -0.2658  0.5061
  102OSM    O1210295   3.011   1.278  10.883 -0.1101 -0.5502 -0.0517
  102OSM    C1S10296   2.834   1.346  10.584  0.2958  0.1748 -0.5415
  102OSM    H1S10297   2.787   1.440  10.621 -0.4240 -0.7152  0.8235
  102OSM    H1T10298   2.776   1.256  10.613 -1.9024  1.1004 -1.9060
  102OSM     NF10299   2.720   1.393  10.373  0.4305 -0.4751 -0.4692
  102OSM    HNF10300   2.673   1.335  10.307 -2.8157  0.6727  0.6986
  102OSM    C2S10301   2.848   1.356  10.431  0.1392 -0.1482  1.0001
  102OSM    H2S10302   2.927   1.432  10.414  0.3364 -1.0962 -2.5891
  102OSM    C3S10303   2.904   1.224  10.373  0.1531 -0.3733 -0.4414
  102OSM    H3S10304   2.827   1.151  10.405 -2.2077  2.2359 -0.0082
  102OSM     O310305   3.030   1.193  10.438  0.2043 -0.8060  0.1582
  102OSM    HO310306   3.047   1.256  10.509  1.4293  0.1841 -0.9895
  102OSM    C4S10307   2.916   1.221  10.224  0.7533 -0.9556 -0.1921
  102OSM    H4S10308   2.842   1.151  10.184 -2.1423  2.3105 -0.7872
  102OSM    C5S10309   3.019   1.264  10.146  0.1893  0.5045 -0.2928
  102OSM    H5S10310   3.108   1.307  10.195 -1.0030  2.0980  0.5307
  102OSM    C6S10311   3.029   1.252  10.001 -0.2287  0.1398  0.1375
  102OSM    H6S10312   3.099   1.171   9.972  0.5602  0.7005  0.4540
  102OSM    H6T10313   3.065   1.352   9.968  0.4272  0.3848  1.5526
  102OSM    C7S10314   2.898   1.222   9.929  0.4161 -0.2550 -0.8257
  102OSM    H7S10315   2.841   1.316   9.944 -0.4037 -1.0162  0.8819
  102OSM    H7T10316   2.837   1.140   9.972 -1.2595  1.6905  0.5772
  102OSM    C8S10317   2.915   1.194   9.778 -0.3330 -0.4104 -0.1009
  102OSM    H8S10318   2.970   1.275   9.725  0.0346 -1.5920 -1.5746
  102OSM    H8T10319   2.814   1.206   9.733  0.0087 -0.6210 -0.9347
  102OSM    C9S10320   2.975   1.054   9.750  0.5713  0.7958 -0.4060
  102OSM    H9S10321   2.912   0.975   9.796  2.4550 -0.3388  0.2707
  102OSM    H9T10322   3.080   1.042   9.784  0.4165  0.4886 -0.0393
  102OSM   C10S10323   2.969   1.030   9.598 -0.2215 -0.4023 -0.4592
  102OSM   H10S10324   2.860   1.026   9.577 -0.8696  0.5953  2.5394
  102OSM   H10T10325   3.000   0.927   9.572  1.6177 -0.2696  1.0623
  102OSM   C11S10326   3.053   1.126   9.521  0.5359  0.1788  0.0402
  102OSM   H11S10327   3.137   1.169   9.580 -0.0935  2.8601 -0.9537
  102OSM   H11T10328   2.990   1.215   9.496  2.3751  1.3509 -0.5460
  102OSM   C12S10329   3.108   1.058   9.396  0.4206  0.7764  0.4258
  102OSM   H12S10330   3.018   1.018   9.346  1.3319  1.1854 -1.5815
  102OSM   H12T10331   3.181   0.983   9.434 -0.5839  0.4837  1.8215
  102OSM   C13S10332   3.172   1.168   9.298  0.2265  0.5928 -0.6370
  102OSM   H13S10333   3.276   1.186   9.331 -0.2619  0.1994  1.1479
  102OSM   H13T10334   3.118   1.265   9.305 -0.8022 -0.0793  0.9926
  102OSM   C14S10335   3.186   1.124   9.153 -0.1708 -0.2048  0.1422
  102OSM   H14S10336   3.232   1.023   9.143  0.7801  0.3005 -0.6801
  102OSM   H14T10337   3.250   1.192   9.092 -1.9935  0.5881 -0.9165
  102OSM   C15S10338   3.049   1.109   9.088  0.1427  0.1850  0.2902
  102OSM   H15S10339   2.991   1.201   9.111  1.3820  0.8764  0.6524
  102OSM   H15T10340   3.006   1.016   9.132  1.6408 -0.0003  1.3783
  102OSM   C16S10341   3.051   1.095   8.935  0.2766 -0.5468  0.1624
  102OSM   H16S10342   3.125   1.019   8.903  1.1699 -0.9630  3.0324
  102OSM   H16T10343   3.085   1.194   8.898  2.3011 -1.3341 -0.1468
  102OSM   C17S10344   2.915   1.050   8.868  0.8080  0.3599  0.7152
  102OSM   H17S10345   2.893   0.949   8.908  1.3214 -0.4003 -0.8668
  102OSM   H17T10346   2.916   1.030   8.758 -2.6954 -0.9325  0.8474
  102OSM   C18S10347   2.798   1.142   8.913  0.9169  0.1267 -0.0796
  102OSM   H18S10348   2.826   1.242   8.876  1.4971 -0.5694 -1.5419
  102OSM   H18T10349   2.785   1.143   9.024  0.0491  0.8158 -0.1879
  102OSM   H18U10350   2.702   1.123   8.862  1.5334 -1.8922 -0.5226
  102OSM    C1F10351   2.651   1.501  10.399 -0.2625 -0.1845  0.3570
  102OSM     OF10352   2.694   1.598  10.459  0.7085 -0.9270 -0.4580
  102OSM    C2F10353   2.504   1.488  10.360  0.1233 -0.3583  0.3605
  102OSM    H2F10354   2.450   1.459  10.453  0.0387 -0.6935  0.2078
  102OSM    H2G10355   2.491   1.404  10.288  1.5030  1.1104 -1.6630
  102OSM    C3F10356   2.450   1.608  10.285  0.4896 -0.3772  0.0840
  102OSM    H3F10357   2.470   1.691  10.357  2.4506 -0.0165 -0.8501
  102OSM    H3G10358   2.341   1.586  10.280  0.0965  1.1534  1.2102
  102OSM    C4F10359   2.517   1.646  10.153  0.0218  0.5540  0.2379
  102OSM    H4F10360   2.621   1.677  10.176  0.2445 -0.9637  1.3783
  102OSM    H4G10361   2.470   1.730  10.099  0.1551 -0.5556 -1.6667
  102OSM    C5F10362   2.509   1.529  10.056 -0.1496  0.0062  0.0995
  102OSM    H5F10363   2.405   1.490  10.055 -0.6038  1.1295  1.5249
  102OSM    H5G10364   2.576   1.445  10.085  1.0704  1.4032  1.3897
  102OSM    C6F10365   2.542   1.569   9.907  0.3595 -0.9010 -0.2650
  102OSM    H6F10366   2.648   1.604   9.908  0.2977 -0.7224  0.7495
  102OSM    H6G10367   2.479   1.653   9.871 -1.0478 -0.8111  2.2839
  102OSM    C7F10368   2.544   1.449   9.814  0.1112 -0.5493 -0.6189
  102OSM    H7F10369   2.443   1.404   9.811  0.2176 -1.1920  3.0701
  102OSM    H7G10370   2.604   1.364   9.852  0.3832  0.1131  0.4503
  102OSM    C8F10371   2.584   1.482   9.670  0.4823  0.1303  0.1802
  102OSM    H8F10372   2.599   1.385   9.618  0.4339 -0.2560  0.8811
  102OSM    H8G10373   2.678   1.542   9.665  0.2738  0.5332  1.0182
  102OSM    C9F10374   2.462   1.543   9.592 -0.2381  0.3572  0.3281
  102OSM    H9F10375   2.371   1.486   9.616  0.6897 -0.5758  1.6627
  102OSM   C10F10376   2.458   1.646   9.504 -0.8647 -0.1015 -0.8117
  102OSM   H10F10377   2.362   1.688   9.470  0.5517  2.1315 -2.2315
  102OSM   C11F10378   2.585   1.733   9.471  0.8807  0.5567 -0.1517
  102OSM   H11F10379   2.657   1.741   9.555 -0.8321 -0.8550  1.4876
  102OSM   H11G10380   2.565   1.842   9.469  1.4531  0.6903  0.9733
  102OSM   C12F10381   2.644   1.687   9.336  0.2694  0.6383  0.1871
  102OSM   H12F10382   2.725   1.754   9.300  0.0855  0.5358 -0.4272
  102OSM   H12G10383   2.554   1.685   9.272 -0.0834  1.1595  0.6676
  102OSM   C13F10384   2.704   1.547   9.346 -0.8094  0.7544 -0.2757
  102OSM   H13F10385   2.624   1.475   9.373  0.4561 -1.0056 -1.1048
  102OSM   H13G10386   2.770   1.538   9.434 -0.8304 -0.2911 -0.3572
  102OSM   C14F10387   2.778   1.497   9.226  0.0272 -0.4869 -0.2659
  102OSM   H14F10388   2.718   1.541   9.143  1.8161 -0.0043 -1.3237
  102OSM   H14G10389   2.758   1.388   9.227  0.3070 -0.5299  0.5510
  102OSM   C15F10390   2.928   1.531   9.212 -0.0206 -0.8270 -0.6213
  102OSM   H15F10391   2.985   1.483   9.295  0.4374  0.5732 -0.1099
  102OSM   H15G10392   2.945   1.641   9.219  1.8087 -1.1577  0.5525
  102OSM   C16F10393   2.989   1.492   9.080 -0.2583  0.3695 -0.1750
  102OSM   H16F10394   2.929   1.418   9.022 -0.0082 -0.1367  0.2035
  102OSM   H16G10395   3.082   1.432   9.095 -0.6324 -0.3398 -0.6702
  102OSM   C17F10396   3.023   1.608   8.987 -0.3469  0.1212  0.0540
  102OSM   H17F10397   3.109   1.661   9.031  0.7129 -0.5571 -1.1540
  102OSM   H17G10398   2.928   1.665   8.986  1.2512  2.9205 -2.2590
  102OSM   C18F10399   3.063   1.563   8.849  0.3213  0.2409  0.1907
  102OSM   H18F10400   2.992   1.491   8.803 -0.4741  1.4361 -0.4590
  102OSM   H18G10401   3.166   1.523   8.839 -0.3126 -1.1094 -1.1272
  102OSM   H18H10402   3.052   1.651   8.783  0.4721  0.7320  0.8114
  103OSM      N10403   4.306   4.246  11.360 -0.1632 -0.0065 -0.2307
  103OSM    C1510404   4.404   4.355  11.348 -0.3835  0.2394 -0.4669
  103OSM   H15A10405   4.422   4.405  11.441 -1.6749 -0.4147  0.1555
  103OSM   H15B10406   4.365   4.431  11.282 -1.2737  0.9464  0.8611
  103OSM   H15C10407   4.501   4.330  11.309 -0.2644 -1.4742  0.8384
  103OSM    C1410408   4.365   4.148  11.449 -0.4985  0.2355 -0.2355
  103OSM   H14A10409   4.280   4.082  11.464 -0.2910  0.5699  2.7582
  103OSM   H14B10410   4.382   4.196  11.544  1.0545  0.4463 -0.6202
  103OSM   H14C10411   4.446   4.096  11.401 -0.1996  0.3891  0.1012
  103OSM    C1310412   4.181   4.300  11.418  0.7065 -0.2053  0.5293
  103OSM   H13A10413   4.136   4.366  11.346  2.4628 -0.5203 -0.8783
  103OSM   H13B10414   4.181   4.348  11.515 -2.8423  1.1800 -0.0782
  103OSM   H13C10415   4.119   4.213  11.432  1.6213 -1.3351 -2.2259
  103OSM    C1210416   4.267   4.186  11.219  0.5515 -0.1134  0.3993
  103OSM   H12A10417   4.355   4.149  11.169  0.4269  0.1721 -0.0401
  103OSM   H12B10418   4.231   4.266  11.156  0.4545 -0.6252 -0.2100
  103OSM    C1110419   4.174   4.065  11.210  0.2883 -0.4448 -0.2419
  103OSM   H11A10420   4.206   3.988  11.282 -0.0790 -0.7971 -0.4547
  103OSM   H11B10421   4.186   4.026  11.107  0.3844  0.0777 -0.4344
  103OSM      P10422   3.928   4.160  11.166 -0.3081  0.0316  0.3303
  103OSM    O1310423   3.814   4.187  11.259 -0.4029 -0.4459 -0.2220
  103OSM    O1410424   3.985   4.271  11.086 -0.4705 -0.2906 -0.3207
  103OSM    O1110425   3.897   4.042  11.067  0.6415  0.0565  0.1858
  103OSM    O1210426   4.040   4.090  11.254  0.0550 -0.2964 -0.0844
  103OSM    C1S10427   3.807   4.066  10.956 -0.4090 -0.2221 -0.3764
  103OSM    H1S10428   3.790   4.173  10.935 -0.1364  0.2584  1.7418
  103OSM    H1T10429   3.711   4.016  10.982 -0.4030  1.0966  2.3701
  103OSM     NF10430   3.785   4.037  10.700 -0.2909 -0.3705  0.3158
  103OSM    HNF10431   3.720   3.971  10.665  0.0071  0.7842 -2.5079
  103OSM    C2S10432   3.866   4.014  10.823 -0.1378 -0.4160  0.6920
  103OSM    H2S10433   3.965   4.064  10.814  0.0295 -0.8292  0.1550
  103OSM    C3S10434   3.904   3.862  10.847 -0.1052  0.0030  0.3038
  103OSM    H3S10435   3.808   3.806  10.842 -0.9433  1.4724 -0.4485
  103OSM     O310436   3.980   3.834  10.963 -0.1623 -0.8219  0.4016
  103OSM    HO310437   3.981   3.918  11.011 -3.2486 -1.3988  1.6329
  103OSM    C4S10438   3.990   3.821  10.736  0.6895 -0.0355 -0.5218
  103OSM    H4S10439   4.086   3.873  10.735  0.9114 -0.4495 -0.7367
  103OSM    C5S10440   3.943   3.744  10.632 -0.7545 -0.0714 -0.1554
  103OSM    H5S10441   3.835   3.722  10.629 -0.8883  0.6882 -0.8957
  103OSM    C6S10442   4.026   3.701  10.518  0.2740  0.1627  0.5963
  103OSM    H6S10443   3.995   3.604  10.474 -0.7249 -0.0149  1.6660
  103OSM    H6T10444   4.130   3.698  10.557  0.2223  0.6932  0.7903
  103OSM    C7S10445   4.023   3.795  10.399 -0.6926 -0.2625  0.1050
  103OSM    H7S10446   4.107   3.777  10.329 -1.6255  0.3943 -1.2138
  103OSM    H7T10447   4.021   3.901  10.434  0.5024  0.4312 -1.8735
  103OSM    C8S10448   3.882   3.786  10.327 -0.5526  0.1092  0.0142
  103OSM    H8S10449   3.874   3.879  10.266 -1.1665  2.2411  3.1837
  103OSM    H8T10450   3.803   3.803  10.404 -1.1011  0.8226 -0.6956
  103OSM    C9S10451   3.839   3.667  10.241  0.3636  0.0848 -0.1006
  103OSM    H9S10452   3.835   3.578  10.308 -1.4799  0.2872  0.0951
  103OSM    H9T10453   3.896   3.643  10.149  0.2404 -1.8376  0.2895
  103OSM   C10S10454   3.696   3.695  10.185  0.2400 -0.2858 -0.4565
  103OSM   H10S10455   3.634   3.727  10.271 -1.8666 -1.3203 -1.5605
  103OSM   H10T10456   3.639   3.603  10.161 -1.0034  0.6183 -1.0168
  103OSM   C11S10457   3.696   3.789  10.068  0.0017  0.3846 -0.4468
  103OSM   H11S10458   3.771   3.754   9.995 -0.8164 -1.1936 -0.5517
  103OSM   H11T10459   3.723   3.892  10.102 -1.9519  0.7026  0.1895
  103OSM   C12S10460   3.558   3.783   9.986  0.5518  0.1415  0.5500
  103OSM   H12S10461   3.507   3.882   9.995 -0.3178 -0.0749 -1.7871
  103OSM   H12T10462   3.495   3.704  10.033  2.2801 -1.5621  0.0412
  103OSM   C13S10463   3.564   3.722   9.842  0.0048 -0.3262 -0.2374
  103OSM   H13S10464   3.465   3.719   9.792  0.0750 -1.5820 -0.3277
  103OSM   H13T10465   3.611   3.621   9.848  2.4182  0.7887  0.4043
  103OSM   C14S10466   3.646   3.812   9.741  0.2064  0.3642 -0.3593
  103OSM   H14S10467   3.752   3.797   9.768 -0.9366 -1.0375  3.7678
  103OSM   H14T10468   3.614   3.918   9.752  0.8514  0.4909  0.3506
  103OSM   C15S10469   3.647   3.761   9.593 -0.4710 -0.4606  0.2446
  103OSM   H15S10470   3.541   3.767   9.559 -0.0559  3.6361 -0.5412
  103OSM   H15T10471   3.698   3.663   9.582 -1.2229 -0.7060 -1.1597
  103OSM   C16S10472   3.723   3.852   9.496 -1.0662 -0.6401  0.6901
  103OSM   H16S10473   3.830   3.868   9.519 -0.6239  0.9312 -2.2969
  103OSM   H16T10474   3.687   3.957   9.500 -0.6002 -0.5408  2.8681
  103OSM   C17S10475   3.719   3.818   9.346 -0.7168  0.4726  0.7902
  103OSM   H17S10476   3.612   3.800   9.321 -0.3338  0.0475 -0.5776
  103OSM   H17T10477   3.771   3.721   9.335  1.2940  1.5217  0.8053
  103OSM   C18S10478   3.774   3.924   9.256  0.8800 -0.7162 -0.3678
  103OSM   H18S10479   3.792   3.884   9.154 -1.1461  1.2488 -1.5367
  103OSM   H18T10480   3.869   3.963   9.298  0.0450  0.3588  0.5569
  103OSM   H18U10481   3.713   4.015   9.241 -0.1943 -0.9614  2.3347
  103OSM    C1F10482   3.759   4.168  10.660 -0.1573  0.3560  0.3416
  103OSM     OF10483   3.825   4.259  10.699  0.1626 -0.2820 -0.3307
  103OSM    C2F10484   3.652   4.187  10.553 -0.5247  0.5097 -0.7329
  103OSM    H2F10485   3.618   4.292  10.553 -0.3984  0.5556  0.3222
  103OSM    H2G10486   3.560   4.132  10.584 -1.8614  2.6276 -0.9028
  103OSM    C3F10487   3.698   4.133  10.414 -0.3678 -0.4892 -0.1554
  103OSM    H3F10488   3.727   4.028  10.435  0.6005  0.0864  1.4665
  103OSM    H3G10489   3.795   4.184  10.392  0.5027 -2.1970 -0.3658
  103OSM    C4F10490   3.599   4.163  10.301 -0.4567  0.2782 -0.2293
  103OSM    H4F10491   3.643   4.188  10.202  1.1303 -0.5695  0.2437
  103OSM    H4G10492   3.557   4.264  10.321 -0.1840  0.2421  0.5374
  103OSM    C5F10493   3.489   4.056  10.281  0.7994  0.1049 -0.4739
  103OSM    H5F10494   3.419   4.046  10.367 -2.8013 -1.7329 -3.4501
  103OSM    H5G10495   3.539   3.957  10.280  1.2142  0.2695  1.7432
  103OSM    C6F10496   3.398   4.068  10.163  0.3462  0.5751  0.0434
  103OSM    H6F10497   3.377   3.964  10.130 -2.5848  0.4017  2.2951
  103OSM    H6G10498   3.469   4.113  10.090  1.1008  0.1483  0.5021
  103OSM    C7F10499   3.270   4.141  10.188  0.6023 -0.7477 -0.1858
  103OSM    H7F10500   3.296   4.233  10.245 -3.2658 -0.3766  1.1286
  103OSM    H7G10501   3.204   4.082  10.256  1.9552 -0.3699  1.4742
  103OSM    C8F10502   3.183   4.172  10.061  0.1895 -0.2729 -0.1545
  103OSM    H8F10503   3.091   4.229  10.084 -1.0573 -2.0005 -0.8377
  103OSM    H8G10504   3.150   4.083  10.003  0.1404  0.4131 -1.1816
  103OSM    C9F10505   3.270   4.250   9.964  0.2712  0.1186  0.0743
  103OSM    H9F10506   3.300   4.350  10.000  0.3240 -0.1594  0.8067
  103OSM   C10F10507   3.307   4.211   9.840  0.3869 -0.0233 -0.0237
  103OSM   H10F10508   3.373   4.274   9.779  2.4219 -1.1616  0.9763
  103OSM   C11F10509   3.273   4.082   9.772 -0.1190  0.9047  0.2218
  103OSM   H11F10510   3.167   4.084   9.740  0.0895  0.5779 -0.4929
  103OSM   H11G10511   3.280   3.989   9.831 -1.6438  0.0406 -0.9407
  103OSM   C12F10512   3.359   4.062   9.644  0.2692 -0.0537 -0.9346
  103OSM   H12F10513   3.342   3.957   9.610 -1.8652 -0.0295 -0.0119
  103OSM   H12G10514   3.467   4.068   9.669  0.0494 -1.2224  0.3297
  103OSM   C13F10515   3.313   4.164   9.535 -0.2724  0.4500 -0.0963
  103OSM   H13F10516   3.216   4.129   9.496 -0.0398 -1.2580  0.8290
  103OSM   H13G10517   3.305   4.270   9.569  0.1420  0.7109 -0.7889
  103OSM   C14F10518   3.419   4.163   9.429 -0.6368 -0.2342  0.7565
  103OSM   H14F10519   3.431   4.057   9.399 -0.8023 -0.2849  0.8734
  103OSM   H14G10520   3.519   4.191   9.471 -1.0267 -0.9764  2.1990
  103OSM   C15F10521   3.369   4.243   9.311 -0.5397 -0.2713  0.3985
  103OSM   H15F10522   3.340   4.345   9.344 -1.0701  0.1903 -1.4229
  103OSM   H15G10523   3.282   4.184   9.274  0.2333  0.2712 -2.4012
  103OSM   C16F10524   3.465   4.256   9.190 -0.6799 -0.1544  0.2833
  103OSM   H16F10525   3.497   4.151   9.170 -1.9176 -0.3603 -0.6652
  103OSM   H16G10526   3.553   4.310   9.231  0.0351 -1.0547 -0.0636
  103OSM   C17F10527   3.408   4.340   9.071  0.6973  0.5001  0.1556
  103OSM   H17F10528   3.325   4.274   9.040 -0.6835  2.5658 -0.6326
  103OSM   H17G10529   3.477   4.349   8.985  0.4570 -2.1990 -0.3633
  103OSM   C18F10530   3.350   4.477   9.105 -0.2472  0.6060 -0.2163
  103OSM   H18F10531   3.416   4.545   9.163 -1.3129  2.2399 -0.8991
  103OSM   H18G10532   3.264   4.454   9.172  0.0506 -1.1808 -0.4058
  103OSM   H18H10533   3.327   4.544   9.020 -1.7844  1.8087  1.1361
  104OSM      N10534   0.400   3.165  10.827  0.3030  0.2628  0.8279
  104OSM    C1510535   0.422   3.180  10.680 -0.5004  0.6794 -0.2569
  104OSM   H15A10536   0.342   3.244  10.646 -3.1708 -2.0145  0.6953
  104OSM   H15B10537   0.421   3.083  10.633  0.5377 -0.2456  1.5585
  104OSM   H15C10538   0.524   3.211  10.663  0.4680  0.3393  4.1317
  104OSM    C1410539   0.254   3.125  10.855  0.2195  0.2613 -0.8611
  104OSM   H14A10540   0.174   3.195  10.840 -2.1134 -2.5551 -2.0636
  104OSM   H14B10541   0.246   3.071  10.949 -0.7000  1.2984 -0.3342
  104OSM   H14C10542   0.235   3.046  10.783  0.9811 -1.4226  0.7291
  104OSM    C1310543   0.495   3.060  10.883 -0.0794  0.0222  0.5059
  104OSM   H13A10544   0.483   3.062  10.991  0.7224  1.2423  0.5856
  104OSM   H13B10545   0.598   3.080  10.856 -0.8760  0.9265 -2.0295
  104OSM   H13C10546   0.462   2.963  10.850  1.4364 -0.2489 -0.2601
  104OSM    C1210547   0.434   3.296  10.891 -0.3168 -0.4892  0.3269
  104OSM   H12A10548   0.407   3.291  10.996 -1.2224  2.0288  0.2435
  104OSM   H12B10549   0.378   3.375  10.844  0.6272  1.2983  2.1307
  104OSM    C1110550   0.578   3.353  10.887 -0.1596 -0.2257 -0.3652
  104OSM   H11A10551   0.649   3.274  10.919  0.4036  0.3209 -0.2599
  104OSM   H11B10552   0.581   3.435  10.962  1.2515  0.7759 -1.4802
  104OSM      P10553   0.565   3.526  10.697  0.6289 -0.0363  0.1583
  104OSM    O1310554   0.416   3.506  10.676 -0.4211  0.5443 -0.5437
  104OSM    O1410555   0.615   3.641  10.777  0.0549 -0.2437  1.1681
  104OSM    O1110556   0.636   3.528  10.554  0.4520  0.2402  0.2114
  104OSM    O1210557   0.616   3.397  10.756  0.7025  0.0191 -0.0928
  104OSM    C1S10558   0.728   3.632  10.524 -0.7021 -0.2177  0.7926
  104OSM    H1S10559   0.804   3.638  10.605 -0.2116  1.0854  0.2602
  104OSM    H1T10560   0.672   3.728  10.526 -0.5210 -0.1253  1.7007
  104OSM     NF10561   0.891   3.742  10.363 -0.0095 -0.5279  0.3613
  104OSM    HNF10562   0.861   3.834  10.342 -2.1591 -0.5812  2.9207
  104OSM    C2S10563   0.795   3.636  10.377  0.3093  0.4539 -0.4881
  104OSM    H2S10564   0.843   3.536  10.365 -0.5766  0.0582 -0.7579
  104OSM    C3S10565   0.677   3.643  10.274 -0.2598 -0.3290 -0.3600
  104OSM    H3S10566   0.623   3.738  10.291 -3.6698 -2.4606  1.2551
  104OSM     O310567   0.577   3.547  10.304  0.1689 -0.4327  0.0849
  104OSM    HO310568   0.604   3.513  10.390  0.5923 -0.8802 -0.2215
  104OSM    C4S10569   0.726   3.631  10.130  0.5604  0.4983  0.4163
  104OSM    H4S10570   0.715   3.723  10.071 -1.4510  0.0219  0.0027
  104OSM    C5S10571   0.750   3.517  10.059 -0.1879 -0.0757 -0.7312
  104OSM    H5S10572   0.713   3.427  10.111  2.5888 -0.0802  1.3423
  104OSM    C6S10573   0.790   3.517   9.911  0.8970 -0.0359  0.1675
  104OSM    H6S10574   0.893   3.483   9.888  0.5300  0.6400 -2.5703
  104OSM    H6T10575   0.777   3.617   9.866  0.6060 -1.3376 -2.7588
  104OSM    C7S10576   0.691   3.431   9.829  0.5415 -0.1849  0.1508
  104OSM    H7S10577   0.597   3.486   9.811  1.7666  1.8985 -0.0543
  104OSM    H7T10578   0.669   3.341   9.891 -2.2577  0.4297  0.0930
  104OSM    C8S10579   0.750   3.376   9.697  0.1265 -0.1048  0.5776
  104OSM    H8S10580   0.683   3.300   9.653 -1.0662  0.8876  0.6463
  104OSM    H8T10581   0.845   3.322   9.720  0.3636 -0.3296 -0.8690
  104OSM    C9S10582   0.788   3.492   9.600  0.2849  0.0606  0.0115
  104OSM    H9S10583   0.872   3.551   9.642  1.2221 -1.6633  0.6203
  104OSM    H9T10584   0.698   3.557   9.600  0.2462  0.0085 -0.4125
  104OSM   C10S10585   0.826   3.453   9.462 -0.3815  0.2635 -0.7132
  104OSM   H10S10586   0.731   3.410   9.424  0.3857 -0.9728 -1.2711
  104OSM   H10T10587   0.897   3.367   9.457 -0.4925  0.0814  0.5864
  104OSM   C11S10588   0.862   3.579   9.382  0.2216 -0.6398  0.4782
  104OSM   H11S10589   0.961   3.614   9.416 -0.4919  1.6782  0.2255
  104OSM   H11T10590   0.799   3.659   9.426  0.9951  0.3859 -0.2578
  104OSM   C12S10591   0.851   3.584   9.234  0.2508 -0.2164 -0.1410
  104OSM   H12S10592   0.752   3.554   9.196  0.1648  0.4872 -0.4905
  104OSM   H12T10593   0.919   3.505   9.196 -0.2076 -0.6577 -0.0396
  104OSM   C13S10594   0.879   3.723   9.187  0.5891 -0.1596  1.0218
  104OSM   H13S10595   0.987   3.749   9.192  0.3468  1.4718 -1.0842
  104OSM   H13T10596   0.827   3.791   9.258  0.2603  1.1935 -0.4697
  104OSM   C14S10597   0.849   3.738   9.035 -0.0194  0.0684  0.3958
  104OSM   H14S10598   0.849   3.845   9.006 -1.1233 -0.2610 -0.8583
  104OSM   H14T10599   0.748   3.697   9.014  0.1789 -0.6433  0.8097
  104OSM   C15S10600   0.962   3.666   8.948  0.5169 -0.1394 -0.0385
  104OSM   H15S10601   0.948   3.560   8.975  1.0593 -0.3973 -0.7448
  104OSM   H15T10602   1.054   3.714   8.988 -0.4738 -0.7220  3.0345
  104OSM   C16S10603   0.955   3.702   8.802 -0.5006  0.2102 -0.2517
  104OSM   H16S10604   0.960   3.813   8.798 -0.5547  0.2157 -0.1737
  104OSM   H16T10605   0.862   3.664   8.755 -1.1866 -2.0399  2.7361
  104OSM   C17S10606   1.063   3.646   8.714 -0.3106 -0.1926 -0.0725
  104OSM   H17S10607   1.165   3.671   8.749 -1.6409  1.7957  2.5356
  104OSM   H17T10608   1.052   3.699   8.617  3.1659  0.7982 -0.0071
  104OSM   C18S10609   1.056   3.489   8.692  0.2541  0.1962 -0.1515
  104OSM   H18S10610   0.949   3.465   8.675 -0.1628  1.4324  0.6890
  104OSM   H18T10611   1.097   3.426   8.773  0.8899  1.7340  0.7466
  104OSM   H18U10612   1.111   3.466   8.598  1.1865 -0.7084  0.6178
  104OSM    C1F10613   1.014   3.737  10.413 -0.1212  0.3640  0.7129
  104OSM     OF10614   1.053   3.642  10.467 -0.0258 -0.0329 -0.6650
  104OSM    C2F10615   1.091   3.865  10.403  0.0792 -0.0788  0.2481
  104OSM    H2F10616   1.119   3.885  10.509 -0.5047  2.5879 -0.0711
  104OSM    H2G10617   1.032   3.953  10.369 -1.3050 -1.7160 -1.6773
  104OSM    C3F10618   1.212   3.836  10.314 -0.2703  0.0067  0.5843
  104OSM    H3F10619   1.255   3.736  10.335 -0.2869  0.1685  1.3889
  104OSM    H3G10620   1.301   3.900  10.329  0.0452 -0.1481 -0.5911
  104OSM    C4F10621   1.161   3.850  10.165  0.4125  0.6580  0.2353
  104OSM    H4F10622   1.235   3.916  10.114 -0.8110  1.0173 -1.1297
  104OSM    H4G10623   1.068   3.912  10.166  0.8694  1.3609  2.4902
  104OSM    C5F10624   1.143   3.720  10.096  0.0355  0.1155  0.0366
  104OSM    H5F10625   1.088   3.649  10.162 -1.5647  2.2810  1.0752
  104OSM    H5G10626   1.238   3.663  10.086 -1.5669 -2.3923 -1.3432
  104OSM    C6F10627   1.065   3.736   9.964  0.1449  0.4712 -0.7831
  104OSM    H6F10628   0.959   3.745   9.998 -0.2338 -0.3022 -1.7574
  104OSM    H6G10629   1.085   3.649   9.899  0.5790 -1.4799  1.9076
  104OSM    C7F10630   1.116   3.862   9.880  0.0326 -0.6578 -0.0552
  104OSM    H7F10631   1.218   3.846   9.840 -0.0435  0.3217 -0.6410
  104OSM    H7G10632   1.124   3.956   9.939 -1.9763 -0.1258 -0.5912
  104OSM    C8F10633   1.022   3.873   9.764 -0.0819  0.2072 -0.4111
  104OSM    H8F10634   1.018   3.770   9.724  0.3143 -0.5103  1.3526
  104OSM    H8G10635   1.070   3.935   9.685  0.6319 -1.0393 -0.9638
  104OSM    C9F10636   0.896   3.945   9.808  0.1382  0.1403  0.1012
  104OSM    H9F10637   0.868   3.957   9.914  0.2897 -0.8473  0.2628
  104OSM   C10F10638   0.804   3.985   9.723  0.1210 -0.0069  0.1792
  104OSM   H10F10639   0.716   4.038   9.761  1.0098  1.4940  0.1653
  104OSM   C11F10640   0.801   3.982   9.570  1.1222 -0.7203  0.3376
  104OSM   H11F10641   0.699   3.969   9.526  1.9054  1.4152 -2.2336
  104OSM   H11G10642   0.864   3.896   9.535  1.2798 -0.4018 -0.1656
  104OSM   C12F10643   0.877   4.111   9.516 -0.5298 -0.6806  0.2093
  104OSM   H12F10644   0.987   4.102   9.526 -0.4345 -1.7671 -1.6490
  104OSM   H12G10645   0.850   4.200   9.578 -1.6058 -2.3332  2.1700
  104OSM   C13F10646   0.857   4.137   9.362 -0.1962  0.1233 -0.4470
  104OSM   H13F10647   0.891   4.041   9.319 -2.5013 -1.0378  0.2546
  104OSM   H13G10648   0.929   4.216   9.331 -1.7541  1.3262 -1.0928
  104OSM   C14F10649   0.710   4.180   9.324 -0.4141  0.4617 -0.3087
  104OSM   H14F10650   0.686   4.257   9.400  0.3982  1.1175 -0.7186
  104OSM   H14G10651   0.641   4.093   9.334 -0.0151  0.3662  1.6543
  104OSM   C15F10652   0.697   4.246   9.188  0.6706  0.6515 -0.1088
  104OSM   H15F10653   0.764   4.334   9.194  0.7433  0.5013  1.7662
  104OSM   H15G10654   0.594   4.287   9.176  0.7380  0.2831 -2.0738
  104OSM   C16F10655   0.732   4.162   9.066  0.3224  0.0519  0.1874
  104OSM   H16F10656   0.697   4.060   9.090  0.6171  0.2735  1.6587
  104OSM   H16G10657   0.843   4.164   9.076  0.2736 -2.2190  1.4435
  104OSM   C17F10658   0.677   4.205   8.925 -0.1565  0.3228 -0.6792
  104OSM   H17F10659   0.739   4.292   8.896  1.2535  0.3991  2.3678
  104OSM   H17G10660   0.575   4.246   8.941 -0.4259 -0.8119  0.6279
  104OSM   C18F10661   0.677   4.095   8.820 -0.4715  0.6548 -0.1233
  104OSM   H18F10662   0.637   4.113   8.717 -2.1756  0.7517  0.5392
  104OSM   H18G10663   0.622   4.006   8.857  2.1741 -0.7877  0.4270
  104OSM   H18H10664   0.775   4.043   8.817 -0.3394  0.9551 -1.2008
  105OSM      N10665   1.117   3.462  10.873  0.7338  0.4017  0.3393
  105OSM    C1510666   1.222   3.528  10.948  0.1666 -0.2952  0.1722
  105OSM   H15A10667   1.297   3.561  10.878 -1.2891  1.4856 -0.6054
  105OSM   H15B10668   1.267   3.468  11.026 -0.2888  0.4899  1.0547
  105OSM   H15C10669   1.186   3.620  10.993  2.1503 -0.4061  2.0976
  105OSM    C1410670   1.041   3.567  10.792  0.0056  0.3602 -0.3253
  105OSM   H14A10671   1.111   3.646  10.770  1.6293 -0.4070  1.8325
  105OSM   H14B10672   0.961   3.612  10.850 -0.0090 -0.6290  0.4238
  105OSM   H14C10673   0.994   3.537  10.700  0.4120  1.0715 -0.7692
  105OSM    C1310674   1.185   3.370  10.775 -0.4064  0.1304  0.0187
  105OSM   H13A10675   1.106   3.320  10.722 -0.5705  2.9533 -2.5586
  105OSM   H13B10676   1.260   3.307  10.819  0.9428 -0.8959 -3.6452
  105OSM   H13C10677   1.244   3.422  10.701 -2.5002  0.8511 -1.1959
  105OSM    C1210678   1.020   3.386  10.961 -0.3132 -0.5444  0.4610
  105OSM   H12A10679   0.964   3.453  11.024  0.9543 -0.0272  1.0500
  105OSM   H12B10680   1.076   3.322  11.026 -1.6048 -4.1380 -1.8409
  105OSM    C1110681   0.922   3.299  10.889 -0.3829  0.3120  0.3085
  105OSM   H11A10682   0.865   3.366  10.821  2.1420  1.8197 -0.4093
  105OSM   H11B10683   0.853   3.271  10.972 -0.3298  1.8428  0.8929
  105OSM      P10684   0.888   3.068  10.786  0.1630  0.0783 -0.0862
  105OSM    O1310685   0.979   2.968  10.719  0.3869  0.1937  0.2799
  105OSM    O1410686   0.802   3.024  10.898 -0.0726 -0.1117  0.8641
  105OSM    O1110687   0.807   3.134  10.669 -0.5364  0.3608  0.3697
  105OSM    O1210688   0.985   3.180  10.837  0.4983 -0.5400  0.4833
  105OSM    C1S10689   0.869   3.223  10.578 -0.0451  0.5101 -0.0404
  105OSM    H1S10690   0.980   3.222  10.587 -0.1144 -1.2596  0.8960
  105OSM    H1T10691   0.828   3.325  10.598 -0.8480  0.3635 -0.9027
  105OSM     NF10692   0.886   3.284  10.341  0.4791  0.2266 -0.3912
  105OSM    HNF10693   0.827   3.357  10.306  1.5068  1.4957  0.5219
  105OSM    C2S10694   0.821   3.191  10.429  0.3437 -0.3844 -0.1412
  105OSM    H2S10695   0.851   3.085  10.417 -0.2109 -0.7252  1.4047
  105OSM    C3S10696   0.669   3.186  10.417 -0.6905  0.5091 -0.4125
  105OSM    H3S10697   0.631   3.277  10.469 -1.4373 -1.3512  2.4192
  105OSM     O310698   0.617   3.074  10.484  0.1185  0.2584 -0.1883
  105OSM    HO310699   0.692   3.028  10.524 -0.0517  0.0337 -0.1271
  105OSM    C4S10700   0.622   3.163  10.278  0.5972 -0.9973 -0.3817
  105OSM    H4S10701   0.651   3.065  10.237 -0.5455 -2.9455  3.2624
  105OSM    C5S10702   0.538   3.232  10.197 -0.0025 -0.2793 -0.5503
  105OSM    H5S10703   0.485   3.321  10.235 -0.6170 -0.6545 -0.5268
  105OSM    C6S10704   0.493   3.187  10.062  0.1331  0.5607  0.0218
  105OSM    H6S10705   0.487   3.277   9.996  0.4481  0.4206 -0.2005
  105OSM    H6T10706   0.391   3.144  10.074 -0.5455  1.7800 -1.1707
  105OSM    C7S10707   0.587   3.092   9.984 -0.0389 -0.0857  0.1150
  105OSM    H7S10708   0.607   2.998  10.040 -0.7072 -1.0492 -1.2228
  105OSM    H7T10709   0.690   3.132   9.971 -1.1053  1.8201 -2.9202
  105OSM    C8S10710   0.523   3.050   9.846 -0.2785  1.0021 -0.6713
  105OSM    H8S10711   0.498   3.135   9.781  0.8173  0.4322 -1.8718
  105OSM    H8T10712   0.439   2.982   9.870  1.0364 -0.6588 -0.6307
  105OSM    C9S10713   0.639   2.986   9.749 -0.4644  0.0477  0.8013
  105OSM    H9S10714   0.702   2.921   9.813  3.4551  2.2337 -0.6870
  105OSM    H9T10715   0.694   3.075   9.712 -0.1032 -0.0039  1.2159
  105OSM   C10S10716   0.586   2.911   9.625  0.3391  0.2028 -0.4694
  105OSM   H10S10717   0.509   2.970   9.572 -0.6305 -0.2656  0.3840
  105OSM   H10T10718   0.537   2.820   9.667  2.8535 -1.6647 -1.5067
  105OSM   C11S10719   0.702   2.882   9.521 -0.0573 -0.3775  0.0942
  105OSM   H11S10720   0.672   2.788   9.469  0.3370 -0.2004 -0.4526
  105OSM   H11T10721   0.790   2.854   9.583 -1.8996 -2.7321  1.7683
  105OSM   C12S10722   0.740   3.005   9.428 -0.0676 -0.1618 -0.1279
  105OSM   H12S10723   0.828   2.978   9.366  1.5567  2.5476  0.9354
  105OSM   H12T10724   0.766   3.093   9.490  0.6424  0.3849 -1.1982
  105OSM   C13S10725   0.624   3.038   9.334  0.2430  0.4427 -0.0498
  105OSM   H13S10726   0.521   3.004   9.361  0.3916 -0.1339 -0.2005
  105OSM   H13T10727   0.641   2.975   9.244  1.2578  0.1568  0.3415
  105OSM   C14S10728   0.627   3.180   9.284  0.2538  0.0428  0.1769
  105OSM   H14S10729   0.725   3.232   9.289  0.9075 -1.1853  0.3567
  105OSM   H14T10730   0.544   3.241   9.326 -0.7988 -1.0155 -0.3459
  105OSM   C15S10731   0.589   3.187   9.131  0.3581  0.2616  0.0331
  105OSM   H15S10732   0.491   3.137   9.112  0.5996  0.7839 -2.7559
  105OSM   H15T10733   0.668   3.136   9.072 -0.0565 -0.3370 -0.0170
  105OSM   C16S10734   0.573   3.329   9.075  0.3529 -0.3312  0.4773
  105OSM   H16S10735   0.674   3.374   9.087 -0.2003  0.7255  1.2370
  105OSM   H16T10736   0.497   3.388   9.132 -0.9921  0.0839 -1.6778
  105OSM   C17S10737   0.548   3.335   8.921  0.2135 -0.5054  0.3164
  105OSM   H17S10738   0.460   3.271   8.897  0.2561 -0.4659  0.0514
  105OSM   H17T10739   0.636   3.280   8.883  1.5467  1.4837  0.4363
  105OSM   C18S10740   0.537   3.482   8.872  0.1837  0.2142  0.0355
  105OSM   H18S10741   0.638   3.527   8.882 -0.1689  1.1758 -0.6308
  105OSM   H18T10742   0.464   3.544   8.928 -0.4737  1.2220 -1.9124
  105OSM   H18U10743   0.506   3.473   8.766 -1.4232 -2.1434  0.6462
  105OSM    C1F10744   1.015   3.289  10.313 -0.3078  0.2444  0.0792
  105OSM     OF10745   1.088   3.213  10.374 -0.4592 -0.6861  0.2910
  105OSM    C2F10746   1.075   3.386  10.221 -0.2876 -0.4899 -0.2575
  105OSM    H2F10747   1.146   3.443  10.284 -0.5506 -0.6590  0.1966
  105OSM    H2G10748   1.006   3.466  10.187 -1.0535 -1.0085  0.0656
  105OSM    C3F10749   1.145   3.315  10.104 -0.2627 -0.8335  0.2945
  105OSM    H3F10750   1.239   3.265  10.137 -0.3159 -1.2502 -0.1973
  105OSM    H3G10751   1.181   3.393  10.033  0.4409 -2.2488 -0.9081
  105OSM    C4F10752   1.055   3.216  10.026  0.4020 -0.1109 -0.4935
  105OSM    H4F10753   0.980   3.280   9.974 -0.5440  0.4369  1.4905
  105OSM    H4G10754   1.002   3.139  10.085  0.3616 -0.5127 -1.0505
  105OSM    C5F10755   1.128   3.131   9.918  0.5221 -0.3800 -0.1076
  105OSM    H5F10756   1.146   3.026   9.950  2.2045  0.4926  1.8544
  105OSM    H5G10757   1.228   3.175   9.896  0.0084 -0.2879 -2.3956
  105OSM    C6F10758   1.055   3.136   9.791  0.1435 -0.5721 -0.4338
  105OSM    H6F10759   1.038   3.245   9.778  0.9297 -0.4654 -0.6033
  105OSM    H6G10760   0.954   3.090   9.796  0.3736 -1.0748 -0.3536
  105OSM    C7F10761   1.140   3.083   9.667  0.4402  0.6580 -0.4167
  105OSM    H7F10762   1.180   2.983   9.697 -0.6937 -0.3272 -2.1217
  105OSM    H7G10763   1.230   3.149   9.658  2.5015 -2.0828 -0.6146
  105OSM    C8F10764   1.065   3.067   9.539  0.2272 -0.3632 -0.3648
  105OSM    H8F10765   1.033   3.166   9.500  0.5364 -0.1414 -0.0610
  105OSM    H8G10766   0.970   3.011   9.553 -0.0931  0.4387  0.7525
  105OSM    C9F10767   1.153   2.995   9.429  0.7422  0.0569 -0.5411
  105OSM    H9F10768   1.185   2.896   9.467 -2.8671 -0.4097  1.5035
  105OSM   C10F10769   1.203   3.039   9.313 -0.0878 -0.4216  0.7225
  105OSM   H10F10770   1.249   2.967   9.244 -0.1910 -0.7068  0.9492
  105OSM   C11F10771   1.194   3.180   9.259 -0.0521 -0.7451  0.7520
  105OSM   H11F10772   1.283   3.210   9.200 -1.8597 -1.1395 -2.2498
  105OSM   H11G10773   1.209   3.249   9.345  1.3918 -0.8095  0.5658
  105OSM   C12F10774   1.070   3.207   9.174  0.2539 -0.7406 -0.3039
  105OSM   H12F10775   1.089   3.311   9.139  2.0451 -0.5710  1.0670
  105OSM   H12G10776   0.983   3.212   9.241  1.8171  0.0145  1.7179
  105OSM   C13F10777   1.040   3.123   9.046  0.2332 -0.1479  0.5959
  105OSM   H13F10778   0.950   3.145   8.985  0.4840 -0.3643  0.1489
  105OSM   H13G10779   1.033   3.015   9.071  0.3349 -0.4076 -0.4882
  105OSM   C14F10780   1.156   3.119   8.943 -0.6433  0.1388  0.2009
  105OSM   H14F10781   1.249   3.105   9.002 -0.3512 -0.0635 -0.3014
  105OSM   H14G10782   1.154   3.222   8.901 -1.4196 -0.2715 -0.7762
  105OSM   C15F10783   1.144   3.014   8.843  0.0410 -0.2098  0.2572
  105OSM   H15F10784   1.044   3.029   8.796  0.2610  0.6525  0.0760
  105OSM   H15G10785   1.134   2.921   8.903  0.9468 -0.0026  0.7310
  105OSM   C16F10786   1.248   3.002   8.731  0.0888 -0.9288 -0.4728
  105OSM   H16F10787   1.353   2.992   8.765  0.3155 -0.0065 -0.8748
  105OSM   H16G10788   1.241   3.105   8.690  1.0050 -1.0375 -0.9158
  105OSM   C17F10789   1.217   2.904   8.620  0.2306  0.2816 -0.3169
  105OSM   H17F10790   1.107   2.896   8.605 -0.0987 -0.9229  2.4086
  105OSM   H17G10791   1.256   2.802   8.643  1.2461  0.4601 -1.2684
  105OSM   C18F10792   1.283   2.951   8.487 -0.1016 -0.3434  0.2255
  105OSM   H18F10793   1.268   2.862   8.422 -2.7696  0.0920  0.2131
  105OSM   H18G10794   1.392   2.967   8.501 -0.1925  0.3683  0.1378
  105OSM   H18H10795   1.224   3.035   8.445  1.1855  0.4091 -0.1282
  106OSM      N10796   2.496   1.069  11.169  0.2921 -0.4200 -0.2470
  106OSM    C1510797   2.419   1.199  11.149  0.5546 -0.4038  0.5202
  106OSM   H15A10798   2.447   1.246  11.055 -0.6770 -1.9749 -0.6616
  106OSM   H15B10799   2.435   1.267  11.231 -2.6348  2.0105 -0.6989
  106OSM   H15C10800   2.314   1.171  11.146  0.8722 -1.7319  1.5954
  106OSM    C1410801   2.624   1.104  11.218  0.2361 -0.0927 -0.5432
  106OSM   H14A10802   2.689   1.022  11.246 -0.1473 -0.1279  0.2646
  106OSM   H14B10803   2.617   1.152  11.315 -0.8280 -0.9811 -0.1655
  106OSM   H14C10804   2.679   1.165  11.148  0.4726 -0.5404 -0.7530
  106OSM    C1310805   2.421   1.001  11.280 -0.2730 -0.0539  0.4312
  106OSM   H13A10806   2.474   0.919  11.326  1.8287  1.2820  0.4916
  106OSM   H13B10807   2.331   0.957  11.241 -0.7887  1.1021  0.2882
  106OSM   H13C10808   2.389   1.078  11.348 -0.3735 -0.4736  0.8623
  106OSM    C1210809   2.502   0.986  11.043 -0.5951  0.1994  0.1634
  106OSM   H12A10810   2.402   0.998  11.005 -0.3605  1.6604 -0.0076
  106OSM   H12B10811   2.520   0.882  11.069 -1.3508 -0.5216 -2.0885
  106OSM    C1110812   2.598   1.018  10.919 -0.4982 -0.1642 -0.4600
  106OSM   H11A10813   2.590   0.937  10.843  0.4492 -0.0337 -0.7053
  106OSM   H11B10814   2.702   1.023  10.957 -0.3858  0.0419 -0.7872
  106OSM      P10815   2.462   1.151  10.737  0.0201 -0.6933 -0.0905
  106OSM    O1310816   2.359   1.045  10.761  0.1727 -0.3401 -0.4468
  106OSM    O1410817   2.420   1.290  10.706 -0.4385  0.4604 -1.0234
  106OSM    O1110818   2.555   1.099  10.615 -0.4550 -1.1876  0.6846
  106OSM    O1210819   2.565   1.145  10.858 -0.1527  0.0240  0.0541
  106OSM    C1S10820   2.487   1.080  10.488  0.0360  0.1741  0.9101
  106OSM    H1S10821   2.494   1.175  10.430 -1.4457 -2.1038 -3.1502
  106OSM    H1T10822   2.378   1.061  10.494 -0.3119  2.0699  1.0573
  106OSM     NF10823   2.516   0.968  10.271 -0.0232 -0.6554 -0.0687
  106OSM    HNF10824   2.446   0.901  10.248  0.2060 -0.8630 -0.1673
  106OSM    C2S10825   2.556   0.971  10.405  0.4022 -0.1611 -0.0319
  106OSM    H2S10826   2.664   0.995  10.413 -0.2705  2.6773  1.2039
  106OSM    C3S10827   2.542   0.830  10.478 -0.0446 -0.3966 -0.4696
  106OSM    H3S10828   2.432   0.814  10.479 -0.6589  3.1311 -2.9948
  106OSM     O310829   2.588   0.832  10.618  1.0460  0.2254  0.7111
  106OSM    HO310830   2.617   0.921  10.638  0.7324  0.5283 -0.1760
  106OSM    C4S10831   2.614   0.718  10.402 -0.6236 -0.6207 -1.0769
  106OSM    H4S10832   2.724   0.723  10.405 -0.7688  2.8629  0.8036
  106OSM    C5S10833   2.559   0.607  10.350 -0.0465 -0.0265 -0.2940
  106OSM    H5S10834   2.452   0.582  10.358 -0.2263  1.3073  1.8135
  106OSM    C6S10835   2.639   0.498  10.279  0.2570  0.1427 -0.1421
  106OSM    H6S10836   2.614   0.395  10.312  1.2879 -0.2235 -0.4897
  106OSM    H6T10837   2.747   0.520  10.294  0.2151 -0.3560  0.9086
  106OSM    C7S10838   2.600   0.484  10.130 -0.5718  0.3751 -0.2029
  106OSM    H7S10839   2.495   0.450  10.117 -0.6332  0.2297  0.6687
  106OSM    H7T10840   2.670   0.405  10.096 -0.7932  1.0631 -2.3170
  106OSM    C8S10841   2.629   0.607  10.041 -0.3006 -0.3504 -0.0919
  106OSM    H8S10842   2.732   0.635  10.071 -0.0034 -1.3270 -0.1658
  106OSM    H8T10843   2.562   0.692  10.062  3.7608  2.6703  1.1732
  106OSM    C9S10844   2.613   0.570   9.894  0.2883 -0.0588 -0.1229
  106OSM    H9S10845   2.516   0.522   9.867  0.3106  0.7507 -1.7344
  106OSM    H9T10846   2.693   0.496   9.874  0.8274 -0.6487  3.7898
  106OSM   C10S10847   2.609   0.690   9.797 -0.0211 -0.2464  0.0472
  106OSM   H10S10848   2.690   0.762   9.819  1.0350 -1.3737 -0.0500
  106OSM   H10T10849   2.518   0.746   9.827  0.3038  0.6471 -0.6224
  106OSM   C11S10850   2.605   0.651   9.648  0.8122 -0.3912  0.3389
  106OSM   H11S10851   2.566   0.731   9.581 -0.2696 -0.0526  1.3615
  106OSM   H11T10852   2.543   0.560   9.636  0.0116  0.2337 -0.3052
  106OSM   C12S10853   2.749   0.622   9.597  0.4641  0.2448  0.2090
  106OSM   H12S10854   2.788   0.541   9.662 -2.4916  0.8950  2.9083
  106OSM   H12T10855   2.808   0.716   9.598 -0.3613  0.8461 -2.1771
  106OSM   C13S10856   2.754   0.563   9.456 -0.5086  0.1350 -0.3840
  106OSM   H13S10857   2.706   0.463   9.453 -0.3465  0.0520 -0.2059
  106OSM   H13T10858   2.863   0.552   9.438 -0.4259  0.2740  0.0130
  106OSM   C14S10859   2.696   0.650   9.345 -0.0322  0.2695 -0.8645
  106OSM   H14S10860   2.712   0.755   9.376  1.0584  0.2253 -1.2588
  106OSM   H14T10861   2.587   0.630   9.354 -0.4274  3.5981  3.2208
  106OSM   C15S10862   2.745   0.612   9.208  0.3300 -1.2130  0.2618
  106OSM   H15S10863   2.719   0.511   9.170  1.0924 -1.3245  0.0298
  106OSM   H15T10864   2.855   0.624   9.210  0.1378  0.7573  0.1213
  106OSM   C16S10865   2.685   0.709   9.099 -0.1602  0.4392 -0.1368
  106OSM   H16S10866   2.718   0.814   9.115 -0.1090  0.6740 -1.6500
  106OSM   H16T10867   2.575   0.697   9.109  0.0792 -0.6241  1.3338
  106OSM   C17S10868   2.745   0.669   8.959  0.2509  0.1585 -0.5002
  106OSM   H17S10869   2.773   0.561   8.965  1.4825  0.4895 -0.0172
  106OSM   H17T10870   2.836   0.730   8.942  1.0106 -0.8953 -0.2862
  106OSM   C18S10871   2.644   0.692   8.844 -1.2447  0.0264 -0.0195
  106OSM   H18S10872   2.693   0.671   8.747 -0.6154 -1.4434  0.6122
  106OSM   H18T10873   2.614   0.799   8.840  1.0792  0.7207  0.2019
  106OSM   H18U10874   2.560   0.628   8.878  0.2372 -1.1438  1.5266
  106OSM    C1F10875   2.529   1.075  10.194 -0.0032 -0.6173 -0.1678
  106OSM     OF10876   2.601   1.171  10.228 -0.1629 -0.3677  0.3412
  106OSM    C2F10877   2.444   1.078  10.074 -0.1542  0.3393  0.4052
  106OSM    H2F10878   2.375   1.165  10.075 -0.5356  0.0638 -1.1384
  106OSM    H2G10879   2.380   0.987  10.071 -1.8358  1.4962  0.2032
  106OSM    C3F10880   2.513   1.093   9.943  0.3772 -0.5982 -0.1120
  106OSM    H3F10881   2.584   1.008   9.941 -0.7100 -1.5370  0.4076
  106OSM    H3G10882   2.582   1.178   9.926 -0.3133  0.2921  1.5108
  106OSM    C4F10883   2.424   1.102   9.810 -0.3257 -0.0405  1.2586
  106OSM    H4F10884   2.369   1.198   9.811  0.7632  0.6745 -1.4561
  106OSM    H4G10885   2.356   1.013   9.815 -0.5190  0.0869  0.9146
  106OSM    C5F10886   2.519   1.101   9.685 -0.2023 -0.5311  0.0092
  106OSM    H5F10887   2.586   1.013   9.683  0.2576 -0.2098  0.7457
  106OSM    H5G10888   2.599   1.178   9.689 -0.3274 -0.4098  0.2829
  106OSM    C6F10889   2.444   1.119   9.562  0.5974 -0.5032 -0.7770
  106OSM    H6F10890   2.373   1.204   9.574  1.8934  0.4145  0.4931
  106OSM    H6G10891   2.383   1.028   9.540  0.0942 -0.1928 -0.6752
  106OSM    C7F10892   2.532   1.141   9.444 -0.5308  0.7422  0.8521
  106OSM    H7F10893   2.633   1.094   9.448 -0.8721  0.0134  1.1152
  106OSM    H7G10894   2.551   1.250   9.440 -0.8115  0.7363 -1.5033
  106OSM    C8F10895   2.484   1.104   9.300 -0.0198  0.0774 -0.2199
  106OSM    H8F10896   2.377   1.123   9.277 -0.3062  0.2696  1.2140
  106OSM    H8G10897   2.489   0.993   9.291 -0.1487  0.1978 -1.9605
  106OSM    C9F10898   2.570   1.178   9.195 -0.6056  0.1542  0.2387
  106OSM    H9F10899   2.677   1.160   9.208 -0.8861 -2.2359 -0.6331
  106OSM   C10F10900   2.527   1.261   9.103 -0.0831  0.3863 -0.3949
  106OSM   H10F10901   2.599   1.328   9.055  2.2337 -0.7913  1.3451
  106OSM   C11F10902   2.380   1.308   9.086 -0.1393 -0.2309 -0.1838
  106OSM   H11F10903   2.381   1.419   9.078 -2.1682 -0.2080 -0.4309
  106OSM   H11G10904   2.300   1.276   9.156  0.2872 -0.0832  0.3677
  106OSM   C12F10905   2.327   1.259   8.951 -1.0216  0.5006  1.2255
  106OSM   H12F10906   2.296   1.152   8.957  0.6184  0.0488  1.7906
  106OSM   H12G10907   2.400   1.272   8.869 -2.7291  0.2087 -0.3734
  106OSM   C13F10908   2.209   1.346   8.901  0.2549  0.1242 -0.3393
  106OSM   H13F10909   2.219   1.454   8.923  2.0562 -0.1004  0.0430
  106OSM   H13G10910   2.127   1.316   8.968 -2.0580  2.8543 -1.8314
  106OSM   C14F10911   2.169   1.329   8.756  0.0260  0.6881 -0.3097
  106OSM   H14F10912   2.149   1.221   8.742 -1.1866  1.0980 -1.7293
  106OSM   H14G10913   2.252   1.354   8.687  1.5039  2.9067  2.1599
  106OSM   C15F10914   2.039   1.393   8.716 -0.2547 -0.5229 -0.0103
  106OSM   H15F10915   2.057   1.501   8.693 -2.5659 -0.1490 -0.2589
  106OSM   H15G10916   1.965   1.384   8.799 -0.0234  1.7327  0.4727
  106OSM   C16F10917   1.976   1.335   8.592 -0.6007 -0.1586  0.3372
  106OSM   H16F10918   2.051   1.303   8.516 -0.0641 -1.2276  1.3101
  106OSM   H16G10919   1.928   1.419   8.537 -1.0227 -0.1798  0.6784
  106OSM   C17F10920   1.882   1.224   8.619 -0.1583  0.3168 -0.3898
  106OSM   H17F10921   1.822   1.248   8.709  2.0735  0.4363  1.1092
  106OSM   H17G10922   1.937   1.133   8.651  0.9954  1.7324  1.7665
  106OSM   C18F10923   1.782   1.193   8.506 -0.5024  0.3432 -0.9210
  106OSM   H18F10924   1.720   1.104   8.529  0.1382 -0.3797 -2.0001
  106OSM   H18G10925   1.818   1.163   8.406 -0.0215  0.9921 -0.9497
  106OSM   H18H10926   1.703   1.270   8.497 -0.1050  0.6073 -2.1670
  107OSM      N10927   3.280   5.339  11.361 -0.0744  0.3962 -0.5003
  107OSM    C1510928   3.350   5.262  11.470 -0.4826  0.2111  0.1506
  107OSM   H15A10929   3.295   5.277  11.562 -0.9403  2.1373 -0.4157
  107OSM   H15B10930   3.449   5.304  11.480 -0.5213  0.6544 -1.1573
  107OSM   H15C10931   3.352   5.156  11.452  0.0167  0.2383  0.0538
  107OSM    C1410932   3.135   5.289  11.361 -0.0431 -0.3095 -0.8843
  107OSM   H14A10933   3.073   5.347  11.294 -2.0006 -0.6851  0.5533
  107OSM   H14B10934   3.092   5.296  11.460  0.3076  0.5285 -0.7911
  107OSM   H14C10935   3.139   5.187  11.324  0.8213 -0.0533 -1.4959
  107OSM    C1310936   3.270   5.480  11.398 -0.0380  0.2174 -0.1022
  107OSM   H13A10937   3.367   5.520  11.422 -0.4283  1.5251 -0.6906
  107OSM   H13B10938   3.207   5.493  11.485  1.6503 -2.8661  1.6890
  107OSM   H13C10939   3.230   5.542  11.319  2.3918  0.6537 -1.0186
  107OSM    C1210940   3.345   5.315  11.227  0.6807 -0.1249  0.9347
  107OSM   H12A10941   3.327   5.210  11.212  1.4276 -0.0129 -0.8872
  107OSM   H12B10942   3.450   5.335  11.234  1.0724 -0.8802 -2.0280
  107OSM    C1110943   3.290   5.397  11.109  0.8343  0.1595  0.6493
  107OSM   H11A10944   3.350   5.360  11.024  2.5170 -0.4433  2.0581
  107OSM   H11B10945   3.305   5.507  11.109  2.5356 -0.0620  1.8825
  107OSM      P10946   3.090   5.277  10.985  0.1756 -0.6772  0.0142
  107OSM    O1310947   3.009   5.184  11.060 -0.1561  0.1331 -0.7687
  107OSM    O1410948   3.022   5.345  10.872  0.0586 -0.4335  0.2818
  107OSM    O1110949   3.209   5.198  10.922  0.3094  0.2773  0.6091
  107OSM    O1210950   3.151   5.379  11.089 -0.3605 -1.0506  0.6019
  107OSM    C1S10951   3.189   5.101  10.813 -0.3137 -0.0525 -0.0172
  107OSM    H1S10952   3.086   5.060  10.821 -0.3362 -0.2199 -1.1708
  107OSM    H1T10953   3.260   5.016  10.824  0.6195  0.5852 -1.0398
  107OSM     NF10954   3.182   5.086  10.567 -0.4463  0.1280 -0.2425
  107OSM    HNF10955   3.251   5.040  10.512 -1.6403 -2.5043  0.3932
  107OSM    C2S10956   3.214   5.174  10.674  0.2858 -0.2536  0.0230
  107OSM    H2S10957   3.141   5.258  10.664 -0.1438 -0.3228  2.2631
  107OSM    C3S10958   3.359   5.231  10.663  0.1972  0.3308  1.4641
  107OSM    H3S10959   3.433   5.153  10.691  0.6788  0.7335  1.3235
  107OSM     O310960   3.385   5.341  10.754 -0.1132  0.2944  0.0845
  107OSM    HO310961   3.307   5.342  10.809 -0.6669 -3.3160 -0.5039
  107OSM    C4S10962   3.394   5.277  10.527 -0.2570  0.3537  0.4182
  107OSM    H4S10963   3.461   5.211  10.470 -0.5929  0.6375 -0.3204
  107OSM    C5S10964   3.344   5.389  10.460  0.5198 -0.2488 -0.6512
  107OSM    H5S10965   3.277   5.461  10.509 -0.1345 -1.1288 -0.2204
  107OSM    C6S10966   3.383   5.421  10.317  0.2196 -0.8817 -0.0332
  107OSM    H6S10967   3.435   5.518  10.315 -1.3346  0.0148  1.2982
  107OSM    H6T10968   3.288   5.446  10.265  1.4099  1.5659 -1.0833
  107OSM    C7S10969   3.461   5.338  10.217  0.2386 -0.4802 -0.5170
  107OSM    H7S10970   3.416   5.237  10.202 -1.4988  0.6209 -3.0991
  107OSM    H7T10971   3.559   5.311  10.263  0.5649 -1.1532 -1.5737
  107OSM    C8S10972   3.490   5.394  10.078  0.4162 -0.1172  0.6670
  107OSM    H8S10973   3.567   5.473  10.088  1.4050 -1.3588  3.0742
  107OSM    H8T10974   3.401   5.446  10.036  1.1022  1.0671  0.6747
  107OSM    C9S10975   3.549   5.289   9.981  0.4299  0.6850  0.6562
  107OSM    H9S10976   3.473   5.207   9.974  0.2166  0.8009  1.5365
  107OSM    H9T10977   3.646   5.263  10.028 -0.7327 -0.1942  2.6999
  107OSM   C10S10978   3.582   5.355   9.841 -0.0496  0.3751  0.4128
  107OSM   H10S10979   3.628   5.456   9.847  1.8874 -0.5202  1.0409
  107OSM   H10T10980   3.484   5.355   9.788 -1.2949  3.2141  2.6024
  107OSM   C11S10981   3.684   5.266   9.759  0.1294 -0.4567 -0.2738
  107OSM   H11S10982   3.660   5.159   9.777 -0.0843 -0.2802  0.5256
  107OSM   H11T10983   3.787   5.286   9.794  0.1862  0.8541 -1.1660
  107OSM   C12S10984   3.680   5.282   9.607 -0.0798 -0.6583  0.4197
  107OSM   H12S10985   3.767   5.221   9.571  1.2419  2.3392 -1.6999
  107OSM   H12T10986   3.695   5.389   9.583  3.4655 -0.9402  1.0482
  107OSM   C13S10987   3.539   5.251   9.547 -0.3019 -0.0368  0.0289
  107OSM   H13S10988   3.473   5.338   9.568 -0.5756 -0.2178 -0.0790
  107OSM   H13T10989   3.492   5.164   9.598 -0.3265 -0.0270  0.0220
  107OSM   C14S10990   3.537   5.229   9.389 -0.5054  0.1642 -0.2009
  107OSM   H14S10991   3.621   5.158   9.377 -0.0005  1.0090 -1.7027
  107OSM   H14T10992   3.566   5.321   9.335 -1.8261  0.9885  0.4562
  107OSM   C15S10993   3.397   5.170   9.343  0.5191  0.5233  0.5875
  107OSM   H15S10994   3.333   5.259   9.329  0.5389  0.5107  0.4250
  107OSM   H15T10995   3.347   5.108   9.421  0.6849 -0.1101  0.1940
  107OSM   C16S10996   3.403   5.081   9.219  0.0705  0.9313  0.2646
  107OSM   H16S10997   3.447   4.986   9.258 -1.1792  0.4982  0.6266
  107OSM   H16T10998   3.471   5.123   9.141  0.0565 -0.0267 -0.2716
  107OSM   C17S10999   3.259   5.058   9.167 -0.8122 -0.1061 -0.4782
  107OSM   H17S11000   3.211   4.991   9.242 -0.8864 -0.4565 -0.8381
  107OSM   H17T11001   3.276   4.990   9.080  3.8764  0.3828 -0.0639
  107OSM   C18S11002   3.178   5.182   9.129  0.0391  0.5772 -0.1234
  107OSM   H18S11003   3.081   5.151   9.083  1.6526 -1.2486 -2.4158
  107OSM   H18T11004   3.235   5.231   9.047 -0.4113  1.0629 -0.1484
  107OSM   H18U11005   3.170   5.258   9.209  3.4375  0.1055  0.7261
  107OSM    C1F11006   3.056   5.038  10.551 -0.0849  0.0717  0.3420
  107OSM     OF11007   2.954   5.095  10.596 -0.3421 -0.6052  0.3782
  107OSM    C2F11008   3.044   4.915  10.475 -0.4090  0.5851 -0.1633
  107OSM    H2F11009   2.980   4.951  10.391 -1.7155 -0.1611  0.4935
  107OSM    H2G11010   2.994   4.832  10.530 -1.4812  3.6383  3.7478
  107OSM    C3F11011   3.178   4.872  10.413 -0.6647  0.3894 -0.4816
  107OSM    H3F11012   3.157   4.776  10.362  0.1086 -0.6671  1.1707
  107OSM    H3G11013   3.260   4.856  10.486  2.0113 -0.8679 -3.5972
  107OSM    C4F11014   3.239   4.959  10.299  0.6306 -0.1723 -0.3132
  107OSM    H4F11015   3.323   4.897  10.261  0.0682 -0.0440 -1.8087
  107OSM    H4G11016   3.274   5.058  10.336  1.7448 -0.7072  0.0864
  107OSM    C5F11017   3.143   4.978  10.177 -0.1854  0.8395  0.2919
  107OSM    H5F11018   3.097   5.078  10.186  2.6087  2.0041  2.3370
  107OSM    H5G11019   3.066   4.897  10.180 -0.3051  0.6221 -4.2034
  107OSM    C6F11020   3.219   4.974  10.044  0.2280 -0.3818  0.2574
  107OSM    H6F11021   3.270   4.876  10.033 -0.0854 -0.7746  2.2062
  107OSM    H6G11022   3.298   5.052  10.050  1.1587 -1.4606  2.3172
  107OSM    C7F11023   3.126   5.005   9.930 -0.2753  0.0629  0.7767
  107OSM    H7F11024   3.057   5.090   9.948 -1.8091 -1.2327  1.1074
  107OSM    H7G11025   3.059   4.916   9.933 -0.4034 -0.0603 -3.2439
  107OSM    C8F11026   3.191   5.007   9.797  0.0054 -0.0984 -0.1660
  107OSM    H8F11027   3.117   4.969   9.723 -0.9314 -0.1182  0.7713
  107OSM    H8G11028   3.275   4.934   9.794 -0.8686 -1.0755 -1.5874
  107OSM    C9F11029   3.258   5.138   9.754  0.8974 -0.0130 -0.1647
  107OSM    H9F11030   3.361   5.153   9.790  1.3954 -1.5205 -0.9125
  107OSM   C10F11031   3.208   5.218   9.661  0.3654 -0.1520 -0.5457
  107OSM   H10F11032   3.275   5.294   9.619 -0.0422  0.8540  0.5875
  107OSM   C11F11033   3.072   5.205   9.591 -0.2382  0.2328 -0.9892
  107OSM   H11F11034   2.987   5.166   9.651 -0.2388  0.2388 -0.9864
  107OSM   H11G11035   3.078   5.129   9.510 -1.9196  1.0055 -1.8609
  107OSM   C12F11036   3.038   5.341   9.533  0.2210 -0.5861 -0.5125
  107OSM   H12F11037   3.121   5.371   9.466  0.9445 -0.8286  0.2768
  107OSM   H12G11038   3.036   5.414   9.617 -0.7328  0.8784 -1.7721
  107OSM   C13F11039   2.910   5.349   9.450 -0.4150  0.3523  0.2376
  107OSM   H13F11040   2.855   5.442   9.475 -0.6376  0.4320 -0.5388
  107OSM   H13G11041   2.843   5.266   9.483  0.4248 -1.4410 -2.3772
  107OSM   C14F11042   2.927   5.334   9.304 -0.0805  0.8097 -0.0030
  107OSM   H14F11043   2.958   5.228   9.291  0.5970  1.0557 -0.4712
  107OSM   H14G11044   3.007   5.399   9.260 -1.3398  2.5467  0.2232
  107OSM   C15F11045   2.803   5.368   9.228 -0.1581 -0.9270 -0.3001
  107OSM   H15F11046   2.760   5.468   9.253 -1.8170 -1.0557 -2.4535
  107OSM   H15G11047   2.723   5.295   9.254  0.0757 -0.8705  0.5950
  107OSM   C16F11048   2.830   5.366   9.076 -0.1490  0.1697 -0.0597
  107OSM   H16F11049   2.870   5.269   9.040  0.5712  0.3284  0.3091
  107OSM   H16G11050   2.901   5.445   9.047  0.5221 -0.0666  0.9162
  107OSM   C17F11051   2.700   5.389   8.991 -0.4070 -0.2613 -0.1844
  107OSM   H17F11052   2.678   5.498   8.991 -2.4960 -0.6424  1.3193
  107OSM   H17G11053   2.614   5.341   9.042  0.9164  0.9586  3.3303
  107OSM   C18F11054   2.711   5.350   8.846 -0.3293 -0.4350 -0.3638
  107OSM   H18F11055   2.805   5.390   8.803 -0.8099  0.9914 -0.0967
  107OSM   H18G11056   2.625   5.396   8.793  1.9261  1.4230 -2.5211
  107OSM   H18H11057   2.706   5.239   8.833 -0.3007 -0.1921 -2.7057
  108OSM      N11058   6.252   3.773  10.636 -0.1342 -0.2529  0.4214
  108OSM    C1511059   6.251   3.658  10.547 -0.6547  0.9047 -0.3771
  108OSM   H15A11060   6.156   3.632  10.503 -0.4671 -0.2868 -0.1042
  108OSM   H15B11061   6.289   3.568  10.593 -1.8918 -0.8054 -2.5885
  108OSM   H15C11062   6.314   3.684  10.464  0.1714 -0.5642 -0.2228
  108OSM    C1411063   6.180   3.889  10.564 -0.6067 -0.1127  0.1028
  108OSM   H14A11064   6.219   3.907  10.465 -2.5638 -1.0494 -0.8525
  108OSM   H14B11065   6.195   3.983  10.615  1.8412 -0.8702  0.8606
  108OSM   H14C11066   6.074   3.869  10.558 -0.7239  0.6418 -0.3483
  108OSM    C1311067   6.171   3.737  10.754 -0.0467 -0.3947  0.1588
  108OSM   H13A11068   6.073   3.705  10.723 -0.7180  1.3357  0.4457
  108OSM   H13B11069   6.145   3.822  10.815  1.0091 -0.6743  1.0326
  108OSM   H13C11070   6.198   3.649  10.811 -2.3752 -1.5589 -0.4925
  108OSM    C1211071   6.388   3.811  10.683 -0.1401  0.9499  0.3384
  108OSM   H12A11072   6.384   3.866  10.776 -1.1736  0.0981  0.8109
  108OSM   H12B11073   6.430   3.882  10.613 -1.8933  1.6284 -0.0744
  108OSM    C1111074   6.485   3.690  10.719 -0.0879 -0.4637 -0.2574
  108OSM   H11A11075   6.567   3.725  10.786 -1.1681  0.5842  0.5619
  108OSM   H11B11076   6.534   3.667  10.623 -0.4193  1.0270 -0.8036
  108OSM      P11077   6.498   3.451  10.825 -0.4316 -0.3070 -0.3087
  108OSM    O1311078   6.588   3.485  10.936  0.0959  0.6575  0.3854
  108OSM    O1411079   6.391   3.355  10.863  0.3001 -0.6759  0.3513
  108OSM    O1111080   6.576   3.399  10.698  0.3891 -1.1652  0.2242
  108OSM    O1211081   6.417   3.575  10.782 -0.4489 -0.1125 -0.1604
  108OSM    C1S11082   6.510   3.340  10.582 -0.3509 -0.0695  0.2883
  108OSM    H1S11083   6.460   3.418  10.522  0.0294 -0.1264 -0.1161
  108OSM    H1T11084   6.434   3.270  10.623 -0.1096  0.2611  1.3133
  108OSM     NF11085   6.560   3.220  10.370 -0.1988  0.0535  0.4988
  108OSM    HNF11086   6.566   3.122  10.349 -0.5860 -0.0663  0.9371
  108OSM    C2S11087   6.613   3.264  10.494 -0.2760 -0.4580  0.2261
  108OSM    H2S11088   6.699   3.332  10.477 -0.2300 -0.2726  1.1410
  108OSM    C3S11089   6.668   3.144  10.583 -0.3768 -0.0214  0.4243
  108OSM    H3S11090   6.584   3.076  10.607 -0.1335 -1.2924 -2.1719
  108OSM     O311091   6.738   3.180  10.705  0.0623 -0.3457  0.4934
  108OSM    HO311092   6.712   3.268  10.732 -0.7117 -1.2902  3.0226
  108OSM    C4S11093   6.769   3.061  10.495  0.4244  0.7580 -0.3161
  108OSM    H4S11094   6.731   2.966  10.453  1.8019  0.2597 -0.4513
  108OSM    C5S11095   6.898   3.093  10.467  0.1703  0.5562 -0.3758
  108OSM    H5S11096   6.936   3.191  10.500  0.9675  0.1156  0.0545
  108OSM    C6S11097   6.986   3.015  10.367 -0.1198  0.5517  0.3370
  108OSM    H6S11098   7.059   2.950  10.420  0.2305  1.5446  1.0757
  108OSM    H6T11099   7.054   3.082  10.311  1.3270 -2.5738 -1.7719
  108OSM    C7S11100   6.910   2.942  10.256 -0.1734 -0.0397 -0.4968
  108OSM    H7S11101   6.840   3.019  10.217 -1.2858  0.3713  2.2421
  108OSM    H7T11102   6.837   2.862  10.281 -0.4172 -0.0343 -1.1582
  108OSM    C8S11103   6.995   2.900  10.131 -0.2580  0.2915 -0.1286
  108OSM    H8S11104   7.077   2.974  10.118  1.9346 -2.0756 -0.1338
  108OSM    H8T11105   6.934   2.913  10.038  0.2991 -2.5848 -0.9269
  108OSM    C9S11106   7.044   2.756  10.141  0.6227 -0.0565  0.2969
  108OSM    H9S11107   6.953   2.692  10.149  0.7703 -0.4047 -0.7111
  108OSM    H9T11108   7.093   2.747  10.240  1.0128 -0.4329  0.0693
  108OSM   C10S11109   7.123   2.703  10.016 -0.1791 -0.6186 -0.2170
  108OSM   H10S11110   7.175   2.608  10.041  0.6521 -0.0499  0.2419
  108OSM   H10T11111   7.201   2.780   9.995  1.3114 -1.7552  1.0410
  108OSM   C11S11112   7.034   2.691   9.896 -0.0097 -0.9399  0.1044
  108OSM   H11S11113   6.983   2.788   9.879 -0.2283 -1.1825 -0.6400
  108OSM   H11T11114   6.959   2.613   9.921 -2.3377  1.8035  1.9868
  108OSM   C12S11115   7.111   2.658   9.772 -0.5312  0.3308  0.4375
  108OSM   H12S11116   7.108   2.548   9.781  0.8870  0.0587 -1.8482
  108OSM   H12T11117   7.219   2.686   9.778 -0.2230  0.3010 -3.6444
  108OSM   C13S11118   7.040   2.691   9.637 -0.0418  0.3701 -0.0149
  108OSM   H13S11119   7.027   2.801   9.631  0.6783  0.4745  0.2791
  108OSM   H13T11120   6.933   2.665   9.655  0.4341 -0.4682  1.8108
  108OSM   C14S11121   7.110   2.646   9.510 -0.3353 -0.1541  0.3228
  108OSM   H14S11122   7.093   2.538   9.493 -2.2285  0.0117  1.0906
  108OSM   H14T11123   7.220   2.662   9.506 -0.5042  0.6033 -2.1875
  108OSM   C15S11124   7.065   2.715   9.384  0.5316  0.4599 -0.3112
  108OSM   H15S11125   7.080   2.823   9.405  1.3334  0.3849 -0.4895
  108OSM   H15T11126   6.957   2.694   9.366  1.2627 -3.4074 -0.7250
  108OSM   C16S11127   7.144   2.661   9.262  0.0958 -0.3467 -0.0579
  108OSM   H16S11128   7.179   2.558   9.284 -3.8480 -1.7465  0.0767
  108OSM   H16T11129   7.238   2.720   9.254 -0.6501  1.1048  1.6804
  108OSM   C17S11130   7.068   2.666   9.132  0.1312  0.1091  0.9230
  108OSM   H17S11131   7.014   2.763   9.131  0.6350  0.3936 -0.1393
  108OSM   H17T11132   6.981   2.599   9.148  1.7200 -1.3818  3.7490
  108OSM   C18S11133   7.146   2.630   9.009 -0.5548 -0.2809  0.4353
  108OSM   H18S11134   7.246   2.679   9.011  0.2113 -1.7649 -0.7035
  108OSM   H18T11135   7.094   2.660   8.916  0.0051 -0.4026  0.0790
  108OSM   H18U11136   7.168   2.522   9.007  3.1700  0.3992  0.7299
  108OSM    C1F11137   6.528   3.302  10.271  0.9045 -0.5686 -0.4812
  108OSM     OF11138   6.512   3.423  10.289 -0.0835  0.4462  0.0854
  108OSM    C2F11139   6.516   3.232  10.140 -0.2145 -0.3242  0.4610
  108OSM    H2F11140   6.420   3.179  10.121 -0.1982 -0.1261 -0.1944
  108OSM    H2G11141   6.597   3.156  10.138  1.1512  1.0704  1.7875
  108OSM    C3F11142   6.526   3.325  10.019  0.6998  0.2982 -0.0878
  108OSM    H3F11143   6.627   3.370  10.016  1.5730 -1.5371  1.2570
  108OSM    H3G11144   6.450   3.405  10.029 -0.9940 -0.9648 -2.2818
  108OSM    C4F11145   6.503   3.244   9.896  0.0846  0.1469  0.4411
  108OSM    H4F11146   6.409   3.186   9.908 -0.5621  0.9495 -0.6198
  108OSM    H4G11147   6.575   3.159   9.898  1.7529  1.5330  0.6770
  108OSM    C5F11148   6.507   3.329   9.763  0.3897  0.3335  0.3929
  108OSM    H5F11149   6.608   3.364   9.734  0.4308  0.7815  1.0401
  108OSM    H5G11150   6.450   3.421   9.790 -1.9123 -1.1686  0.8005
  108OSM    C6F11151   6.464   3.250   9.641 -0.2881 -0.3208  0.4216
  108OSM    H6F11152   6.405   3.161   9.673 -1.2326 -0.2114 -0.9413
  108OSM    H6G11153   6.556   3.214   9.590  0.4533 -0.4547  1.8492
  108OSM    C7F11154   6.405   3.344   9.542 -0.1009  0.0514 -0.6928
  108OSM    H7F11155   6.483   3.413   9.503 -0.4296  1.1906  0.6244
  108OSM    H7G11156   6.326   3.411   9.582  1.4646  0.1763  2.3171
  108OSM    C8F11157   6.362   3.273   9.410 -0.1496 -0.2026 -0.1410
  108OSM    H8F11158   6.317   3.356   9.351  1.4072 -0.2927 -1.4820
  108OSM    H8G11159   6.274   3.208   9.429  0.1711  0.3779  3.8527
  108OSM    C9F11160   6.473   3.211   9.332  0.2220 -0.0693  0.0430
  108OSM    H9F11161   6.559   3.278   9.318  0.9646 -1.5870 -3.0871
  108OSM   C10F11162   6.483   3.087   9.271  0.1477 -0.0454  0.4726
  108OSM   H10F11163   6.586   3.055   9.247  1.0765  2.2929  1.1724
  108OSM   C11F11164   6.385   2.973   9.274  0.0550  0.5844  0.3219
  108OSM   H11F11165   6.353   2.947   9.171 -0.9868  1.0360  0.5277
  108OSM   H11G11166   6.301   2.991   9.343 -1.5823  0.2530 -1.5349
  108OSM   C12F11167   6.451   2.859   9.351 -0.2666 -0.5308  0.4537
  108OSM   H12F11168   6.522   2.808   9.283  2.6155  0.4822  2.6052
  108OSM   H12G11169   6.379   2.778   9.373 -1.5189  0.3880 -0.1446
  108OSM   C13F11170   6.522   2.892   9.491  0.2445 -0.7093 -0.0833
  108OSM   H13F11171   6.443   2.937   9.554 -0.3544 -2.1652  0.2420
  108OSM   H13G11172   6.610   2.958   9.478  1.8716 -2.9852 -0.9618
  108OSM   C14F11173   6.568   2.761   9.559 -0.3859 -0.1345  0.5255
  108OSM   H14F11174   6.639   2.702   9.497  1.1010  0.6865  1.4154
  108OSM   H14G11175   6.482   2.693   9.579  1.6652 -2.5001  1.6181
  108OSM   C15F11176   6.659   2.789   9.686  0.0929 -0.6072 -0.2039
  108OSM   H15F11177   6.749   2.835   9.641  0.5612 -0.2624  1.0632
  108OSM   H15G11178   6.695   2.695   9.734 -0.1845 -0.2474  0.7179
  108OSM   C16F11179   6.589   2.852   9.815 -0.1662 -0.3359  0.0558
  108OSM   H16F11180   6.584   2.960   9.790  1.0828  0.2270  2.1496
  108OSM   H16G11181   6.653   2.830   9.903 -0.2698  3.0653  1.0275
  108OSM   C17F11182   6.453   2.788   9.854 -0.2310  0.6243 -0.8623
  108OSM   H17F11183   6.467   2.677   9.856 -1.5390  0.4195 -1.9311
  108OSM   H17G11184   6.385   2.816   9.771 -0.2036 -0.2341 -1.1819
  108OSM   C18F11185   6.392   2.845   9.982 -0.1496 -0.1567 -0.1299
  108OSM   H18F11186   6.284   2.823   9.988 -0.3373  1.2052  1.5692
  108OSM   H18G11187   6.424   2.951   9.989  0.6930 -0.4623  0.7515
  108OSM   H18H11188   6.432   2.808  10.079 -1.3251  1.0274  0.8131
  109OSM      N11189   0.399   3.984  10.839  0.1847  0.1799  0.2772
  109OSM    C1511190   0.528   4.026  10.890  0.4521 -0.1355  0.1921
  109OSM   H15A11191   0.528   3.988  10.991 -0.4492 -2.6399 -0.7057
  109OSM   H15B11192   0.539   4.133  10.884  1.4103 -0.3270 -1.6878
  109OSM   H15C11193   0.607   3.981  10.833  0.4981  1.7217 -1.2758
  109OSM    C1411194   0.379   3.834  10.848 -0.0537  0.5036 -0.7219
  109OSM   H14A11195   0.277   3.811  10.822 -0.2410  0.7294 -0.1778
  109OSM   H14B11196   0.408   3.804  10.947  1.7582 -1.5118 -1.8346
  109OSM   H14C11197   0.450   3.788  10.781 -0.5166  2.1893 -2.4221
  109OSM    C1311198   0.294   4.049  10.919  0.0333 -0.3852 -0.3170
  109OSM   H13A11199   0.301   4.032  11.025 -1.1566 -0.3318 -0.2309
  109OSM   H13B11200   0.191   4.028  10.894  0.1578 -1.2599 -0.0899
  109OSM   H13C11201   0.310   4.156  10.911 -0.7366 -0.1721  0.9509
  109OSM    C1211202   0.379   4.030  10.693  0.9571 -0.7045  0.6473
  109OSM   H12A11203   0.383   4.138  10.688  0.3434 -0.5796  2.5146
  109OSM   H12B11204   0.282   4.003  10.654  0.6623 -1.4738  1.8654
  109OSM    C1111205   0.476   3.976  10.587 -0.2600  0.1661  0.3387
  109OSM   H11A11206   0.449   4.012  10.486  1.1294 -1.0837 -0.4962
  109OSM   H11B11207   0.464   3.866  10.576  1.9081 -0.0591 -0.0429
  109OSM      P11208   0.702   4.097  10.558 -0.0735  0.0346 -0.5137
  109OSM    O1311209   0.687   4.217  10.637  0.5310 -0.7573 -0.6431
  109OSM    O1411210   0.837   4.039  10.559 -0.2568  0.2659  0.2326
  109OSM    O1111211   0.655   4.122  10.417 -0.0684 -0.0090  0.2323
  109OSM    O1211212   0.613   3.992  10.622  0.1317 -0.1758  0.4413
  109OSM    C1S11213   0.662   4.255  10.355 -0.1934 -0.2059 -0.3220
  109OSM    H1S11214   0.749   4.260  10.286  0.1064 -0.7839  0.0031
  109OSM    H1T11215   0.662   4.336  10.430 -0.6900 -1.9883  1.6504
  109OSM     NF11216   0.600   4.369  10.151 -0.2026 -0.1870 -0.2218
  109OSM    HNF11217   0.573   4.465  10.148 -1.7280 -0.6225 -1.1258
  109OSM    C2S11218   0.547   4.290  10.257  0.1613  0.3766 -0.3440
  109OSM    H2S11219   0.519   4.194  10.210 -0.0248  0.1450  0.2374
  109OSM    C3S11220   0.422   4.343  10.342 -0.9595  0.3788  0.0246
  109OSM    H3S11221   0.447   4.430  10.406 -0.2275  1.0108 -1.1009
  109OSM     O311222   0.356   4.244  10.436  0.3694 -0.0784  0.6219
  109OSM    HO311223   0.387   4.158  10.407  1.2579  1.6903 -4.0250
  109OSM    C4S11224   0.311   4.401  10.248 -0.6480 -0.1612 -0.1990
  109OSM    H4S11225   0.296   4.509  10.255  0.3559 -0.0348  0.1272
  109OSM    C5S11226   0.214   4.334  10.177  0.9502 -0.3399 -0.4064
  109OSM    H5S11227   0.193   4.229  10.203 -2.9392 -0.1916 -2.5719
  109OSM    C6S11228   0.108   4.401  10.096  0.4869  0.3236  0.2617
  109OSM    H6S11229   0.102   4.511  10.112  0.6041  0.3988 -0.2092
  109OSM    H6T11230   0.010   4.354  10.120  0.3250 -0.4048 -1.7175
  109OSM    C7S11231   0.135   4.379   9.948  0.2565  0.4016  0.3578
  109OSM    H7S11232   0.173   4.275   9.933  1.8054  1.1823 -1.2051
  109OSM    H7T11233   0.221   4.443   9.921 -0.4553  0.3748 -2.0079
  109OSM    C8S11234   0.020   4.393   9.848  0.9135  0.3737  0.4456
  109OSM    H8S11235  -0.040   4.480   9.883  1.6772  0.4666  1.5202
  109OSM    H8T11236  -0.049   4.307   9.863  0.3879  1.1565  2.7406
  109OSM    C9S11237   0.076   4.419   9.713 -0.2400 -0.1477 -0.2384
  109OSM    H9S11238   0.117   4.321   9.682  1.2729 -0.0311  1.3413
  109OSM    H9T11239   0.147   4.502   9.732  0.2701 -0.6996  0.2893
  109OSM   C10S11240  -0.033   4.476   9.614 -0.5095 -1.1076 -0.8572
  109OSM   H10S11241   0.018   4.543   9.541  0.9024 -2.4176 -1.1232
  109OSM   H10T11242  -0.099   4.540   9.676 -0.4087 -1.0597 -0.8000
  109OSM   C11S11243  -0.122   4.367   9.540 -0.9385  0.9002  0.0944
  109OSM   H11S11244  -0.185   4.420   9.465 -0.2314  1.2518 -0.2567
  109OSM   H11T11245  -0.196   4.330   9.614  0.5733 -0.2309  1.0676
  109OSM   C12S11246  -0.054   4.250   9.467  0.7235 -0.1126  0.2414
  109OSM   H12S11247  -0.032   4.178   9.548 -0.2040  2.2105  2.6298
  109OSM   H12T11248   0.048   4.279   9.433 -0.2989  1.7043 -1.4228
  109OSM   C13S11249  -0.121   4.185   9.344  0.2306  0.0926 -0.8657
  109OSM   H13S11250  -0.211   4.134   9.385  0.1150 -0.3173 -1.6303
  109OSM   H13T11251  -0.044   4.113   9.309  0.3856 -0.3939  0.4400
  109OSM   C14S11252  -0.183   4.273   9.231 -0.4668 -1.1282  0.1558
  109OSM   H14S11253  -0.104   4.345   9.202 -1.1110  0.3883  2.0151
  109OSM   H14T11254  -0.259   4.338   9.279  1.7612 -0.7971  3.4347
  109OSM   C15S11255  -0.217   4.191   9.108 -0.0278  0.0713  0.1881
  109OSM   H15S11256  -0.298   4.117   9.118  1.7063 -1.8769  0.2012
  109OSM   H15T11257  -0.137   4.118   9.084 -1.4990 -1.4293 -0.1566
  109OSM   C16S11258  -0.246   4.272   8.981 -0.5011  0.1203 -0.4719
  109OSM   H16S11259  -0.160   4.331   8.945 -1.7424  1.2567 -1.6249
  109OSM   H16T11260  -0.321   4.352   8.997 -0.5677  0.1463 -0.9006
  109OSM   C17S11261  -0.275   4.180   8.860 -0.3253  1.1247  0.2973
  109OSM   H17S11262  -0.366   4.129   8.897 -0.0135  0.5682  0.2984
  109OSM   H17T11263  -0.208   4.093   8.844 -0.9648  0.6964 -0.0587
  109OSM   C18S11264  -0.288   4.262   8.737 -0.3356  0.6791 -0.3782
  109OSM   H18S11265  -0.346   4.356   8.747 -0.1078  0.7916 -0.0886
  109OSM   H18T11266  -0.333   4.196   8.661  0.3355  0.5764 -0.6905
  109OSM   H18U11267  -0.187   4.292   8.702  0.6797  1.0063  2.6264
  109OSM    C1F11268   0.663   4.324  10.046  0.1936  0.6865 -0.4864
  109OSM     OF11269   0.705   4.204  10.039  0.2959 -0.2426 -0.3637
  109OSM    C2F11270   0.666   4.425   9.936  0.2422  0.9827  0.2327
  109OSM    H2F11271   0.750   4.403   9.867  0.8846  2.6353  0.4901
  109OSM    H2G11272   0.683   4.527   9.975  0.8203  0.4065  1.4966
  109OSM    C3F11273   0.540   4.426   9.853  0.7274  0.0640  1.0301
  109OSM    H3F11274   0.445   4.434   9.911  1.5273  0.0312  2.3788
  109OSM    H3G11275   0.539   4.322   9.817  1.7877  1.0353 -1.9267
  109OSM    C4F11276   0.552   4.523   9.734 -0.2972  0.0462 -0.3621
  109OSM    H4F11277   0.651   4.526   9.682  0.2676 -1.2368  0.6238
  109OSM    H4G11278   0.542   4.628   9.770  0.6359 -0.8862  2.6902
  109OSM    C5F11279   0.452   4.504   9.627  0.3761 -0.8404 -0.2959
  109OSM    H5F11280   0.433   4.604   9.582  2.5596 -0.2467  0.0255
  109OSM    H5G11281   0.352   4.474   9.664 -1.8811  2.0945 -3.5979
  109OSM    C6F11282   0.494   4.408   9.515  0.2855 -0.1094 -0.1461
  109OSM    H6F11283   0.520   4.309   9.558  0.5266  1.3005  3.1401
  109OSM    H6G11284   0.586   4.447   9.467  1.1798 -3.4212 -1.2333
  109OSM    C7F11285   0.378   4.374   9.421 -0.6056 -0.7282  0.5285
  109OSM    H7F11286   0.305   4.328   9.490  1.2418 -0.3506  2.7902
  109OSM    H7G11287   0.422   4.304   9.346  1.5622  2.3406 -1.1971
  109OSM    C8F11288   0.336   4.502   9.346 -0.3653 -0.0078  0.4300
  109OSM    H8F11289   0.425   4.558   9.311 -0.3914 -0.4997 -0.4476
  109OSM    H8G11290   0.286   4.575   9.414  0.1005  0.5385  0.1822
  109OSM    C9F11291   0.234   4.448   9.245 -0.6263  0.6584  0.1455
  109OSM    H9F11292   0.154   4.391   9.295 -0.3106  0.5040  0.4760
  109OSM   C10F11293   0.244   4.437   9.109 -0.3961 -0.0568  0.4650
  109OSM   H10F11294   0.157   4.405   9.049 -0.7108 -1.7362  1.7796
  109OSM   C11F11295   0.368   4.484   9.040 -0.2766  0.2733 -0.0282
  109OSM   H11F11296   0.394   4.420   8.952 -2.7457 -1.6445  0.5561
  109OSM   H11G11297   0.454   4.481   9.110 -0.0148  0.5068 -0.3423
  109OSM   C12F11298   0.348   4.636   8.992 -0.7690  0.0230 -0.2037
  109OSM   H12F11299   0.351   4.699   9.084  1.3339  0.6504 -0.6775
  109OSM   H12G11300   0.246   4.643   8.948 -1.3515  0.4746  1.1562
  109OSM   C13F11301   0.454   4.675   8.891  0.2012  0.2115 -0.6574
  109OSM   H13F11302   0.463   4.588   8.824 -2.4460  1.0559 -2.1656
  109OSM   H13G11303   0.553   4.674   8.943  1.0800  1.4609 -2.2399
  109OSM   C14F11304   0.434   4.813   8.823 -0.3548  0.0887  0.1944
  109OSM   H14F11305   0.401   4.875   8.909  1.5990 -0.4774  1.3960
  109OSM   H14G11306   0.358   4.809   8.742 -3.0507 -0.7489  2.6813
  109OSM   C15F11307   0.558   4.867   8.746 -0.2839 -0.2961 -0.0204
  109OSM   H15F11308   0.635   4.876   8.826  0.4637  1.9777 -0.9897
  109OSM   H15G11309   0.533   4.966   8.704  0.2767  0.4892  1.4775
  109OSM   C16F11310   0.608   4.779   8.633 -0.6407 -0.4188  0.0785
  109OSM   H16F11311   0.535   4.774   8.550 -0.1942 -0.8526 -0.2860
  109OSM   H16G11312   0.620   4.674   8.668  0.9821  0.0766  1.0511
  109OSM   C17F11313   0.745   4.836   8.578  0.3623 -0.4630  0.1771
  109OSM   H17F11314   0.731   4.946   8.568  0.8553 -0.5340 -1.3674
  109OSM   H17G11315   0.754   4.807   8.472  1.4427 -0.0605  0.1460
  109OSM   C18F11316   0.872   4.815   8.649  0.0155 -0.3881 -0.6977
  109OSM   H18F11317   0.952   4.880   8.607  0.4332 -0.5635 -0.1816
  109OSM   H18G11318   0.903   4.712   8.621 -0.2202 -0.7837  0.4457
  109OSM   H18H11319   0.857   4.815   8.759  3.0135 -0.4447 -0.2391
  110OSM      N11320   1.975   3.461  10.946 -0.3075  0.0412 -0.2530
  110OSM    C1511321   2.021   3.537  11.066  0.2649 -0.2138 -0.2520
  110OSM   H15A11322   2.090   3.614  11.037 -1.9496  1.9303  0.0181
  110OSM   H15B11323   2.079   3.476  11.135  0.4104 -0.4179 -0.5531
  110OSM   H15C11324   1.949   3.597  11.120 -0.3656 -1.4469  0.3029
  110OSM    C1411325   1.924   3.565  10.855 -0.2996  0.1137  0.6777
  110OSM   H14A11326   1.857   3.524  10.781  0.5458  1.0569 -0.6397
  110OSM   H14B11327   2.000   3.605  10.789 -0.3599  1.7917  1.5785
  110OSM   H14C11328   1.874   3.648  10.904  1.0311  1.2916  0.0944
  110OSM    C1311329   2.093   3.392  10.885 -0.2227  0.3728  0.8533
  110OSM   H13A11330   2.154   3.341  10.958 -0.9279  1.4497  2.2091
  110OSM   H13B11331   2.160   3.472  10.855 -1.3274  1.5349  1.4192
  110OSM   H13C11332   2.066   3.326  10.804 -0.3744  0.2804  0.9805
  110OSM    C1211333   1.870   3.358  10.988 -0.6944  0.3092  0.0769
  110OSM   H12A11334   1.803   3.399  11.061 -0.2978  1.4755 -0.1955
  110OSM   H12B11335   1.920   3.287  11.052  0.3907  0.3935 -0.6622
  110OSM    C1111336   1.796   3.298  10.871 -0.2555  0.0956  0.1554
  110OSM   H11A11337   1.749   3.387  10.823  1.0227  1.2322  0.9725
  110OSM   H11B11338   1.723   3.227  10.915  0.6157 -0.4828  0.6588
  110OSM      P11339   1.924   3.080  10.794 -0.1946 -0.1742  0.2350
  110OSM    O1311340   2.056   3.066  10.730 -0.3081  0.0114  0.4664
  110OSM    O1411341   1.917   3.034  10.936  1.1523  0.3482 -0.8737
  110OSM    O1111342   1.817   3.006  10.707  0.5524 -0.3328  0.1380
  110OSM    O1211343   1.878   3.229  10.780  0.3687 -0.0793 -0.1105
  110OSM    C1S11344   1.714   3.066  10.616 -0.1833 -0.9473 -0.1036
  110OSM    H1S11345   1.687   3.170  10.643 -0.0056 -0.6562 -1.0299
  110OSM    H1T11346   1.624   3.004  10.637  0.1609 -1.8046 -1.1074
  110OSM     NF11347   1.645   3.118  10.374  0.7180 -0.3198 -0.3603
  110OSM    HNF11348   1.584   3.057  10.325  3.6608 -3.7209 -0.0381
  110OSM    C2S11349   1.745   3.049  10.453 -0.2714  0.0536  0.1151
  110OSM    H2S11350   1.844   3.096  10.433 -0.8651  0.5762 -1.6244
  110OSM    C3S11351   1.766   2.904  10.416 -0.1539  0.4580  0.9941
  110OSM    H3S11352   1.669   2.851  10.404  0.5137 -0.6000  0.2054
  110OSM     O311353   1.828   2.829  10.517 -0.0232 -0.0052 -0.4030
  110OSM    HO311354   1.836   2.894  10.587 -6.1497  1.2976 -0.6708
  110OSM    C4S11355   1.827   2.889  10.285  0.1730 -0.2261 -0.7544
  110OSM    H4S11356   1.919   2.948  10.277  0.6976 -0.8857  0.2628
  110OSM    C5S11357   1.789   2.799  10.186  0.4704  0.0662  0.5565
  110OSM    H5S11358   1.693   2.751  10.211  0.8644 -0.6135  0.7469
  110OSM    C6S11359   1.850   2.774  10.048 -0.3088  0.2561 -0.6040
  110OSM    H6S11360   1.795   2.833   9.972  2.5099  2.8355 -0.7190
  110OSM    H6T11361   1.825   2.668  10.025  0.9818  0.4136 -2.9102
  110OSM    C7S11362   2.003   2.802  10.042 -0.5067  0.0623  0.1803
  110OSM    H7S11363   2.052   2.756  10.131 -1.4243 -1.9160 -0.2887
  110OSM    H7T11364   2.029   2.908  10.063 -0.0826 -0.2418  1.2343
  110OSM    C8S11365   2.053   2.747   9.909  0.2821  0.1027 -0.4923
  110OSM    H8S11366   2.051   2.637   9.894  0.9032  0.0500 -0.1648
  110OSM    H8T11367   2.162   2.764   9.900  0.4484 -0.7746 -0.1986
  110OSM    C9S11368   1.999   2.807   9.786  0.3294  0.0640 -0.2449
  110OSM    H9S11369   1.994   2.918   9.789  1.7876  0.1198  1.0200
  110OSM    H9T11370   1.895   2.772   9.773  0.1764  0.1398  0.7535
  110OSM   C10S11371   2.087   2.772   9.667  0.1990 -0.3870  0.4434
  110OSM   H10S11372   2.068   2.665   9.643 -1.5738  0.2861 -1.3646
  110OSM   H10T11373   2.185   2.816   9.697 -0.5959  0.8517  1.2853
  110OSM   C11S11374   2.036   2.843   9.542  0.5401 -0.1325 -0.5957
  110OSM   H11S11375   2.027   2.949   9.573 -2.3309 -0.4021 -0.3639
  110OSM   H11T11376   1.931   2.810   9.531  0.2689  1.1403 -2.0441
  110OSM   C12S11377   2.119   2.813   9.426 -0.1915 -0.3912  0.6726
  110OSM   H12S11378   2.094   2.705   9.421 -0.4405 -0.3829  1.7122
  110OSM   H12T11379   2.228   2.830   9.441 -0.5443  1.5556  1.0992
  110OSM   C13S11380   2.073   2.891   9.302  0.2694  0.2478  0.1874
  110OSM   H13S11381   2.109   2.996   9.315 -1.4687  0.5369  3.1724
  110OSM   H13T11382   1.963   2.898   9.310  0.5261  1.4439  3.7077
  110OSM   C14S11383   2.112   2.830   9.164 -0.2836  0.3814  0.1182
  110OSM   H14S11384   2.221   2.809   9.156 -0.3639  0.7387 -2.3277
  110OSM   H14T11385   2.088   2.908   9.089  1.5435  0.9983  0.1489
  110OSM   C15S11386   2.019   2.710   9.134 -0.1632  0.0806 -0.2664
  110OSM   H15S11387   1.916   2.753   9.138  0.4226  1.5911 -0.8744
  110OSM   H15T11388   2.030   2.634   9.214  1.2380  0.1845 -0.3587
  110OSM   C16S11389   2.040   2.649   8.998  0.1325  0.1230  0.8847
  110OSM   H16S11390   2.146   2.617   9.001  0.2825  0.3085 -1.5255
  110OSM   H16T11391   2.027   2.723   8.916 -0.7189  1.8011  2.4871
  110OSM   C17S11392   1.956   2.516   8.980  0.2891  0.9002  0.3643
  110OSM   H17S11393   1.984   2.464   9.074  2.0359 -1.4770 -1.4101
  110OSM   H17T11394   1.991   2.452   8.896  2.5848  3.2413 -0.4992
  110OSM   C18S11395   1.804   2.532   8.993 -0.0334  0.3564 -0.4121
  110OSM   H18S11396   1.772   2.542   9.099  1.3073 -3.0145  0.3916
  110OSM   H18T11397   1.754   2.439   8.958  0.3679 -0.1817  0.4375
  110OSM   H18U11398   1.760   2.619   8.940  0.9714  0.1381 -1.6157
  110OSM    C1F11399   1.614   3.252  10.380 -0.5773  0.2597 -0.8237
  110OSM     OF11400   1.657   3.326  10.466 -0.0923 -0.5109 -0.6756
  110OSM    C2F11401   1.525   3.306  10.273 -0.3920 -0.1942  0.3351
  110OSM    H2F11402   1.421   3.310  10.311 -1.4344 -1.9046 -2.2873
  110OSM    H2G11403   1.534   3.233  10.190 -1.0491 -1.4667  1.3709
  110OSM    C3F11404   1.571   3.446  10.237 -0.9067  0.1552 -0.0149
  110OSM    H3F11405   1.668   3.441  10.183 -1.4847  0.2442 -1.0692
  110OSM    H3G11406   1.581   3.516  10.323 -1.8842  0.9033 -0.5013
  110OSM    C4F11407   1.481   3.512  10.138 -0.3087  0.3558 -0.0075
  110OSM    H4F11408   1.506   3.619  10.124  0.9604  0.0761  0.0615
  110OSM    H4G11409   1.376   3.508  10.174  0.1246  1.9637  1.4264
  110OSM    C5F11410   1.480   3.441  10.002 -0.6269 -0.5924  0.6042
  110OSM    H5F11411   1.458   3.332  10.000  2.0599 -1.1853  1.2981
  110OSM    H5G11412   1.583   3.452   9.963  0.3889 -1.6304  2.9322
  110OSM    C6F11413   1.396   3.521   9.899  0.6167  0.0687 -0.2276
  110OSM    H6F11414   1.443   3.618   9.873 -4.1061  2.4173 -0.4404
  110OSM    H6G11415   1.289   3.539   9.923 -0.1311 -2.5803 -1.4039
  110OSM    C7F11416   1.378   3.464   9.752 -0.0661 -0.0768 -0.5156
  110OSM    H7F11417   1.321   3.370   9.768  1.1552 -0.6166  0.8240
  110OSM    H7G11418   1.477   3.442   9.706  0.4465  0.7034  0.1866
  110OSM    C8F11419   1.312   3.577   9.671 -0.1819  0.2339  0.1280
  110OSM    H8F11420   1.385   3.652   9.634 -2.5050  2.7068  0.4578
  110OSM    H8G11421   1.242   3.643   9.725 -0.9247  1.0723 -1.8054
  110OSM    C9F11422   1.242   3.507   9.561  0.1146  0.0823  0.4434
  110OSM    H9F11423   1.163   3.441   9.599  1.8508 -2.3377 -0.0360
  110OSM   C10F11424   1.266   3.509   9.430 -0.0418  0.3065 -0.2604
  110OSM   H10F11425   1.194   3.462   9.361 -0.0481 -1.6355  1.0486
  110OSM   C11F11426   1.373   3.596   9.355 -0.0634  0.0732  0.2604
  110OSM   H11F11427   1.461   3.529   9.364  0.3336  0.6923  1.0727
  110OSM   H11G11428   1.403   3.690   9.406 -0.3696  0.7911 -0.8737
  110OSM   C12F11429   1.349   3.615   9.202 -0.5492  0.3711  0.3205
  110OSM   H12F11430   1.435   3.675   9.166 -1.0491  0.5785 -0.5599
  110OSM   H12G11431   1.248   3.656   9.180 -1.2987 -2.3456 -1.5381
  110OSM   C13F11432   1.375   3.492   9.114 -0.3668 -0.1789 -0.5836
  110OSM   H13F11433   1.303   3.413   9.144  0.0373 -0.6613 -0.8714
  110OSM   H13G11434   1.473   3.450   9.144 -0.4173 -1.0511 -1.5838
  110OSM   C14F11435   1.371   3.522   8.963  0.2122  0.1826 -0.3931
  110OSM   H14F11436   1.424   3.615   8.935  0.6877 -0.2839 -1.0413
  110OSM   H14G11437   1.265   3.537   8.934 -0.0484  0.7348  0.8087
  110OSM   C15F11438   1.429   3.408   8.882 -1.0869 -1.1526  0.5408
  110OSM   H15F11439   1.366   3.317   8.893 -0.3502 -1.7472 -0.1285
  110OSM   H15G11440   1.530   3.378   8.918  0.4047  1.4134 -1.2916
  110OSM   C16F11441   1.454   3.428   8.738 -0.7041  0.0244  0.6853
  110OSM   H16F11442   1.516   3.518   8.721 -2.5543  0.6821 -3.2112
  110OSM   H16G11443   1.360   3.457   8.688  0.2011  1.6276 -0.1158
  110OSM   C17F11444   1.531   3.320   8.657  0.0898 -0.1189 -0.1538
  110OSM   H17F11445   1.482   3.330   8.557 -1.2542 -0.6284  0.4372
  110OSM   H17G11446   1.505   3.220   8.699 -1.2053 -1.0499 -3.0495
  110OSM   C18F11447   1.689   3.343   8.664  1.0414 -0.3430  0.9385
  110OSM   H18F11448   1.708   3.378   8.768 -2.2221  1.9044  0.8642
  110OSM   H18G11449   1.697   3.432   8.598 -1.8717 -2.0178 -1.8284
  110OSM   H18H11450   1.750   3.253   8.639 -0.6970 -1.3524  0.2371
  111OSM      N11451   3.429   6.202  10.790 -0.0308 -0.0363 -0.8655
  111OSM    C1511452   3.432   6.092  10.891  0.6719 -0.9952 -0.0309
  111OSM   H15A11453   3.353   6.108  10.963  0.5565 -0.3971 -0.2815
  111OSM   H15B11454   3.525   6.082  10.944 -0.0112  0.9013  1.5809
  111OSM   H15C11455   3.404   5.994  10.855  2.0856 -0.7909 -1.7001
  111OSM    C1411456   3.457   6.332  10.858 -0.3533  1.0866 -0.2724
  111OSM   H14A11457   3.419   6.323  10.958 -0.1671 -3.7007 -0.5200
  111OSM   H14B11458   3.414   6.422  10.817 -1.9687  0.0410 -0.8982
  111OSM   H14C11459   3.564   6.340  10.867 -0.3561 -0.3371  1.2254
  111OSM    C1311460   3.539   6.182  10.695  1.3786 -0.0747 -0.1497
  111OSM   H13A11461   3.554   6.260  10.622  1.1285 -0.1948 -0.3321
  111OSM   H13B11462   3.528   6.084  10.651  1.9414 -0.9491  1.6031
  111OSM   H13C11463   3.623   6.175  10.761  1.9674 -1.8144 -1.0409
  111OSM    C1211464   3.289   6.222  10.722 -0.2495  0.2280 -0.0307
  111OSM   H12A11465   3.199   6.215  10.782 -0.6277  1.2955 -0.4449
  111OSM   H12B11466   3.269   6.131  10.667  2.5063  0.2857 -1.2038
  111OSM    C1111467   3.286   6.341  10.621  0.2324 -0.0512  0.0821
  111OSM   H11A11468   3.218   6.316  10.536 -0.8919 -0.8456  1.2146
  111OSM   H11B11469   3.387   6.349  10.575  1.1383  0.8412  2.1513
  111OSM      P11470   3.111   6.502  10.729 -0.5551  0.0862 -0.2462
  111OSM    O1311471   3.040   6.370  10.741  0.6352 -0.4135  0.0860
  111OSM    O1411472   3.129   6.580  10.853  0.0791  0.2201 -0.2231
  111OSM    O1111473   3.042   6.594  10.627  0.3657 -0.1302  0.8071
  111OSM    O1211474   3.258   6.467  10.673  0.3827 -0.7317 -0.5831
  111OSM    C1S11475   3.044   6.585  10.490  1.3230  0.4644  0.4291
  111OSM    H1S11476   2.968   6.510  10.458  1.3721 -1.4299  4.4492
  111OSM    H1T11477   3.139   6.542  10.451  0.6499  1.2255 -2.1606
  111OSM     NF11478   3.021   6.689  10.286  0.5507 -0.2851  0.1193
  111OSM    HNF11479   3.106   6.695  10.235 -0.6593 -3.0386 -2.3749
  111OSM    C2S11480   3.023   6.721  10.423  0.0675  0.3009  0.2298
  111OSM    H2S11481   2.923   6.758  10.454  0.7154 -1.0254  4.1615
  111OSM    C3S11482   3.118   6.833  10.472 -0.3572  0.4943  0.2829
  111OSM    H3S11483   3.224   6.802  10.460 -1.2272 -2.2043 -0.6736
  111OSM     O311484   3.101   6.862  10.608  0.1553 -0.0208  0.1147
  111OSM    HO311485   3.059   6.787  10.649 -0.8044  0.0265 -0.7749
  111OSM    C4S11486   3.095   6.960  10.400  0.2397 -0.1498 -0.1839
  111OSM    H4S11487   3.027   7.035  10.442 -0.8970 -0.8714 -0.7057
  111OSM    C5S11488   3.154   6.988  10.286 -0.7820  0.1352  0.7068
  111OSM    H5S11489   3.215   6.914  10.233  0.5733  1.5590  0.2397
  111OSM    C6S11490   3.125   7.113  10.201  0.1248  0.5609  0.1569
  111OSM    H6S11491   3.190   7.110  10.110 -0.3245  1.6406 -0.2075
  111OSM    H6T11492   3.161   7.202  10.256  4.0462  0.1998 -1.6270
  111OSM    C7S11493   2.978   7.116  10.163  0.5655  0.3728  0.3339
  111OSM    H7S11494   2.959   7.214  10.114  0.6697 -0.1260 -0.7381
  111OSM    H7T11495   2.914   7.104  10.252  2.7575  1.3337  2.0840
  111OSM    C8S11496   2.920   7.012  10.065  0.3540 -0.8534 -0.6725
  111OSM    H8S11497   2.810   7.028  10.065  0.6583  1.3989 -2.0555
  111OSM    H8T11498   2.950   6.911  10.100 -1.7332 -1.2479  0.0044
  111OSM    C9S11499   2.966   7.043   9.917  0.2490  0.1128 -0.4189
  111OSM    H9S11500   3.076   7.034   9.909  0.1118 -1.1544 -0.9050
  111OSM    H9T11501   2.952   7.151   9.896  1.8168 -0.1194 -2.7642
  111OSM   C10S11502   2.895   6.966   9.804 -0.5488 -0.1992  0.7858
  111OSM   H10S11503   2.794   7.012   9.794  0.1085  1.6669  2.5070
  111OSM   H10T11504   2.887   6.856   9.821  1.9249 -0.5107  0.0825
  111OSM   C11S11505   2.964   6.986   9.667  0.8745  1.4887 -0.2260
  111OSM   H11S11506   3.060   6.931   9.671  0.5872  0.8572 -1.7273
  111OSM   H11T11507   2.983   7.094   9.649  2.0113  0.9166 -2.7025
  111OSM   C12S11508   2.874   6.939   9.554 -1.1162  0.2214  0.1374
  111OSM   H12S11509   2.775   6.990   9.559 -0.2440  1.7601  1.7416
  111OSM   H12T11510   2.865   6.828   9.556 -2.4511  0.2484 -2.2948
  111OSM   C13S11511   2.940   6.966   9.418 -0.2772 -0.4890 -0.9681
  111OSM   H13S11512   3.005   6.882   9.388  0.6323  0.0987 -0.6513
  111OSM   H13T11513   2.999   7.060   9.425 -1.0276 -0.2309  2.9999
  111OSM   C14S11514   2.835   6.985   9.309  0.5165  0.0333 -0.1089
  111OSM   H14S11515   2.751   7.049   9.342  0.2462 -0.1878 -0.3681
  111OSM   H14T11516   2.796   6.883   9.287 -2.5804  0.9359  1.0071
  111OSM   C15S11517   2.889   7.061   9.188 -0.4279 -0.0301 -0.4199
  111OSM   H15S11518   2.921   7.164   9.214 -2.0293  0.1097  1.0691
  111OSM   H15T11519   2.821   7.069   9.101 -0.9306  0.3922  0.0098
  111OSM   C16S11520   3.010   6.984   9.137 -0.2163 -0.5170  0.6559
  111OSM   H16S11521   2.989   6.876   9.123  1.3650 -0.6850 -0.5654
  111OSM   H16T11522   3.092   7.004   9.210 -0.1831 -0.3129  0.5638
  111OSM   C17S11523   3.059   7.018   8.993 -0.6984 -0.2462 -0.1930
  111OSM   H17S11524   3.082   7.127   8.994 -1.9746  0.0385  1.9897
  111OSM   H17T11525   2.977   7.000   8.919 -0.5465 -1.7080 -0.0087
  111OSM   C18S11526   3.182   6.937   8.943  0.1356 -0.0726  0.1351
  111OSM   H18S11527   3.145   6.835   8.919 -1.8595  0.6668 -0.0879
  111OSM   H18T11528   3.266   6.938   9.015  1.6385 -0.7356 -1.5833
  111OSM   H18U11529   3.218   6.983   8.848 -1.1555  0.2265 -0.2267
  111OSM    C1F11530   2.919   6.641  10.224  0.6708  0.7420  0.4673
  111OSM     OF11531   2.812   6.622  10.278 -0.8849 -0.4018  0.1621
  111OSM    C2F11532   2.937   6.612  10.073  0.4998  0.5708  0.7034
  111OSM    H2F11533   3.032   6.557  10.059  1.2170  2.0063 -0.2287
  111OSM    H2G11534   2.944   6.701  10.006  0.4603 -1.3107 -1.8679
  111OSM    C3F11535   2.822   6.531  10.008 -0.0047  0.0115  0.4028
  111OSM    H3F11536   2.729   6.592  10.017 -0.3829 -0.3565 -0.8619
  111OSM    H3G11537   2.807   6.442  10.073 -1.1421 -0.8552 -0.9945
  111OSM    C4F11538   2.839   6.487   9.865  1.1630  0.1841 -0.6370
  111OSM    H4F11539   2.947   6.467   9.844  1.0502 -1.3552  0.1678
  111OSM    H4G11540   2.814   6.562   9.787 -2.1693 -1.0834 -0.8635
  111OSM    C5F11541   2.758   6.361   9.823  0.0311  0.2058 -0.1255
  111OSM    H5F11542   2.658   6.367   9.871  0.0679  2.6368 -0.2980
  111OSM    H5G11543   2.813   6.271   9.857 -0.9085 -0.6577 -0.8519
  111OSM    C6F11544   2.741   6.372   9.665  0.2212  0.2121  0.0180
  111OSM    H6F11545   2.726   6.479   9.640  2.8436  0.0213 -2.6339
  111OSM    H6G11546   2.665   6.304   9.620  0.8265 -0.8344  0.5428
  111OSM    C7F11547   2.868   6.331   9.585  0.1253 -0.7561  0.0363
  111OSM    H7F11548   2.918   6.240   9.624 -0.8568 -1.8324 -1.1546
  111OSM    H7G11549   2.938   6.415   9.605 -0.3760  0.1038 -1.7748
  111OSM    C8F11550   2.839   6.311   9.431 -0.6854  0.3348 -0.1625
  111OSM    H8F11551   2.792   6.212   9.416 -1.9238  0.3384  3.0937
  111OSM    H8G11552   2.938   6.303   9.382 -0.0380  0.0091  1.1922
  111OSM    C9F11553   2.764   6.426   9.369  0.0597 -0.5739  0.1787
  111OSM    H9F11554   2.655   6.437   9.383 -0.1976  1.1480 -2.7362
  111OSM   C10F11555   2.815   6.527   9.295 -0.5386  0.4788  0.0610
  111OSM   H10F11556   2.760   6.619   9.275 -1.2477  0.6529  2.6275
  111OSM   C11F11557   2.967   6.543   9.260  0.4375 -0.4708 -0.2404
  111OSM   H11F11558   3.030   6.506   9.343 -0.6996  2.2596  1.9401
  111OSM   H11G11559   2.995   6.649   9.238  0.7687 -0.5747 -0.3167
  111OSM   C12F11560   3.004   6.466   9.133  0.4956  0.1901 -0.1663
  111OSM   H12F11561   2.982   6.358   9.147  2.8983 -0.0440  2.2298
  111OSM   H12G11562   3.115   6.476   9.127  0.5438  0.6497  1.2579
  111OSM   C13F11563   2.952   6.518   9.001  0.1385 -0.0914  0.4831
  111OSM   H13F11564   2.954   6.628   8.987  0.3933 -0.1598 -0.0145
  111OSM   H13G11565   2.849   6.478   8.988 -0.5009  0.4038  3.4473
  111OSM   C14F11566   3.031   6.465   8.882 -0.5674  0.4983  0.3021
  111OSM   H14F11567   3.055   6.357   8.896 -0.6395  0.5048  0.4727
  111OSM   H14G11568   3.123   6.524   8.900 -0.6395  1.0150 -0.9652
  111OSM   C15F11569   2.966   6.496   8.748 -0.7097 -0.5261  0.2139
  111OSM   H15F11570   2.988   6.590   8.693 -0.2188 -0.0297  1.2449
  111OSM   H15G11571   2.859   6.512   8.777 -0.7819  0.6657 -0.7001
  111OSM   C16F11572   2.980   6.377   8.642 -0.0469 -0.1055 -0.0063
  111OSM   H16F11573   2.953   6.275   8.677  1.5443 -1.0059 -1.2968
  111OSM   H16G11574   3.086   6.380   8.609  0.1357  1.1666  0.6664
  111OSM   C17F11575   2.889   6.397   8.515 -0.4247  0.0361  0.2152
  111OSM   H17F11576   2.912   6.496   8.471  1.2682 -0.6421 -0.4835
  111OSM   H17G11577   2.785   6.406   8.552 -1.3729 -3.0303 -1.4702
  111OSM   C18F11578   2.896   6.303   8.401  0.3512 -0.2672  0.0103
  111OSM   H18F11579   2.997   6.313   8.355  0.5448 -2.3706 -0.0791
  111OSM   H18G11580   2.823   6.320   8.319  1.3349 -2.4741 -1.4059
  111OSM   H18H11581   2.888   6.195   8.427 -0.2881  0.2822  2.1184
  112OSM      N11582   3.172   3.963  11.344  0.8024 -0.7005  0.2037
  112OSM    C1511583   3.118   4.068  11.254  0.0332 -0.3591  0.4470
  112OSM   H15A11584   3.024   4.107  11.292 -2.2669 -1.2735 -4.0042
  112OSM   H15B11585   3.100   4.024  11.157  1.0894  2.0265 -0.8741
  112OSM   H15C11586   3.188   4.150  11.246 -0.6170  0.0010 -1.9120
  112OSM    C1411587   3.307   3.925  11.299 -0.1810  0.3530  0.0227
  112OSM   H14A11588   3.350   3.834  11.338  0.1716  0.0939 -0.9620
  112OSM   H14B11589   3.376   4.005  11.320  1.4199 -0.9207 -0.3302
  112OSM   H14C11590   3.302   3.911  11.192  0.8641 -1.7240  0.2143
  112OSM    C1311591   3.181   4.022  11.482 -0.0679  0.9823 -0.7165
  112OSM   H13A11592   3.228   4.119  11.489 -0.4860  1.0799  0.9536
  112OSM   H13B11593   3.227   3.964  11.560 -0.9541  1.3388  0.0889
  112OSM   H13C11594   3.079   4.026  11.518  0.2282  0.6718  0.1652
  112OSM    C1211595   3.085   3.835  11.341  0.3622  0.5046 -0.6903
  112OSM   H12A11596   2.993   3.874  11.383  1.1732  1.1205  0.5650
  112OSM   H12B11597   3.127   3.776  11.421  0.3110 -0.1425 -1.1378
  112OSM    C1111598   3.072   3.744  11.213 -0.3606 -0.4068  0.3568
  112OSM   H11A11599   3.014   3.653  11.241  0.5968 -1.2353 -0.3311
  112OSM   H11B11600   3.177   3.716  11.191 -0.6075 -4.0450  3.2339
  112OSM      P11601   2.865   3.834  11.100  0.0306 -0.1492  0.4182
  112OSM    O1311602   2.808   3.763  11.213  0.5460  0.7631 -0.1496
  112OSM    O1411603   2.829   3.975  11.092  0.0901  0.1262  0.3279
  112OSM    O1111604   2.825   3.761  10.958 -0.7626  0.4370  0.4335
  112OSM    O1211605   3.020   3.816  11.104  0.0155  0.3867  0.4301
  112OSM    C1S11606   2.873   3.829  10.842  0.0146  0.8869  0.1461
  112OSM    H1S11607   2.984   3.834  10.839  0.0496  0.2674  0.3682
  112OSM    H1T11608   2.824   3.926  10.821 -1.2665  0.1006 -0.5553
  112OSM     NF11609   2.880   3.824  10.589  0.4994  0.2720  0.2991
  112OSM    HNF11610   2.829   3.892  10.537  0.2315 -2.0537 -2.5675
  112OSM    C2S11611   2.818   3.765  10.703  0.2001 -0.3533  0.2030
  112OSM    H2S11612   2.849   3.658  10.710 -0.8237 -0.7026 -0.4991
  112OSM    C3S11613   2.657   3.765  10.709  0.2102  0.0354  0.1040
  112OSM    H3S11614   2.634   3.874  10.707 -0.5008 -0.1140  0.1304
  112OSM     O311615   2.606   3.709  10.827 -0.0703 -0.0237  0.5118
  112OSM    HO311616   2.682   3.699  10.884  0.5053 -2.1039 -0.5809
  112OSM    C4S11617   2.599   3.702  10.585 -0.0509 -0.4273  0.1364
  112OSM    H4S11618   2.629   3.597  10.576 -1.2834 -0.8638  1.0078
  112OSM    C5S11619   2.492   3.738  10.516 -0.6675 -0.2005  0.5142
  112OSM    H5S11620   2.444   3.835  10.535  1.8222  1.1620  0.1006
  112OSM    C6S11621   2.438   3.649  10.415  0.0968 -0.0344  0.6165
  112OSM    H6S11622   2.327   3.640  10.418  0.1964 -0.7073  3.5074
  112OSM    H6T11623   2.468   3.543  10.429  1.3790  0.4638  1.7342
  112OSM    C7S11624   2.461   3.705  10.271  0.5253  0.1398 -0.8984
  112OSM    H7S11625   2.572   3.698  10.259  0.6960  0.1122  0.6083
  112OSM    H7T11626   2.428   3.809  10.250  0.0163 -0.0033 -0.7938
  112OSM    C8S11627   2.391   3.621  10.167 -0.3677  0.3683 -0.0598
  112OSM    H8S11628   2.281   3.634  10.176 -0.1691  1.6892  0.6458
  112OSM    H8T11629   2.411   3.513  10.184 -2.0873  0.0280 -0.0827
  112OSM    C9S11630   2.430   3.655  10.023 -0.2589  0.7745 -0.3906
  112OSM    H9S11631   2.530   3.609  10.013  0.3241  2.1642 -0.9942
  112OSM    H9T11632   2.439   3.764  10.006 -0.6578  1.3084  2.5629
  112OSM   C10S11633   2.334   3.586   9.925 -0.3440 -0.1080 -0.0074
  112OSM   H10S11634   2.257   3.664   9.906  1.3926  1.5174 -0.5385
  112OSM   H10T11635   2.292   3.496   9.974 -1.3089 -0.0123 -0.6260
  112OSM   C11S11636   2.401   3.549   9.788  0.3414 -0.0108 -1.5535
  112OSM   H11S11637   2.490   3.485   9.808 -0.1126 -0.3267 -0.5347
  112OSM   H11T11638   2.446   3.642   9.747 -0.3195  1.6751  1.4402
  112OSM   C12S11639   2.302   3.487   9.692  0.5066  0.6246 -0.4551
  112OSM   H12S11640   2.214   3.555   9.685  0.2273  0.0829 -2.7578
  112OSM   H12T11641   2.272   3.385   9.724 -0.9701  0.9734 -0.7013
  112OSM   C13S11642   2.348   3.484   9.541  0.2250 -0.0218 -0.3717
  112OSM   H13S11643   2.264   3.448   9.478 -0.4856 -0.2273  0.6800
  112OSM   H13T11644   2.426   3.405   9.547 -0.7941 -1.0040  0.2372
  112OSM   C14S11645   2.406   3.619   9.487  0.4403  0.3015  0.1698
  112OSM   H14S11646   2.507   3.625   9.532  0.2663 -1.2053  0.8025
  112OSM   H14T11647   2.345   3.707   9.520 -0.9507 -0.6647  0.2472
  112OSM   C15S11648   2.413   3.628   9.338  0.7432 -0.1352 -0.1324
  112OSM   H15S11649   2.447   3.535   9.287 -3.3290 -1.1308 -1.1527
  112OSM   H15T11650   2.493   3.700   9.309 -0.8025  0.8356 -2.0240
  112OSM   C16S11651   2.280   3.672   9.268 -0.7481 -0.1745  0.0205
  112OSM   H16S11652   2.250   3.773   9.303  0.5728 -0.1965  1.2935
  112OSM   H16T11653   2.201   3.603   9.305 -0.0235 -0.4959  0.9933
  112OSM   C17S11654   2.287   3.676   9.119  0.2717 -0.2192 -0.0287
  112OSM   H17S11655   2.184   3.692   9.083  0.9805  3.5258 -0.5805
  112OSM   H17T11656   2.326   3.579   9.079  0.2186 -0.1163 -0.3250
  112OSM   C18S11657   2.371   3.794   9.062 -0.6981  0.4369  0.1863
  112OSM   H18S11658   2.466   3.780   9.118 -0.8333 -1.4696 -0.0272
  112OSM   H18T11659   2.329   3.895   9.083  0.3731  1.0074 -0.3458
  112OSM   H18U11660   2.399   3.789   8.955  1.2634 -0.8727  0.7419
  112OSM    C1F11661   3.009   3.795  10.554  0.6160  0.9332 -0.5946
  112OSM     OF11662   3.066   3.697  10.602  0.1855 -0.4792  0.7953
  112OSM    C2F11663   3.083   3.879  10.453  0.1618  0.3438 -0.0151
  112OSM    H2F11664   3.143   3.951  10.512  2.3661 -1.6985  0.3111
  112OSM    H2G11665   3.003   3.937  10.403 -0.6799 -1.9139 -1.3935
  112OSM    C3F11666   3.169   3.793  10.360  0.1377 -0.0410 -0.0250
  112OSM    H3F11667   3.226   3.714  10.414  2.3814  0.8205 -1.0555
  112OSM    H3G11668   3.244   3.861  10.313  0.1205  0.3975  0.5762
  112OSM    C4F11669   3.085   3.727  10.246 -0.5900 -0.0220 -0.1224
  112OSM    H4F11670   2.984   3.694  10.277 -1.2377  0.2173 -1.9165
  112OSM    H4G11671   3.147   3.646  10.204  0.3610 -0.2962  1.7269
  112OSM    C5F11672   3.061   3.822  10.125  0.0012  0.6479 -0.6383
  112OSM    H5F11673   3.162   3.857  10.093  0.0988  0.3317 -0.6851
  112OSM    H5G11674   2.995   3.910  10.137 -2.0677 -1.1125  1.2496
  112OSM    C6F11675   2.996   3.746  10.012  0.3376 -0.1758 -0.2607
  112OSM    H6F11676   2.907   3.689  10.045  1.2601 -1.2644  0.4026
  112OSM    H6G11677   3.070   3.676   9.967  0.0978 -0.8768  0.4212
  112OSM    C7F11678   2.958   3.847   9.900  0.6897  0.1056 -0.1032
  112OSM    H7F11679   3.041   3.919   9.882  0.3419  0.5407  0.0196
  112OSM    H7G11680   2.876   3.903   9.951  0.9096 -2.0543  2.7291
  112OSM    C8F11681   2.911   3.777   9.773  0.2093 -0.1525 -0.2885
  112OSM    H8F11682   2.819   3.722   9.804  0.3425  0.1215  0.6157
  112OSM    H8G11683   2.996   3.717   9.733 -1.3213 -1.3343 -1.8596
  112OSM    C9F11684   2.866   3.870   9.666 -0.3811  0.5405 -0.3797
  112OSM    H9F11685   2.780   3.935   9.687 -0.0848  0.3913  1.3254
  112OSM   C10F11686   2.917   3.891   9.542 -0.2576  0.1169 -0.9323
  112OSM   H10F11687   2.870   3.959   9.469 -0.4302  2.0390  0.9085
  112OSM   C11F11688   3.037   3.826   9.485 -0.0009  0.2116  0.5871
  112OSM   H11F11689   3.096   3.771   9.561 -1.5139  1.8779  3.0642
  112OSM   H11G11690   3.100   3.906   9.442 -0.1177 -0.6240 -1.1618
  112OSM   C12F11691   3.002   3.737   9.366  0.4273 -0.8392 -0.6745
  112OSM   H12F11692   2.929   3.797   9.308 -0.4719 -1.4200 -0.1560
  112OSM   H12G11693   2.938   3.653   9.403 -0.3646 -0.5355 -1.3539
  112OSM   C13F11694   3.127   3.692   9.286 -0.0386 -0.6811 -0.0617
  112OSM   H13F11695   3.115   3.589   9.248  1.4498 -1.3053  1.0686
  112OSM   H13G11696   3.219   3.678   9.348  0.8282  0.1774 -1.1310
  112OSM   C14F11697   3.173   3.790   9.182  0.1929 -0.2344  0.6666
  112OSM   H14F11698   3.182   3.891   9.226  2.9098 -0.0786 -0.1508
  112OSM   H14G11699   3.098   3.797   9.100  2.1805  0.3797 -1.1779
  112OSM   C15F11700   3.312   3.751   9.128 -0.9239 -0.1525  0.1305
  112OSM   H15F11701   3.301   3.642   9.113  0.8775 -0.2433 -0.6355
  112OSM   H15G11702   3.387   3.754   9.209 -3.1499  0.3073  2.2441
  112OSM   C16F11703   3.364   3.829   8.996 -0.0276 -0.1319 -0.0945
  112OSM   H16F11704   3.363   3.939   9.016 -1.7797 -0.2458  0.5544
  112OSM   H16G11705   3.288   3.811   8.917 -0.7319  1.4595  0.1936
  112OSM   C17F11706   3.493   3.777   8.947 -0.3478 -0.3368 -0.6816
  112OSM   H17F11707   3.484   3.669   8.922 -1.6188 -0.3560 -0.1698
  112OSM   H17G11708   3.563   3.773   9.034  0.4789 -1.3638 -1.3721
  112OSM   C18F11709   3.554   3.855   8.832  0.5530 -0.3653 -0.5924
  112OSM   H18F11710   3.582   3.956   8.870 -1.1910 -0.2396  0.4633
  112OSM   H18G11711   3.482   3.871   8.749  0.4877 -1.6541 -0.7875
  112OSM   H18H11712   3.642   3.804   8.789  1.2493  0.7001 -0.4532
  113OSM      N11713   0.853   1.253  11.169  0.4829  0.5572  0.3686
  113OSM    C1511714   0.745   1.284  11.271  0.4579 -0.0079  0.8241
  113OSM   H15A11715   0.670   1.356  11.240  0.4572 -0.7463 -0.9608
  113OSM   H15B11716   0.799   1.324  11.355 -1.4915  0.8643  1.6811
  113OSM   H15C11717   0.697   1.191  11.295  1.9879 -0.5084  2.0053
  113OSM    C1411718   0.923   1.386  11.139  0.9933 -0.4746 -0.3477
  113OSM   H14A11719   0.957   1.439  11.226  3.1211 -0.7026 -1.0233
  113OSM   H14B11720   0.848   1.446  11.090  1.1132 -0.2443 -0.2515
  113OSM   H14C11721   1.006   1.383  11.071  1.9903  1.1253  0.7823
  113OSM    C1311722   0.955   1.160  11.233  0.4846  0.0856 -0.2536
  113OSM   H13A11723   1.003   1.212  11.315 -0.8869  0.4870  0.3214
  113OSM   H13B11724   1.019   1.125  11.154 -1.8722 -3.0394 -0.8334
  113OSM   H13C11725   0.908   1.071  11.273  2.9976 -1.3871 -0.4891
  113OSM    C1211726   0.804   1.188  11.036 -0.1592 -0.2045 -0.1558
  113OSM   H12A11727   0.727   1.115  11.058  1.4326 -1.5713  1.0048
  113OSM   H12B11728   0.880   1.121  11.000 -0.0361 -0.4091  0.4898
  113OSM    C1111729   0.761   1.286  10.920  0.5346  0.9581 -0.0651
  113OSM   H11A11730   0.735   1.225  10.830  2.3728  0.5846 -0.3582
  113OSM   H11B11731   0.851   1.341  10.888  1.5503 -0.0907  0.9592
  113OSM      P11732   0.515   1.300  10.985 -0.0556 -0.1169  0.2190
  113OSM    O1311733   0.531   1.154  10.984 -0.3472 -0.0765  0.9914
  113OSM    O1411734   0.463   1.368  11.107 -0.5058 -0.0943 -0.2652
  113OSM    O1111735   0.424   1.344  10.862 -0.2759 -0.1609 -0.4627
  113OSM    O1211736   0.650   1.368  10.953  0.5620 -0.2613 -0.4206
  113OSM    C1S11737   0.474   1.371  10.730  0.0381 -0.4983 -1.0122
  113OSM    H1S11738   0.491   1.272  10.682 -0.5265 -0.5008 -1.2058
  113OSM    H1T11739   0.572   1.423  10.729 -0.6985  0.9817  1.2806
  113OSM     NF11740   0.420   1.473  10.512 -0.1902  0.2841  0.3248
  113OSM    HNF11741   0.464   1.562  10.504  0.4282 -0.1645 -1.4828
  113OSM    C2S11742   0.370   1.445  10.644  0.3017 -0.8908 -0.0938
  113OSM    H2S11743   0.281   1.380  10.633  0.9318 -1.1856 -3.7819
  113OSM    C3S11744   0.325   1.581  10.717  0.4340  0.2974 -0.6750
  113OSM    H3S11745   0.412   1.645  10.741  1.4670 -0.3005 -2.7141
  113OSM     O311746   0.259   1.565  10.839  0.4132 -0.0709  0.3146
  113OSM    HO311747   0.284   1.472  10.849  2.6778  0.3134 -1.3126
  113OSM    C4S11748   0.220   1.642  10.633  0.0585 -0.3658  0.5211
  113OSM    H4S11749   0.130   1.580  10.619  0.8381 -1.1097 -1.3803
  113OSM    C5S11750   0.225   1.759  10.568  0.4545 -0.1510  0.2653
  113OSM    H5S11751   0.310   1.829  10.565 -0.9928  1.7164  1.3363
  113OSM    C6S11752   0.121   1.822  10.480 -0.1750  0.2784 -0.2573
  113OSM    H6S11753   0.094   1.925  10.512  1.3493  0.2825  1.0804
  113OSM    H6T11754   0.029   1.764  10.506 -0.1909  0.8492  0.9982
  113OSM    C7S11755   0.163   1.812  10.335  0.1058 -0.8235 -0.1199
  113OSM    H7S11756   0.204   1.712  10.310  1.1395 -0.0294 -1.6765
  113OSM    H7T11757   0.250   1.879  10.316  0.5779 -0.9014  1.6622
  113OSM    C8S11758   0.050   1.857  10.246  0.8851 -0.0590  1.1812
  113OSM    H8S11759   0.062   1.967  10.246  1.0883 -0.0813  1.0613
  113OSM    H8T11760  -0.045   1.820  10.291  1.4573  0.3561  2.7585
  113OSM    C9S11761   0.055   1.800  10.105 -0.0325  0.3662 -0.2154
  113OSM    H9S11762  -0.017   1.716  10.107  0.6185 -0.2719 -2.0669
  113OSM    H9T11763   0.155   1.758  10.083  0.8919  2.3956 -0.0240
  113OSM   C10S11764   0.007   1.889   9.983 -0.8511 -0.0684  0.0083
  113OSM   H10S11765   0.068   1.981   9.976  0.3591 -0.8627 -0.1346
  113OSM   H10T11766  -0.096   1.922  10.005 -0.2527  3.0141 -1.5378
  113OSM   C11S11767   0.007   1.813   9.852 -0.2260  0.6168 -0.6284
  113OSM   H11S11768  -0.064   1.728   9.843  0.2189  0.1998 -0.2481
  113OSM   H11T11769   0.113   1.787   9.834 -0.0913  0.3645  0.4904
  113OSM   C12S11770  -0.048   1.904   9.736 -0.4714 -0.1754 -0.6663
  113OSM   H12S11771   0.022   1.988   9.715 -0.6110  0.5766  1.7258
  113OSM   H12T11772  -0.136   1.961   9.774  0.4829 -0.5807  2.3074
  113OSM   C13S11773  -0.093   1.834   9.606  0.0387 -0.4822  0.2407
  113OSM   H13S11774  -0.135   1.908   9.535 -0.1094 -1.1335 -0.3547
  113OSM   H13T11775  -0.174   1.768   9.641 -1.2351  0.4824 -0.8540
  113OSM   C14S11776   0.019   1.768   9.537  0.1987 -0.6825 -0.0278
  113OSM   H14S11777   0.061   1.688   9.602  2.3881  0.2014 -0.2800
  113OSM   H14T11778   0.109   1.831   9.520 -0.9126  0.9456  0.0433
  113OSM   C15S11779  -0.030   1.707   9.413  0.1540  0.8695  0.4887
  113OSM   H15S11780  -0.132   1.668   9.429  1.3962 -2.4492  0.7343
  113OSM   H15T11781   0.038   1.624   9.383  1.4622  2.0905  0.0507
  113OSM   C16S11782  -0.025   1.793   9.288  0.8521  1.0205 -0.2954
  113OSM   H16S11783   0.080   1.826   9.273  0.9892  1.1893  0.9832
  113OSM   H16T11784  -0.099   1.876   9.289 -1.3551 -0.9140 -0.5562
  113OSM   C17S11785  -0.067   1.714   9.155 -0.3341  0.3979  0.3146
  113OSM   H17S11786  -0.176   1.695   9.170 -0.3830  0.6668  0.3041
  113OSM   H17T11787  -0.016   1.616   9.146 -1.0566  0.0974 -0.6798
  113OSM   C18S11788  -0.050   1.785   9.023 -0.3445  0.9301  0.2717
  113OSM   H18S11789  -0.055   1.896   9.029 -0.5578  0.8153  2.3886
  113OSM   H18T11790  -0.125   1.758   8.945  2.3802  0.7598 -2.3859
  113OSM   H18U11791   0.045   1.752   8.975 -1.2661 -0.0222 -0.9482
  113OSM    C1F11792   0.446   1.373  10.428  0.0299  0.3964 -0.2722
  113OSM     OF11793   0.413   1.260  10.455 -0.6249  0.0172 -0.4354
  113OSM    C2F11794   0.509   1.411  10.293 -1.0806  0.3452 -0.4542
  113OSM    H2F11795   0.619   1.420  10.306 -1.1099 -1.4624  1.2134
  113OSM    H2G11796   0.468   1.511  10.266 -1.5056  0.6166  1.1084
  113OSM    C3F11797   0.477   1.329  10.168  0.2269 -0.0571 -0.0994
  113OSM    H3F11798   0.369   1.305  10.158  0.0266  1.4295 -1.7313
  113OSM    H3G11799   0.536   1.236  10.183 -1.0534 -0.8502  0.0601
  113OSM    C4F11800   0.509   1.396  10.032  0.7325 -0.1340 -0.3605
  113OSM    H4F11801   0.610   1.439  10.049  1.4140 -1.3250 -1.3943
  113OSM    H4G11802   0.434   1.475  10.010 -0.1337 -1.0698 -0.8013
  113OSM    C5F11803   0.533   1.299   9.908  0.1440  0.3724 -0.4839
  113OSM    H5F11804   0.437   1.253   9.875  1.2075  0.3048 -3.5848
  113OSM    H5G11805   0.598   1.214   9.938  0.7218  1.1342  0.4429
  113OSM    C6F11806   0.598   1.383   9.789 -0.1235 -0.5414 -0.0436
  113OSM    H6F11807   0.694   1.427   9.824 -0.5443  2.1828 -2.1427
  113OSM    H6G11808   0.536   1.473   9.767 -0.3108  0.1958  3.1402
  113OSM    C7F11809   0.609   1.313   9.652 -0.3273 -0.6587 -0.6594
  113OSM    H7F11810   0.507   1.305   9.609 -0.8373  0.2797  0.3371
  113OSM    H7G11811   0.640   1.209   9.676  0.3002 -0.0127  1.4920
  113OSM    C8F11812   0.714   1.383   9.569 -0.0625 -0.2338  0.5686
  113OSM    H8F11813   0.786   1.439   9.634  0.7156 -0.6879  0.1041
  113OSM    H8G11814   0.651   1.466   9.529  1.0578  1.3875  2.0508
  113OSM    C9F11815   0.783   1.304   9.467  0.5209  0.3866 -0.7483
  113OSM    H9F11816   0.867   1.244   9.505  0.3856  0.1263 -0.8628
  113OSM   C10F11817   0.734   1.286   9.340  0.1346  0.2294  0.3286
  113OSM   H10F11818   0.790   1.214   9.279  0.1335  0.6308 -0.1542
  113OSM   C11F11819   0.611   1.347   9.274 -0.1815 -0.2518  0.1587
  113OSM   H11F11820   0.646   1.451   9.255 -0.8034  0.0173  0.4714
  113OSM   H11G11821   0.525   1.344   9.345  2.1507 -0.0705  3.1009
  113OSM   C12F11822   0.582   1.279   9.141  0.5695  0.3307  0.0815
  113OSM   H12F11823   0.479   1.312   9.116 -0.0373 -1.0418  0.7251
  113OSM   H12G11824   0.573   1.171   9.164  1.6087 -0.0982 -1.4373
  113OSM   C13F11825   0.681   1.301   9.031  0.1218 -0.8002  0.2904
  113OSM   H13F11826   0.778   1.292   9.084  1.0295 -1.4890 -1.4286
  113OSM   H13G11827   0.656   1.407   9.006 -2.4548 -1.7210 -1.2257
  113OSM   C14F11828   0.677   1.212   8.908 -0.2379  0.7341 -0.2105
  113OSM   H14F11829   0.580   1.230   8.857  0.4252 -0.4722 -1.9430
  113OSM   H14G11830   0.680   1.110   8.953 -3.9391  0.8568  0.4989
  113OSM   C15F11831   0.782   1.241   8.799 -0.0062 -0.5946  0.0600
  113OSM   H15F11832   0.770   1.169   8.715  0.7306 -1.0340  0.3219
  113OSM   H15G11833   0.881   1.225   8.847 -0.7086 -3.2375  0.7220
  113OSM   C16F11834   0.779   1.387   8.739 -0.1761  0.2673  0.2096
  113OSM   H16F11835   0.778   1.457   8.825  2.3539  0.2413  0.2951
  113OSM   H16G11836   0.682   1.401   8.686  0.1504 -1.6837 -0.9714
  113OSM   C17F11837   0.891   1.425   8.641  0.9086  0.4081 -0.1345
  113OSM   H17F11838   0.984   1.429   8.702  1.5490 -1.1905 -0.9902
  113OSM   H17G11839   0.871   1.530   8.609 -0.9527  0.6694  1.7805
  113OSM   C18F11840   0.900   1.329   8.519  0.7305 -0.6404  0.2174
  113OSM   H18F11841   0.902   1.224   8.557 -0.8416 -1.0467 -0.7620
  113OSM   H18G11842   0.991   1.345   8.458 -1.1096  1.4758 -2.0526
  113OSM   H18H11843   0.806   1.335   8.460  1.4225  0.2477 -0.8008
  114OSM      N11844   2.395   3.829  11.207  0.5038  0.1830 -0.0205
  114OSM    C1511845   2.512   3.747  11.162  0.3386 -0.3857  0.7131
  114OSM   H15A11846   2.508   3.657  11.222  0.3051 -1.4029 -0.7844
  114OSM   H15B11847   2.603   3.801  11.182 -0.1852  1.0723 -0.7681
  114OSM   H15C11848   2.492   3.717  11.060 -0.6252 -1.0826  1.1001
  114OSM    C1411849   2.281   3.744  11.245 -0.1587 -0.8221 -0.3249
  114OSM   H14A11850   2.321   3.665  11.306 -0.1712 -0.0628  0.6719
  114OSM   H14B11851   2.229   3.714  11.155  0.8261 -0.0940 -1.1491
  114OSM   H14C11852   2.206   3.801  11.298 -0.8210 -0.8836 -1.1850
  114OSM    C1311853   2.441   3.905  11.327  0.6968 -0.1025 -0.7222
  114OSM   H13A11854   2.468   3.846  11.413 -0.5819 -0.3389 -0.4731
  114OSM   H13B11855   2.368   3.975  11.364  0.1239 -2.3418  2.5905
  114OSM   H13C11856   2.533   3.959  11.314  0.4447  0.3540 -0.6102
  114OSM    C1211857   2.360   3.928  11.093 -0.2489 -0.5740  0.2355
  114OSM   H12A11858   2.444   3.995  11.084 -0.5330 -0.1957  0.3567
  114OSM   H12B11859   2.289   3.996  11.138  0.8070  1.7038 -1.4174
  114OSM    C1111860   2.304   3.877  10.966 -0.4390 -0.0665 -0.0879
  114OSM   H11A11861   2.377   3.813  10.913  2.0176  1.1891  1.7087
  114OSM   H11B11862   2.307   3.954  10.885  0.9787  0.3282  0.3241
  114OSM      P11863   2.051   3.914  10.994 -0.3412  0.4923 -0.2136
  114OSM    O1311864   1.935   3.832  11.033  0.1257 -0.0043  0.6288
  114OSM    O1411865   2.080   4.029  11.079 -0.2488 -0.2495  0.0493
  114OSM    O1111866   2.028   3.979  10.849  0.0938 -0.0505 -0.2809
  114OSM    O1211867   2.179   3.822  10.977 -0.0349  0.1497  0.8177
  114OSM    C1S11868   1.954   3.917  10.742 -0.4567  0.2031  0.7530
  114OSM    H1S11869   1.846   3.905  10.763 -0.5129 -1.3346 -0.3544
  114OSM    H1T11870   1.991   3.814  10.725 -0.9450  0.0535  0.6005
  114OSM     NF11871   1.917   3.887  10.506  0.6124 -0.1451 -0.3451
  114OSM    HNF11872   1.970   3.809  10.473 -0.0320 -0.9450  0.4717
  114OSM    C2S11873   1.983   3.975  10.600 -0.9005 -0.6752  0.5245
  114OSM    H2S11874   1.937   4.076  10.595 -0.2291 -0.3511  0.7161
  114OSM    C3S11875   2.139   3.999  10.579 -0.2339  0.6443 -0.0439
  114OSM    H3S11876   2.184   3.898  10.579 -0.8929  0.3132  2.5457
  114OSM     O311877   2.203   4.076  10.683  0.6294  0.0470  0.2678
  114OSM    HO311878   2.142   4.065  10.756  1.2384 -0.3365  0.7233
  114OSM    C4S11879   2.157   4.059  10.443  0.2404  0.0582 -0.6568
  114OSM    H4S11880   2.122   4.163  10.431 -2.3983 -0.7881 -0.5057
  114OSM    C5S11881   2.207   3.999  10.332  0.1562  0.0314 -0.5730
  114OSM    H5S11882   2.231   3.893  10.349  0.3122 -0.0012 -0.9910
  114OSM    C6S11883   2.210   4.053  10.186 -0.7521  0.4331 -0.6246
  114OSM    H6S11884   2.317   4.069  10.160 -0.5263 -1.2202 -0.7284
  114OSM    H6T11885   2.147   4.143  10.168 -0.7708  0.9113  1.6608
  114OSM    C7S11886   2.149   3.952  10.094  0.5367 -0.1800 -0.3054
  114OSM    H7S11887   2.047   3.921  10.124 -0.1834  1.8093 -0.6451
  114OSM    H7T11888   2.206   3.858  10.109  1.7987  0.8921  1.8284
  114OSM    C8S11889   2.145   3.987   9.943 -0.0279 -0.0693 -0.2649
  114OSM    H8S11890   2.086   4.081   9.937 -0.2673 -0.0790  1.6720
  114OSM    H8T11891   2.096   3.904   9.887 -0.0197 -0.8157  0.8103
  114OSM    C9S11892   2.276   4.020   9.874 -0.0733  0.3811 -0.0778
  114OSM    H9S11893   2.340   3.942   9.920 -0.3598  0.9413  1.2907
  114OSM    H9T11894   2.317   4.111   9.922 -0.5921  1.3679 -1.4777
  114OSM   C10S11895   2.289   4.026   9.723  0.3902  0.0177 -0.4810
  114OSM   H10S11896   2.240   4.119   9.686 -1.8987 -0.2265  1.7356
  114OSM   H10T11897   2.250   3.934   9.675  3.5593 -0.2725 -2.6326
  114OSM   C11S11898   2.433   4.038   9.659  0.5530  0.2134  0.9170
  114OSM   H11S11899   2.487   3.949   9.697  0.6637 -0.3972 -0.6609
  114OSM   H11T11900   2.483   4.128   9.702 -1.0911  0.2599  2.8345
  114OSM   C12S11901   2.428   4.036   9.503  0.0870  0.6372 -0.0508
  114OSM   H12S11902   2.374   4.119   9.453 -2.1322 -0.0072  1.2072
  114OSM   H12T11903   2.369   3.946   9.473 -1.6280  1.6420  0.2246
  114OSM   C13S11904   2.572   4.016   9.453  0.6970  0.2776  0.9187
  114OSM   H13S11905   2.609   3.916   9.482 -1.7831 -0.5052  1.5539
  114OSM   H13T11906   2.634   4.086   9.512 -0.8823  1.7108  0.9399
  114OSM   C14S11907   2.588   4.043   9.300 -0.8397  0.0806 -0.5419
  114OSM   H14S11908   2.579   4.154   9.297 -0.2089  0.1146 -1.3532
  114OSM   H14T11909   2.501   4.000   9.245 -0.0874 -1.3041 -0.6548
  114OSM   C15S11910   2.717   3.990   9.248  0.2406 -0.2688  0.7877
  114OSM   H15S11911   2.739   3.888   9.286  2.0091 -0.3570 -0.3890
  114OSM   H15T11912   2.812   4.044   9.270 -1.5553  2.8565  1.1243
  114OSM   C16S11913   2.712   3.989   9.095 -0.1279  0.5397 -0.2203
  114OSM   H16S11914   2.726   4.092   9.057  0.0531  0.4064 -0.5160
  114OSM   H16T11915   2.611   3.957   9.061 -0.8973  1.6055  1.0214
  114OSM   C17S11916   2.821   3.898   9.039  0.6740 -0.3271 -0.4657
  114OSM   H17S11917   2.829   3.799   9.088 -2.1914 -1.1392 -1.5056
  114OSM   H17T11918   2.915   3.947   9.074  0.2649  0.3321 -0.2791
  114OSM   C18S11919   2.826   3.896   8.886 -0.1863  0.2877  0.5684
  114OSM   H18S11920   2.855   3.994   8.843  1.2979 -0.6757 -0.6761
  114OSM   H18T11921   2.721   3.888   8.849 -0.8909  0.1461  2.5075
  114OSM   H18U11922   2.879   3.811   8.837 -2.6047  1.0435 -3.5525
  114OSM    C1F11923   1.786   3.889  10.499  0.9765  0.1676 -0.0257
  114OSM     OF11924   1.717   3.974  10.549 -0.4810  0.1425 -0.1484
  114OSM    C2F11925   1.714   3.778  10.419  0.1051 -0.0583  0.3479
  114OSM    H2F11926   1.615   3.760  10.467  0.0416  0.8873  0.5742
  114OSM    H2G11927   1.784   3.692  10.431 -0.5072 -0.7492 -0.9833
  114OSM    C3F11928   1.711   3.818  10.267  0.6191 -0.7884 -1.2545
  114OSM    H3F11929   1.702   3.729  10.201 -0.2213 -1.8170  0.2200
  114OSM    H3G11930   1.810   3.852  10.231  0.5077 -0.1884 -0.9938
  114OSM    C4F11931   1.607   3.925  10.238 -0.2053  0.2735  0.1463
  114OSM    H4F11932   1.642   4.026  10.267  0.3313  1.3037 -3.7689
  114OSM    H4G11933   1.512   3.912  10.295 -1.0948 -0.8245 -1.5239
  114OSM    C5F11934   1.566   3.946  10.093 -0.0565  0.1875  0.1945
  114OSM    H5F11935   1.473   4.006  10.081 -0.4990 -0.3618  0.8873
  114OSM    H5G11936   1.555   3.848  10.041  3.7850 -1.4199  2.2439
  114OSM    C6F11937   1.683   4.011  10.017  0.4751  0.1336  0.3267
  114OSM    H6F11938   1.774   3.948  10.030  0.7661  0.4076 -0.3641
  114OSM    H6G11939   1.706   4.111  10.058 -1.0742  0.0550  1.4592
  114OSM    C7F11940   1.633   4.026   9.869  0.1345  0.0554 -0.0395
  114OSM    H7F11941   1.587   3.932   9.830  4.2936 -1.9188 -0.4437
  114OSM    H7G11942   1.732   4.044   9.822  0.9929 -0.1998  1.6328
  114OSM    C8F11943   1.550   4.141   9.841  0.6885  0.2737  0.4008
  114OSM    H8F11944   1.598   4.230   9.887  0.8337 -0.6604  2.0926
  114OSM    H8G11945   1.450   4.127   9.887  0.1416  0.1902 -0.8155
  114OSM    C9F11946   1.518   4.189   9.702  0.3698  0.2407  0.4989
  114OSM    H9F11947   1.556   4.291   9.689 -1.6918  0.7659 -1.5304
  114OSM   C10F11948   1.464   4.119   9.599 -0.3758  0.1811 -0.4442
  114OSM   H10F11949   1.452   4.165   9.500 -3.5251  1.5034  0.5113
  114OSM   C11F11950   1.419   3.974   9.600 -0.2138 -0.9279  0.3970
  114OSM   H11F11951   1.382   3.954   9.703  2.2882  2.8510  2.1674
  114OSM   H11G11952   1.492   3.896   9.570 -0.0845 -0.7099  0.1416
  114OSM   C12F11953   1.301   3.962   9.493  0.0038  0.0146  0.5247
  114OSM   H12F11954   1.217   4.030   9.520  0.3838  0.7436 -0.1008
  114OSM   H12G11955   1.276   3.854   9.491  1.2080 -0.2888  1.3504
  114OSM   C13F11956   1.333   3.994   9.340  0.8579 -0.4613  0.5176
  114OSM   H13F11957   1.397   3.913   9.298  0.2175  0.5780 -2.5505
  114OSM   H13G11958   1.404   4.079   9.333  0.2237  0.0917  0.8184
  114OSM   C14F11959   1.212   3.999   9.244  0.0023 -1.0968  0.2786
  114OSM   H14F11960   1.148   4.079   9.286  2.5600  0.5539  1.1175
  114OSM   H14G11961   1.162   3.900   9.234 -0.9458 -0.4319 -2.0068
  114OSM   C15F11962   1.255   4.031   9.103 -0.4354 -0.6173 -0.4060
  114OSM   H15F11963   1.309   3.948   9.053 -1.0536 -1.2443 -0.0451
  114OSM   H15G11964   1.322   4.119   9.114  0.3193 -1.4141  1.5841
  114OSM   C16F11965   1.130   4.071   9.019  0.2525 -0.1305  0.8119
  114OSM   H16F11966   1.070   4.145   9.077 -2.3626 -1.2734 -0.3437
  114OSM   H16G11967   1.076   3.977   8.996  0.3420  0.0286 -0.0575
  114OSM   C17F11968   1.177   4.147   8.890  0.4490  0.4340  0.3195
  114OSM   H17F11969   1.240   4.237   8.905 -0.7070  0.9622  2.2259
  114OSM   H17G11970   1.088   4.190   8.840  0.0975  0.6262  1.0925
  114OSM   C18F11971   1.250   4.061   8.785  0.4461 -0.3943 -0.3183
  114OSM   H18F11972   1.321   3.989   8.831  1.9278  2.0220  1.3027
  114OSM   H18G11973   1.311   4.131   8.723  0.0420 -0.9379 -1.3411
  114OSM   H18H11974   1.180   4.012   8.714 -0.2247  0.4826 -0.2782
  115OSM      N11975   4.933   3.350  10.984 -0.4586 -0.9096  1.1913
  115OSM    C1511976   4.906   3.242  11.077  0.0822 -0.3447  0.3726
  115OSM   H15A11977   4.817   3.259  11.136 -1.2761 -0.7804 -1.5170
  115OSM   H15B11978   4.988   3.217  11.143 -0.6076 -1.6284  0.7578
  115OSM   H15C11979   4.880   3.155  11.018  2.0418  0.4970 -1.8220
  115OSM    C1411980   4.803   3.364  10.907  0.4516 -0.3396 -0.9701
  115OSM   H14A11981   4.796   3.430  10.822 -0.9156 -0.3833 -0.9166
  115OSM   H14B11982   4.725   3.402  10.972  0.5026 -1.0632 -0.4752
  115OSM   H14C11983   4.769   3.271  10.863 -0.9024  0.5419 -1.8340
  115OSM    C1311984   4.977   3.479  11.047  1.0267  0.4752  0.3809
  115OSM   H13A11985   4.896   3.513  11.109 -0.0101 -0.3735 -0.4851
  115OSM   H13B11986   5.010   3.550  10.973 -1.0517  1.5662  0.4742
  115OSM   H13C11987   5.070   3.455  11.097  1.6108  0.4689 -0.6878
  115OSM    C1211988   5.046   3.296  10.894  0.5966 -0.1612  0.2037
  115OSM   H12A11989   5.048   3.362  10.808 -0.3120 -0.0843  0.2309
  115OSM   H12B11990   5.009   3.196  10.876 -2.9372  1.6013 -3.2792
  115OSM    C1111991   5.194   3.287  10.955  0.5298  0.4322 -0.7971
  115OSM   H11A11992   5.252   3.232  10.878 -0.0900 -2.6500  0.8523
  115OSM   H11B11993   5.172   3.231  11.049 -1.7438  0.7811 -1.1023
  115OSM      P11994   5.402   3.395  11.030 -0.2550  0.2047  0.7055
  115OSM    O1311995   5.443   3.524  11.084  0.4366 -0.1831  0.1396
  115OSM    O1411996   5.411   3.282  11.128  0.1023  0.5920 -0.2748
  115OSM    O1111997   5.482   3.363  10.902  0.1677  0.6722  0.0521
  115OSM    O1211998   5.253   3.412  10.983 -0.7036  0.0952  0.0672
  115OSM    C1S11999   5.476   3.411  10.768  0.3274  0.4866  0.1244
  115OSM    H1S12000   5.549   3.495  10.759  0.4152  0.6566  2.1603
  115OSM    H1T12001   5.375   3.442  10.735  0.2780  1.0015  0.7458
  115OSM     NF12002   5.508   3.375  10.522 -0.1509 -0.2079  0.0676
  115OSM    HNF12003   5.438   3.330  10.468  1.0112  0.5227 -2.0851
  115OSM    C2S12004   5.535   3.322  10.655 -0.5948  0.4947  0.1757
  115OSM    H2S12005   5.645   3.313  10.671 -0.6532 -3.9005 -1.4264
  115OSM    C3S12006   5.479   3.173  10.669  0.6091 -0.2484 -0.3433
  115OSM    H3S12007   5.370   3.163  10.647  0.6213  0.1078 -0.5799
  115OSM     O312008   5.485   3.119  10.803 -0.1447  0.1636  0.8065
  115OSM    HO312009   5.507   3.195  10.856 -2.1310  0.6565  0.9597
  115OSM    C4S12010   5.555   3.080  10.576 -0.5340 -0.5408  0.1526
  115OSM    H4S12011   5.496   3.071  10.483 -2.5899 -0.3749  1.3936
  115OSM    C5S12012   5.678   3.022  10.594  0.1678  0.1546  0.4099
  115OSM    H5S12013   5.726   3.041  10.691  0.5144  0.8183  0.1118
  115OSM    C6S12014   5.745   2.930  10.491 -0.1826 -0.4143  0.3047
  115OSM    H6S12015   5.773   2.837  10.544 -1.1603 -0.9138 -0.0475
  115OSM    H6T12016   5.829   2.981  10.441  1.1854 -0.6127  2.3335
  115OSM    C7S12017   5.663   2.887  10.368  0.2763 -0.4511 -0.2446
  115OSM    H7S12018   5.622   2.977  10.317  1.2495 -0.5431 -1.2227
  115OSM    H7T12019   5.573   2.832  10.404  0.6451  0.0438  1.4689
  115OSM    C8S12020   5.730   2.802  10.269 -0.8514 -0.1767 -0.6860
  115OSM    H8S12021   5.728   2.700  10.312  1.5504 -0.9248 -2.2875
  115OSM    H8T12022   5.835   2.827  10.242 -1.7616  0.7377 -3.6034
  115OSM    C9S12023   5.662   2.785  10.133  0.4983  0.0897  0.1715
  115OSM    H9S12024   5.657   2.875  10.067  1.9504  1.6639  2.1517
  115OSM    H9T12025   5.553   2.770  10.151  0.5313  1.6914  1.8771
  115OSM   C10S12026   5.725   2.675  10.045 -0.0632 -0.7100  0.3180
  115OSM   H10S12027   5.740   2.579  10.099 -2.3025  0.6704  3.6051
  115OSM   H10T12028   5.821   2.706   9.999  0.7330 -2.7181  0.5556
  115OSM   C11S12029   5.643   2.646   9.917  0.3909  0.9581  0.6710
  115OSM   H11S12030   5.634   2.732   9.847  1.5919  0.4274 -0.1511
  115OSM   H11T12031   5.539   2.614   9.938 -0.5953  2.3442 -1.8419
  115OSM   C12S12032   5.706   2.533   9.838 -0.1255 -0.4341  0.1911
  115OSM   H12S12033   5.738   2.440   9.891 -0.9903 -2.0973 -2.0959
  115OSM   H12T12034   5.791   2.586   9.790 -0.3624  0.8850  1.2186
  115OSM   C13S12035   5.610   2.484   9.724 -0.1848  0.4522 -0.0367
  115OSM   H13S12036   5.512   2.454   9.767  0.0471 -0.9209 -0.4425
  115OSM   H13T12037   5.647   2.393   9.673  0.5788 -1.1495  3.2492
  115OSM   C14S12038   5.568   2.578   9.610 -0.7066 -0.7743  0.1264
  115OSM   H14S12039   5.566   2.684   9.646 -0.4003 -0.3941 -0.9458
  115OSM   H14T12040   5.460   2.567   9.588 -1.1190  1.3029  0.9039
  115OSM   C15S12041   5.648   2.554   9.486 -0.5823  0.3325 -0.3619
  115OSM   H15S12042   5.626   2.449   9.458 -3.4131  0.4478  1.1834
  115OSM   H15T12043   5.754   2.568   9.516 -1.1108 -0.6438  2.1423
  115OSM   C16S12044   5.597   2.628   9.365  0.4781  0.1117  0.0706
  115OSM   H16S12045   5.621   2.736   9.377 -2.5047  0.8833 -0.6189
  115OSM   H16T12046   5.487   2.616   9.365  0.4284  0.5629  0.0760
  115OSM   C17S12047   5.651   2.590   9.223  0.0047  0.2931 -0.1494
  115OSM   H17S12048   5.641   2.480   9.209 -2.0484  0.5737 -1.0065
  115OSM   H17T12049   5.760   2.610   9.214  0.0699 -0.6171 -1.5272
  115OSM   C18S12050   5.571   2.658   9.112 -0.8130  0.0152  0.4905
  115OSM   H18S12051   5.621   2.640   9.015  1.2408  3.4961  0.7826
  115OSM   H18T12052   5.573   2.769   9.122 -2.1321  0.1690 -0.8169
  115OSM   H18U12053   5.466   2.622   9.120 -0.1921 -2.5376 -2.4286
  115OSM    C1F12054   5.566   3.488  10.482 -0.2539 -0.5391  0.0724
  115OSM     OF12055   5.668   3.535  10.541  0.3121  0.2997  0.7278
  115OSM    C2F12056   5.490   3.562  10.376  0.8836  0.3862 -0.0384
  115OSM    H2F12057   5.444   3.646  10.433  1.7613  2.2395 -1.9817
  115OSM    H2G12058   5.415   3.489  10.338  1.3768  0.7481 -1.7570
  115OSM    C3F12059   5.567   3.632  10.261 -0.4252 -0.5110 -0.3500
  115OSM    H3F12060   5.623   3.557  10.201 -0.2175 -1.9680  1.6296
  115OSM    H3G12061   5.642   3.701  10.304 -0.5620 -0.2690 -0.4914
  115OSM    C4F12062   5.470   3.717  10.170  1.0206 -0.1865  0.0604
  115OSM    H4F12063   5.393   3.648  10.130 -0.0303  0.5810  0.7530
  115OSM    H4G12064   5.537   3.753  10.088  0.4717  2.7369  0.8390
  115OSM    C5F12065   5.403   3.837  10.249  0.5588  0.5515  0.4599
  115OSM    H5F12066   5.484   3.898  10.294 -0.0286  0.4570  1.6696
  115OSM    H5G12067   5.329   3.812  10.328  1.1966  1.0222  1.2169
  115OSM    C6F12068   5.314   3.929  10.167  0.1417  0.6593 -0.5041
  115OSM    H6F12069   5.234   3.869  10.118 -1.5710  2.0016  0.5964
  115OSM    H6G12070   5.379   3.972  10.088  1.4729  0.1065  0.2885
  115OSM    C7F12071   5.249   4.032  10.252 -0.1625  0.7560 -0.0754
  115OSM    H7F12072   5.325   4.075  10.321 -0.2580  1.9247 -0.6948
  115OSM    H7G12073   5.171   3.978  10.310 -0.0949  0.5458 -0.1792
  115OSM    C8F12074   5.193   4.138  10.166 -0.0009  0.9049  0.1243
  115OSM    H8F12075   5.111   4.197  10.211 -0.7155 -0.8752  1.2284
  115OSM    H8G12076   5.141   4.091  10.079 -1.8905  0.6933  1.3340
  115OSM    C9F12077   5.297   4.248  10.137  0.7674 -0.0559  0.3331
  115OSM    H9F12078   5.354   4.290  10.221  0.5479 -1.2183  1.0815
  115OSM   C10F12079   5.357   4.265  10.019  0.3292 -0.3833 -0.2292
  115OSM   H10F12080   5.448   4.326  10.010 -0.7258  0.8302 -3.4416
  115OSM   C11F12081   5.327   4.191   9.885  0.4754 -0.1584  0.2442
  115OSM   H11F12082   5.267   4.099   9.903 -0.5507  0.5191  0.3455
  115OSM   H11G12083   5.425   4.168   9.838 -0.3485  0.3690 -1.7894
  115OSM   C12F12084   5.231   4.262   9.789  0.0458 -0.0587  0.2493
  115OSM   H12F12085   5.271   4.365   9.774  1.8272 -0.5470  1.5435
  115OSM   H12G12086   5.138   4.273   9.848 -0.8116  1.5397 -1.3105
  115OSM   C13F12087   5.201   4.173   9.671 -0.2426  0.2594 -0.0110
  115OSM   H13F12088   5.164   4.076   9.710  0.6948 -0.3789 -0.7020
  115OSM   H13G12089   5.300   4.146   9.631 -0.0757 -0.0131  0.5795
  115OSM   C14F12090   5.108   4.227   9.561  0.3584  0.5958 -0.0916
  115OSM   H14F12091   5.152   4.324   9.528  1.5727 -0.6435 -2.2287
  115OSM   H14G12092   5.014   4.252   9.616  1.5317 -0.3330  2.4122
  115OSM   C15F12093   5.110   4.134   9.432  0.7516  0.8316 -0.3052
  115OSM   H15F12094   5.052   4.042   9.456  0.0487  0.5518 -2.9727
  115OSM   H15G12095   5.215   4.110   9.405  0.7685  0.2117  0.3016
  115OSM   C16F12096   5.050   4.206   9.311 -0.6816 -0.5320 -0.3157
  115OSM   H16F12097   5.104   4.300   9.289  1.9272 -1.8289  0.3258
  115OSM   H16G12098   4.949   4.237   9.346 -0.5101 -1.2926  0.9133
  115OSM   C17F12099   5.042   4.112   9.194  0.6285  0.0166  0.5642
  115OSM   H17F12100   4.994   4.023   9.240 -0.6528  0.8184  0.8158
  115OSM   H17G12101   5.143   4.093   9.153  1.1720  0.0077  1.8670
  115OSM   C18F12102   4.954   4.173   9.079 -0.3906  0.5123 -0.0899
  115OSM   H18F12103   4.846   4.168   9.104 -0.5064 -1.1104 -0.8597
  115OSM   H18G12104   4.952   4.115   8.985  0.5357 -2.4570  1.6567
  115OSM   H18H12105   4.976   4.282   9.067 -0.0253  0.3767 -0.7075
  116OSM      N12106   2.871   6.606  11.173 -0.7189  0.5696  0.2128
  116OSM    C1512107   2.994   6.676  11.109 -0.2589  0.0251 -0.3705
  116OSM   H15A12108   3.088   6.659  11.160  1.4148  3.0575 -2.2855
  116OSM   H15B12109   2.982   6.783  11.097  0.1231  0.0262 -0.7413
  116OSM   H15C12110   3.004   6.639  11.008 -0.0230 -1.5577  0.2231
  116OSM    C1412111   2.894   6.460  11.186 -0.6205  0.3435 -0.0471
  116OSM   H14A12112   2.923   6.414  11.093  1.4144 -2.2147  1.8051
  116OSM   H14B12113   2.802   6.419  11.225  0.2883 -1.9527 -0.2462
  116OSM   H14C12114   2.976   6.445  11.255 -0.7304 -1.5670 -0.3003
  116OSM    C1312115   2.843   6.674  11.301  0.2112  0.0686 -0.1786
  116OSM   H13A12116   2.776   6.612  11.359  1.8269 -0.1951  1.4501
  116OSM   H13B12117   2.817   6.778  11.290 -0.9866 -0.2594 -0.5475
  116OSM   H13C12118   2.933   6.675  11.360 -0.0982 -0.6794  0.3248
  116OSM    C1212119   2.748   6.627  11.080  0.1924 -0.8754 -0.5778
  116OSM   H12A12120   2.764   6.595  10.978 -2.0808 -1.5148 -0.7491
  116OSM   H12B12121   2.732   6.733  11.071 -0.3885 -0.8944  0.2105
  116OSM    C1112122   2.615   6.570  11.124  0.0423 -0.4180  0.1116
  116OSM   H11A12123   2.533   6.622  11.071 -0.1840 -2.4488 -1.6108
  116OSM   H11B12124   2.601   6.592  11.232 -1.3859 -1.4943  0.1600
  116OSM      P12125   2.575   6.370  10.963  0.3119  0.0978 -0.0352
  116OSM    O1312126   2.642   6.239  10.953  0.8482 -0.5055  0.5867
  116OSM    O1412127   2.430   6.371  10.933 -0.1392  0.3577 -0.3902
  116OSM    O1112128   2.640   6.463  10.865 -0.1549 -0.9208  0.3806
  116OSM    O1212129   2.609   6.424  11.107 -0.3578  0.1408 -0.5198
  116OSM    C1S12130   2.690   6.430  10.732 -0.3964  0.0060 -0.3887
  116OSM    H1S12131   2.692   6.320  10.716  2.1539 -0.0628  0.1440
  116OSM    H1T12132   2.796   6.460  10.716 -0.1319 -1.4211 -1.4105
  116OSM     NF12133   2.636   6.459  10.488  0.1474  0.1457  0.2115
  116OSM    HNF12134   2.673   6.525  10.423 -0.6965  1.3379  0.9311
  116OSM    C2S12135   2.606   6.507  10.626  0.4513  0.3581 -0.1490
  116OSM    H2S12136   2.500   6.482  10.650  0.9328 -2.0833 -0.4249
  116OSM    C3S12137   2.629   6.661  10.650 -0.0130 -0.4259  0.5781
  116OSM    H3S12138   2.737   6.678  10.630  0.0180 -0.3201  0.8248
  116OSM     O312139   2.618   6.710  10.783 -0.2843  0.0499  0.3219
  116OSM    HO312140   2.622   6.627  10.831 -0.6867 -0.1324  0.0378
  116OSM    C4S12141   2.546   6.744  10.548 -0.3785  0.1727  0.5895
  116OSM    H4S12142   2.448   6.776  10.585 -0.9775 -1.3917  0.3644
  116OSM    C5S12143   2.600   6.801  10.439  0.2776 -1.1975 -0.0129
  116OSM    H5S12144   2.707   6.809  10.417 -0.0496  1.9425 -0.6680
  116OSM    C6S12145   2.522   6.890  10.343  0.1821 -0.0900  0.6466
  116OSM    H6S12146   2.512   6.996  10.374  1.5413  0.2585 -0.1107
  116OSM    H6T12147   2.424   6.839  10.329  0.0130  0.7052 -1.1215
  116OSM    C7S12148   2.575   6.871  10.194  0.4655  0.0908 -1.1921
  116OSM    H7S12149   2.599   6.764  10.174 -0.1526 -0.4968  1.0992
  116OSM    H7T12150   2.667   6.933  10.189 -0.4709  1.4357 -1.9830
  116OSM    C8S12151   2.470   6.928  10.083 -0.0611  0.3086 -0.1895
  116OSM    H8S12152   2.435   7.025  10.124 -1.5398 -0.4213  0.3209
  116OSM    H8T12153   2.378   6.866  10.077 -1.5788  2.4025  0.7901
  116OSM    C9S12154   2.533   6.961   9.947  0.5077  1.2736 -0.1537
  116OSM    H9S12155   2.607   6.882   9.921  1.1512  1.9001 -0.2616
  116OSM    H9T12156   2.602   7.046   9.968  0.2393  0.8700  2.5484
  116OSM   C10S12157   2.445   7.003   9.829  0.0279 -0.3288  0.0283
  116OSM   H10S12158   2.380   7.088   9.860 -0.9532 -1.3014  0.6785
  116OSM   H10T12159   2.373   6.918   9.828 -0.1921 -0.1512  0.7512
  116OSM   C11S12160   2.518   7.025   9.700  0.9034  0.4308 -0.5604
  116OSM   H11S12161   2.564   6.925   9.684  0.4058  0.0528  0.3559
  116OSM   H11T12162   2.591   7.109   9.702  2.1266 -0.5927 -1.3323
  116OSM   C12S12163   2.414   7.051   9.601 -0.6385 -0.3011  0.6517
  116OSM   H12S12164   2.372   7.152   9.623 -0.7466 -0.2384  0.1820
  116OSM   H12T12165   2.331   6.979   9.617 -1.9737  0.9256 -0.5268
  116OSM   C13S12166   2.478   7.050   9.463  0.0006 -0.0983  0.5569
  116OSM   H13S12167   2.551   6.966   9.459 -0.6843 -0.6279 -3.0507
  116OSM   H13T12168   2.533   7.143   9.438  1.1266 -1.2402 -1.3230
  116OSM   C14S12169   2.394   7.027   9.336  0.8332 -0.2751  0.6556
  116OSM   H14S12170   2.306   7.095   9.333 -0.8723 -2.5062 -1.2384
  116OSM   H14T12171   2.343   6.929   9.346 -1.1722  0.9577  3.3117
  116OSM   C15S12172   2.459   7.048   9.198  0.1360  0.0007 -0.3721
  116OSM   H15S12173   2.531   6.966   9.178 -2.2381 -1.9740 -1.0358
  116OSM   H15T12174   2.517   7.142   9.202 -0.4431  0.3325  0.3377
  116OSM   C16S12175   2.352   7.058   9.084 -0.2704  0.4554 -0.3797
  116OSM   H16S12176   2.298   7.152   9.108 -0.0912  0.5796 -0.4605
  116OSM   H16T12177   2.285   6.970   9.094  0.1898 -0.0122 -1.3488
  116OSM   C17S12178   2.418   7.066   8.948  0.0351  0.1553  0.4601
  116OSM   H17S12179   2.463   6.966   8.931  1.1151  0.8198 -0.6692
  116OSM   H17T12180   2.504   7.136   8.955  0.5570 -0.5250  0.9360
  116OSM   C18S12181   2.328   7.113   8.841 -0.1836 -0.4196 -0.6374
  116OSM   H18S12182   2.384   7.108   8.745  2.1953  0.7125  0.6527
  116OSM   H18T12183   2.285   7.213   8.860 -2.2637 -1.4357  0.0868
  116OSM   H18U12184   2.237   7.052   8.825 -1.2274  0.9753 -0.1241
  116OSM    C1F12185   2.602   6.334  10.445 -0.1100 -0.1597 -0.4712
  116OSM     OF12186   2.555   6.251  10.519  0.3134  0.4584  0.0801
  116OSM    C2F12187   2.614   6.309  10.305  0.5044  0.0588 -0.4966
  116OSM    H2F12188   2.703   6.360  10.262 -0.4429  0.6355 -1.8356
  116OSM    H2G12189   2.530   6.360  10.252  0.8765  0.6603 -0.5114
  116OSM    C3F12190   2.609   6.157  10.267  0.1452 -0.0455  0.2681
  116OSM    H3F12191   2.510   6.110  10.283  0.3778 -0.8406 -0.5733
  116OSM    H3G12192   2.687   6.110  10.329  0.2157  0.6587  0.7117
  116OSM    C4F12193   2.636   6.144  10.113  0.8948 -0.5654  0.4529
  116OSM    H4F12194   2.730   6.201  10.095 -0.7464  1.0924 -3.2379
  116OSM    H4G12195   2.556   6.200  10.062  0.9251 -1.1752 -0.2664
  116OSM    C5F12196   2.651   5.998  10.080 -0.3150 -1.1064  0.0459
  116OSM    H5F12197   2.563   5.942  10.119 -1.5307  2.5334  2.7977
  116OSM    H5G12198   2.747   5.966  10.126  0.7923 -1.9709 -2.7725
  116OSM    C6F12199   2.650   5.975   9.928  0.6012  0.1978  0.0812
  116OSM    H6F12200   2.730   6.030   9.873  0.1882  1.0231  0.3013
  116OSM    H6G12201   2.555   6.009   9.882  0.3567 -0.5437  0.0285
  116OSM    C7F12202   2.674   5.829   9.885  0.3956 -0.0511 -1.1999
  116OSM    H7F12203   2.573   5.786   9.867  0.4173  0.3312 -2.2812
  116OSM    H7G12204   2.727   5.778   9.969  1.0267 -0.6935 -1.9835
  116OSM    C8F12205   2.765   5.819   9.762  0.2748  0.1215 -0.0133
  116OSM    H8F12206   2.794   5.712   9.761 -0.3571 -0.0865  1.5528
  116OSM    H8G12207   2.862   5.872   9.771  1.6608 -2.2730 -0.6316
  116OSM    C9F12208   2.689   5.854   9.635  0.7147 -0.7618 -0.5157
  116OSM    H9F12209   2.580   5.856   9.650  0.8555 -4.2665  1.4391
  116OSM   C10F12210   2.734   5.878   9.516  0.4796  0.1869  0.0536
  116OSM   H10F12211   2.667   5.906   9.433  2.6162  1.4112 -1.3124
  116OSM   C11F12212   2.884   5.874   9.487  0.1569 -0.9348  0.1953
  116OSM   H11F12213   2.935   5.788   9.535 -0.8739 -1.4393  0.3989
  116OSM   H11G12214   2.929   5.970   9.521 -0.6762 -0.1328 -0.9492
  116OSM   C12F12215   2.918   5.861   9.333 -0.1556 -0.0942  0.5709
  116OSM   H12F12216   2.874   5.765   9.298  1.6611 -1.4896  2.0252
  116OSM   H12G12217   3.029   5.860   9.332 -0.1209  0.4439  2.2982
  116OSM   C13F12218   2.886   5.974   9.242  1.1548 -0.4156  0.2434
  116OSM   H13F12219   2.955   6.059   9.258 -0.2126  0.5825  0.9871
  116OSM   H13G12220   2.785   6.009   9.273  1.4711 -1.0745  2.0977
  116OSM   C14F12221   2.890   5.941   9.097  0.6241  0.4167 -0.4152
  116OSM   H14F12222   2.820   5.861   9.065  0.6844  0.1261  0.1853
  116OSM   H14G12223   2.993   5.919   9.064  1.1388  1.5583  0.3804
  116OSM   C15F12224   2.855   6.071   9.014 -0.7474  0.1531 -0.9921
  116OSM   H15F12225   2.915   6.154   9.059 -0.5733  0.1922 -1.2966
  116OSM   H15G12226   2.748   6.093   9.033 -0.4670  1.6302 -1.0009
  116OSM   C16F12227   2.880   6.062   8.863  0.0081 -0.0557  0.2922
  116OSM   H16F12228   2.985   6.028   8.851  0.9362  3.0394 -0.7404
  116OSM   H16G12229   2.870   6.155   8.803  2.1599  0.2835  0.4024
  116OSM   C17F12230   2.786   5.957   8.796 -0.1456  0.3387 -0.4469
  116OSM   H17F12231   2.688   5.974   8.847 -0.0892 -3.8522  1.2379
  116OSM   H17G12232   2.836   5.863   8.825 -1.6128 -0.5514 -0.7345
  116OSM   C18F12233   2.772   5.955   8.642 -0.7736 -0.3035  0.2150
  116OSM   H18F12234   2.720   6.048   8.610 -0.1001  0.5810  1.6188
  116OSM   H18G12235   2.708   5.871   8.607  0.1615 -1.2062  0.6592
  116OSM   H18H12236   2.874   5.949   8.600 -1.5886 -0.3104 -1.8017
  117OSM      N12237   6.711   1.456  11.180  0.5629 -0.0324 -0.0600
  117OSM    C1512238   6.777   1.398  11.305  0.5090 -0.6032  0.1417
  117OSM   H15A12239   6.768   1.463  11.391 -1.0307 -0.5984 -0.0044
  117OSM   H15B12240   6.881   1.372  11.288  0.3691 -0.8694 -0.3021
  117OSM   H15C12241   6.728   1.303  11.323 -0.1314  0.1211  2.4131
  117OSM    C1412242   6.569   1.452  11.205  0.6851 -0.1344  0.4505
  117OSM   H14A12243   6.550   1.532  11.275  0.2429 -0.3784  0.6147
  117OSM   H14B12244   6.549   1.355  11.249 -1.5771 -0.0880 -0.3741
  117OSM   H14C12245   6.509   1.447  11.115  1.0561  2.7724 -0.0025
  117OSM    C1312246   6.757   1.590  11.166  0.0343  0.2332  0.4839
  117OSM   H13A12247   6.864   1.603  11.181 -0.4600  1.6973  3.0247
  117OSM   H13B12248   6.726   1.657  11.245  0.1577 -1.3667  1.9167
  117OSM   H13C12249   6.735   1.636  11.071 -0.4902  0.4473  0.7038
  117OSM    C1212250   6.743   1.373  11.056 -0.2958 -0.0813  0.2045
  117OSM   H12A12251   6.697   1.419  10.969  0.1882 -0.9446 -0.5168
  117OSM   H12B12252   6.694   1.278  11.071 -0.3062 -0.1134 -0.0344
  117OSM    C1112253   6.890   1.346  11.021 -0.6684 -0.4553 -1.0280
  117OSM   H11A12254   6.953   1.436  11.040  0.0243 -1.0420 -0.5091
  117OSM   H11B12255   6.898   1.343  10.910  0.1472  2.7783 -1.1114
  117OSM      P12256   6.897   1.093  11.050  0.4446  0.1963  0.0228
  117OSM    O1312257   6.998   0.995  11.082  0.0881 -0.0581  0.0085
  117OSM    O1412258   6.763   1.058  11.107 -0.0163  0.1641 -0.1667
  117OSM    O1112259   6.889   1.074  10.893  0.2070 -0.1657 -0.1547
  117OSM    O1212260   6.944   1.233  11.086 -0.6682  0.0449 -0.0247
  117OSM    C1S12261   7.012   1.072  10.817  0.6888 -0.6258 -0.2938
  117OSM    H1S12262   7.083   1.001  10.866 -1.7864 -3.1738 -0.2857
  117OSM    H1T12263   7.064   1.170  10.820 -0.1300 -0.1903 -0.2197
  117OSM     NF12264   7.113   1.034  10.604  0.2938 -0.4827  0.8349
  117OSM    HNF12265   7.145   1.116  10.556  0.6106 -0.9451  0.2559
  117OSM    C2S12266   6.988   1.032  10.674 -0.0704  0.8163  0.7812
  117OSM    H2S12267   6.946   0.930  10.663 -0.9612  1.3914 -1.5645
  117OSM    C3S12268   6.875   1.118  10.602 -0.2325  0.3823  0.0129
  117OSM    H3S12269   6.890   1.228  10.606 -1.5287  0.4975  3.2147
  117OSM     O312270   6.743   1.103  10.658 -0.1609 -0.1661  0.2289
  117OSM    HO312271   6.752   1.057  10.741 -0.3151 -0.3445  0.1462
  117OSM    C4S12272   6.861   1.077  10.462  0.3196 -0.3842  0.2555
  117OSM    H4S12273   6.907   1.145  10.388 -0.7999  1.0541  0.8470
  117OSM    C5S12274   6.809   0.958  10.419  0.7606 -0.0910  0.1909
  117OSM    H5S12275   6.775   0.889  10.498 -0.0179  1.0043  0.8196
  117OSM    C6S12276   6.784   0.914  10.279 -0.0647 -0.5797 -0.3191
  117OSM    H6S12277   6.677   0.897  10.256  0.4910 -0.3008 -3.2616
  117OSM    H6T12278   6.823   0.813  10.256 -1.8756 -1.3187 -0.2279
  117OSM    C7S12279   6.838   1.010  10.174 -0.0428 -1.0169 -0.3004
  117OSM    H7S12280   6.941   1.039  10.206  0.3247 -1.7689 -0.7948
  117OSM    H7T12281   6.776   1.102  10.182  0.7054 -0.5616  0.4155
  117OSM    C8S12282   6.839   0.947  10.031 -0.1961  0.0809 -0.2668
  117OSM    H8S12283   6.742   0.967   9.980  0.8037  1.7362 -1.5349
  117OSM    H8T12284   6.862   0.839  10.045  2.3485  0.6911  0.4490
  117OSM    C9S12285   6.952   1.013   9.942  0.1639  0.0965 -0.4182
  117OSM    H9S12286   7.054   1.009   9.986  0.6409  1.7639 -1.3518
  117OSM    H9T12287   6.913   1.116   9.936 -0.2935  0.0556  1.3653
  117OSM   C10S12288   6.959   0.959   9.799  0.0257  0.4321 -0.8440
  117OSM   H10S12289   6.853   0.956   9.766 -0.2237  1.7417 -0.1986
  117OSM   H10T12290   6.996   0.855   9.803 -1.0327  0.0540 -0.6406
  117OSM   C11S12291   7.030   1.036   9.690  0.3811  0.1706 -0.1725
  117OSM   H11S12292   7.132   1.053   9.731 -0.1418  3.3259 -0.0192
  117OSM   H11T12293   6.988   1.139   9.686  3.2688  1.5474  2.5307
  117OSM   C12S12294   7.041   0.965   9.545  0.7490  0.0404  0.1169
  117OSM   H12S12295   7.106   0.875   9.553  1.7935  0.9135  1.9286
  117OSM   H12T12296   7.105   1.027   9.478  1.7721 -0.4796  0.5946
  117OSM   C13S12297   6.903   0.939   9.488  1.0582  0.2844 -0.1128
  117OSM   H13S12298   6.838   1.027   9.507 -1.3399 -1.8250  1.6487
  117OSM   H13T12299   6.858   0.855   9.545  1.7019  0.3712  0.5297
  117OSM   C14S12300   6.917   0.895   9.343  0.0702  0.0566 -0.0624
  117OSM   H14S12301   6.988   0.812   9.323  0.5200 -0.4411  3.2898
  117OSM   H14T12302   6.947   0.987   9.288  0.0000  0.3159  0.3336
  117OSM   C15S12303   6.784   0.876   9.272  0.6788 -0.3782  0.5095
  117OSM   H15S12304   6.722   0.968   9.271  0.2444 -0.6813 -1.9406
  117OSM   H15T12305   6.718   0.795   9.312 -0.0899 -1.0628 -2.0955
  117OSM   C16S12306   6.803   0.834   9.124 -0.4823  0.0283  0.0972
  117OSM   H16S12307   6.806   0.725   9.103 -1.3525  0.3500 -1.8285
  117OSM   H16T12308   6.899   0.873   9.084  0.5200 -0.4354  1.9681
  117OSM   C17S12309   6.693   0.885   9.028  0.1068 -0.1501 -0.9450
  117OSM   H17S12310   6.688   0.996   9.035  3.3202 -0.0431  0.6164
  117OSM   H17T12311   6.600   0.837   9.064  0.9562 -1.0959  0.0323
  117OSM   C18S12312   6.711   0.838   8.883  0.2836  0.8427  0.0673
  117OSM   H18S12313   6.677   0.733   8.869 -0.7655  1.2144 -0.2282
  117OSM   H18T12314   6.813   0.849   8.842 -0.1744  0.0463 -1.3227
  117OSM   H18U12315   6.649   0.897   8.812 -1.6637  1.8212  2.4805
  117OSM    C1F12316   7.209   0.947  10.634 -0.2951  0.3256 -0.5803
  117OSM     OF12317   7.190   0.848  10.706 -0.1372  0.2105  0.0164
  117OSM    C2F12318   7.348   0.978  10.597 -0.7489  0.2545 -0.0267
  117OSM    H2F12319   7.422   0.993  10.678 -0.3192 -0.2317 -0.3202
  117OSM    H2G12320   7.344   1.072  10.537 -1.6172 -0.2171 -0.7189
  117OSM    C3F12321   7.406   0.862  10.512  0.4560 -0.9583  0.4459
  117OSM    H3F12322   7.407   0.764  10.566 -2.9824  0.5832  3.4948
  117OSM    H3G12323   7.510   0.885  10.479 -0.4202  0.8518 -1.0854
  117OSM    C4F12324   7.339   0.842  10.372  0.1337  0.4342 -0.7984
  117OSM    H4F12325   7.233   0.811  10.378  0.1437  0.6379  0.5967
  117OSM    H4G12326   7.399   0.764  10.321  1.7681  2.2086 -1.6680
  117OSM    C5F12327   7.344   0.967  10.278  0.0505  0.2470 -0.1511
  117OSM    H5F12328   7.447   1.006  10.265  0.7137 -1.9480 -1.8395
  117OSM    H5G12329   7.277   1.043  10.324 -0.6932 -1.1759  1.1799
  117OSM    C6F12330   7.277   0.932  10.146  0.2800 -0.5174  0.1789
  117OSM    H6F12331   7.263   1.024  10.085  0.6595 -0.3104  0.4044
  117OSM    H6G12332   7.176   0.898  10.176 -0.0245 -2.3533 -2.6734
  117OSM    C7F12333   7.326   0.811  10.062 -0.3272  0.1175 -0.3865
  117OSM    H7F12334   7.270   0.813   9.967 -0.3624  0.6415 -0.3554
  117OSM    H7G12335   7.301   0.717  10.117  0.3188  0.5412  0.6617
  117OSM    C8F12336   7.477   0.804  10.017 -0.6445 -0.0910  0.8897
  117OSM    H8F12337   7.489   0.708   9.962  1.5954  1.2177 -0.9791
  117OSM    H8G12338   7.542   0.785  10.105  0.3252 -0.1703  0.1704
  117OSM    C9F12339   7.524   0.919   9.937  0.0388  0.2110 -0.4411
  117OSM    H9F12340   7.573   0.991  10.003 -0.7171  0.1010  0.2437
  117OSM   C10F12341   7.507   0.953   9.807 -0.3151  0.4677  0.3739
  117OSM   H10F12342   7.545   1.045   9.762 -0.3549  0.6500  0.7158
  117OSM   C11F12343   7.434   0.866   9.704  0.1802  0.0413  0.2774
  117OSM   H11F12344   7.326   0.887   9.724 -0.4696 -1.5827 -1.4028
  117OSM   H11G12345   7.457   0.763   9.738 -1.8816 -1.0425 -1.4635
  117OSM   C12F12346   7.475   0.886   9.553  0.2095  0.0950 -0.2237
  117OSM   H12F12347   7.460   0.993   9.530  1.4615  0.1143 -0.9662
  117OSM   H12G12348   7.407   0.826   9.489 -0.9143  1.7201 -0.5586
  117OSM   C13F12349   7.615   0.854   9.523 -0.0457 -0.5580 -0.1260
  117OSM   H13F12350   7.638   0.746   9.505 -0.5885 -0.7008  0.0262
  117OSM   H13G12351   7.690   0.893   9.595 -0.3324  0.9387 -0.6316
  117OSM   C14F12352   7.650   0.910   9.384  0.4459  0.0305  0.6115
  117OSM   H14F12353   7.760   0.898   9.371  0.0708 -3.7556  0.3150
  117OSM   H14G12354   7.626   1.018   9.391 -1.2574 -0.4189  2.0792
  117OSM   C15F12355   7.571   0.847   9.263 -0.5650 -0.4565 -0.4012
  117OSM   H15F12356   7.466   0.882   9.273 -0.3084  0.3638 -0.5506
  117OSM   H15G12357   7.573   0.736   9.268 -1.8538 -0.5554 -1.8461
  117OSM   C16F12358   7.641   0.887   9.129 -0.0807 -0.9355 -0.3608
  117OSM   H16F12359   7.749   0.871   9.147 -0.0321 -0.1953  0.0166
  117OSM   H16G12360   7.633   0.996   9.112  1.8750 -0.5950  0.8512
  117OSM   C17F12361   7.599   0.798   9.008  0.2724  0.0928  0.6765
  117OSM   H17F12362   7.492   0.771   9.016  0.8089 -1.5170  3.5452
  117OSM   H17G12363   7.650   0.699   9.017  1.1417  0.5407  0.7557
  117OSM   C18F12364   7.646   0.862   8.874 -0.1952  0.2638 -0.5086
  117OSM   H18F12365   7.589   0.825   8.786  1.0556  2.0132 -2.1058
  117OSM   H18G12366   7.755   0.840   8.861 -0.7124 -2.2924 -0.8181
  117OSM   H18H12367   7.642   0.972   8.888  0.9111  0.1004  1.2911
  118OSM      N12368   1.089   2.682  11.060 -0.0045  0.1579  0.2628
  118OSM    C1512369   0.995   2.796  11.054  0.9848 -1.2448  0.1952
  118OSM   H15A12370   0.983   2.844  11.149 -1.5202 -2.7201  0.6714
  118OSM   H15B12371   0.895   2.765  11.030  1.4246 -2.8425  0.3829
  118OSM   H15C12372   1.031   2.872  10.985 -3.0449  0.8356  0.2538
  118OSM    C1412373   1.232   2.718  11.083  0.6864 -0.1692 -0.1643
  118OSM   H14A12374   1.295   2.631  11.090  0.6187 -0.3932 -2.1233
  118OSM   H14B12375   1.251   2.773  11.174  1.2204  0.2196 -0.5156
  118OSM   H14C12376   1.267   2.772  10.997 -2.9691  0.6111 -1.2575
  118OSM    C1312377   1.030   2.600  11.168 -0.3857 -0.1802  0.1541
  118OSM   H13A12378   0.987   2.661  11.246  0.7322 -0.4726  1.0182
  118OSM   H13B12379   1.099   2.527  11.207 -0.1102  1.0613  2.0683
  118OSM   H13C12380   0.953   2.538  11.125 -0.1576 -0.1452 -0.3063
  118OSM    C1212381   1.084   2.602  10.932  0.0998  0.3741 -0.1641
  118OSM   H12A12382   1.150   2.519  10.951  0.0140  0.9138  2.6501
  118OSM   H12B12383   1.133   2.659  10.854  1.9147 -0.1934  0.5481
  118OSM    C1112384   0.950   2.547  10.877  0.0744  0.4509  0.2074
  118OSM   H11A12385   0.979   2.484  10.790  2.5979  0.1322  1.2259
  118OSM   H11B12386   0.883   2.629  10.846 -3.0094 -0.5785  3.8052
  118OSM      P12387   0.735   2.466  11.007 -0.1362 -0.0366 -0.2836
  118OSM    O1312388   0.714   2.385  11.129 -0.4629 -0.4538  0.7585
  118OSM    O1412389   0.696   2.605  11.017  0.2029 -0.3431  0.1606
  118OSM    O1112390   0.647   2.409  10.892 -0.7770 -0.2843  0.1062
  118OSM    O1212391   0.883   2.446  10.963  0.4744 -0.2635 -0.0228
  118OSM    C1S12392   0.679   2.433  10.753  1.1826  0.1996  0.3174
  118OSM    H1S12393   0.761   2.363  10.728  1.5767  0.4486  0.8968
  118OSM    H1T12394   0.707   2.537  10.731  0.2488  0.3793 -0.0379
  118OSM     NF12395   0.597   2.401  10.531  0.3048 -0.3491 -0.2565
  118OSM    HNF12396   0.580   2.484  10.480  0.3468  1.1385  2.0489
  118OSM    C2S12397   0.560   2.393  10.672 -0.2316 -0.7227 -0.2586
  118OSM    H2S12398   0.516   2.293  10.695 -2.4911 -0.1047 -1.7531
  118OSM    C3S12399   0.449   2.500  10.688  0.6870  0.7662  0.2907
  118OSM    H3S12400   0.494   2.592  10.647  1.7389 -0.7237 -1.9637
  118OSM     O312401   0.416   2.523  10.828  0.0982  0.4400 -0.4484
  118OSM    HO312402   0.493   2.495  10.877 -1.4315  0.7134  2.1695
  118OSM    C4S12403   0.323   2.467  10.616 -0.7457 -0.7651  0.2254
  118OSM    H4S12404   0.253   2.403  10.672 -1.4196 -0.3139 -0.0981
  118OSM    C5S12405   0.296   2.512  10.491  0.5304  0.3307  0.0653
  118OSM    H5S12406   0.369   2.579  10.442  1.8082 -0.1764  1.2148
  118OSM    C6S12407   0.168   2.472  10.417 -0.4145 -0.2214 -1.3558
  118OSM    H6S12408   0.114   2.554  10.364  0.7766  0.9375 -0.8084
  118OSM    H6T12409   0.096   2.424  10.487  1.0011 -0.5769 -0.1125
  118OSM    C7S12410   0.183   2.360  10.307 -0.3177 -0.5478 -0.0307
  118OSM    H7S12411   0.080   2.328  10.281 -0.1057 -2.0373  0.8747
  118OSM    H7T12412   0.230   2.274  10.360  0.3810  0.5238  1.0932
  118OSM    C8S12413   0.258   2.390  10.176  0.4162  0.0155 -0.3842
  118OSM    H8S12414   0.351   2.442  10.205  0.3474  1.7067 -3.0552
  118OSM    H8T12415   0.206   2.472  10.121  0.9388  0.9673  0.5263
  118OSM    C9S12416   0.267   2.268  10.081  0.0149  0.3234  0.2845
  118OSM    H9S12417   0.164   2.228  10.082 -0.5510  1.7038 -0.7261
  118OSM    H9T12418   0.332   2.190  10.127 -0.3414 -0.1489 -0.0093
  118OSM   C10S12419   0.302   2.306   9.936 -0.9625  0.2992  0.4118
  118OSM   H10S12420   0.406   2.344   9.932 -0.2174 -1.8719 -2.0215
  118OSM   H10T12421   0.255   2.404   9.912  0.0246  1.0989  1.6417
  118OSM   C11S12422   0.258   2.198   9.835  0.5775  0.0701  0.0142
  118OSM   H11S12423   0.154   2.168   9.861  0.6880  0.8874  1.4706
  118OSM   H11T12424   0.330   2.113   9.838 -0.2310 -0.6371 -0.3959
  118OSM   C12S12425   0.266   2.244   9.690 -0.0498  0.0581 -0.0799
  118OSM   H12S12426   0.370   2.283   9.686  0.3469 -1.1137 -1.7313
  118OSM   H12T12427   0.211   2.340   9.678 -0.3736 -0.1230 -0.0399
  118OSM   C13S12428   0.231   2.139   9.588 -0.0556 -0.0364 -0.2108
  118OSM   H13S12429   0.122   2.118   9.599 -0.5272  1.9613 -0.8644
  118OSM   H13T12430   0.290   2.051   9.622  1.9881  1.5196  0.3213
  118OSM   C14S12431   0.262   2.173   9.444  0.0420 -0.1434  0.2553
  118OSM   H14S12432   0.373   2.180   9.443  0.0494 -0.3018 -0.1116
  118OSM   H14T12433   0.220   2.267   9.403 -1.6958 -1.0064 -0.0068
  118OSM   C15S12434   0.225   2.055   9.346  0.6073  0.0163  0.7961
  118OSM   H15S12435   0.114   2.057   9.334  0.6846 -0.8576 -0.1089
  118OSM   H15T12436   0.234   1.962   9.406  0.8409 -1.2175 -1.1176
  118OSM   C16S12437   0.303   2.046   9.214  0.4465  0.7712 -0.4934
  118OSM   H16S12438   0.251   1.980   9.141 -0.6363 -2.4623  3.0401
  118OSM   H16T12439   0.400   1.994   9.228  0.0352  0.1235  0.0165
  118OSM   C17S12440   0.325   2.184   9.155 -0.0580 -0.1630  0.8835
  118OSM   H17S12441   0.385   2.254   9.217 -0.1910 -0.0567  0.8924
  118OSM   H17T12442   0.231   2.242   9.141  1.2021  1.4491 -1.3147
  118OSM   C18S12443   0.391   2.178   9.015 -0.1739  0.3671 -0.2200
  118OSM   H18S12444   0.484   2.118   9.021  0.2937  1.0850 -0.3229
  118OSM   H18T12445   0.407   2.278   8.970  0.1497  0.6230  0.4676
  118OSM   H18U12446   0.317   2.124   8.951  1.1052 -2.3615  0.5205
  118OSM    C1F12447   0.650   2.290  10.471  0.1501  0.3484 -0.0065
  118OSM     OF12448   0.665   2.188  10.532 -0.2395  0.4170 -0.3076
  118OSM    C2F12449   0.698   2.304  10.329  0.1240  0.2494  0.0905
  118OSM    H2F12450   0.777   2.382  10.333  1.0758 -0.5529 -2.2509
  118OSM    H2G12451   0.620   2.347  10.262  0.0028 -1.9462 -1.2158
  118OSM    C3F12452   0.746   2.167  10.268 -0.0863  0.2373 -0.3821
  118OSM    H3F12453   0.657   2.103  10.281  0.1782  0.2228  1.5687
  118OSM    H3G12454   0.832   2.132  10.330  1.5940  0.5343 -2.4791
  118OSM    C4F12455   0.798   2.177  10.123  0.5726 -0.8529  0.3888
  118OSM    H4F12456   0.825   2.076  10.087 -2.0512 -1.1523 -0.8117
  118OSM    H4G12457   0.892   2.236  10.123  0.4369 -0.6277 -1.4207
  118OSM    C5F12458   0.712   2.262  10.023 -0.0465 -0.1504  0.0700
  118OSM    H5F12459   0.714   2.367  10.059 -0.3815  0.2733 -1.1168
  118OSM    H5G12460   0.610   2.217  10.023  0.2936 -1.0228  2.5787
  118OSM    C6F12461   0.762   2.263   9.875 -0.4006 -0.0931  0.0969
  118OSM    H6F12462   0.754   2.154   9.860  0.1006 -0.3354  1.4961
  118OSM    H6G12463   0.865   2.304   9.868 -0.3280 -0.2101  0.4946
  118OSM    C7F12464   0.669   2.335   9.768 -0.0199  0.2644 -0.1486
  118OSM    H7F12465   0.656   2.442   9.793  0.0012 -0.4829  3.2948
  118OSM    H7G12466   0.572   2.281   9.769  0.2907 -0.2999  0.0148
  118OSM    C8F12467   0.730   2.325   9.628  0.2100 -0.8017  0.0764
  118OSM    H8F12468   0.645   2.308   9.559 -0.2683  1.4676  0.0773
  118OSM    H8G12469   0.783   2.228   9.633  2.0097  0.1785  0.5144
  118OSM    C9F12470   0.825   2.437   9.598  0.1467  0.0256  0.1971
  118OSM    H9F12471   0.886   2.467   9.684  1.7506  2.2413 -1.6561
  118OSM   C10F12472   0.837   2.505   9.487  0.3153 -0.2606  0.7653
  118OSM   H10F12473   0.917   2.580   9.475  1.1324 -1.2738 -0.1832
  118OSM   C11F12474   0.757   2.482   9.362  0.0966 -0.0438  0.9076
  118OSM   H11F12475   0.686   2.566   9.348 -2.9993 -2.7846 -0.4907
  118OSM   H11G12476   0.694   2.390   9.358  1.7969 -1.1908 -0.2103
  118OSM   C12F12477   0.837   2.474   9.236 -0.6832 -1.1052  0.1765
  118OSM   H12F12478   0.778   2.429   9.153  0.3824  2.3719 -2.6105
  118OSM   H12G12479   0.933   2.419   9.250  1.4776  2.7177  1.0954
  118OSM   C13F12480   0.885   2.615   9.188  0.2686  0.3504 -0.2521
  118OSM   H13F12481   0.961   2.603   9.108  1.2360  0.0625  0.6975
  118OSM   H13G12482   0.921   2.680   9.271  1.1112 -1.5130  0.8876
  118OSM   C14F12483   0.763   2.694   9.137 -0.4207  0.5347 -0.0603
  118OSM   H14F12484   0.714   2.719   9.233 -0.7739  1.3068 -0.4269
  118OSM   H14G12485   0.702   2.627   9.073  0.3433 -1.6038  1.4354
  118OSM   C15F12486   0.786   2.828   9.067  0.4028 -0.3803 -0.1274
  118OSM   H15F12487   0.819   2.904   9.140 -3.8058  0.1449  1.3555
  118OSM   H15G12488   0.688   2.861   9.028  1.4471  2.4014 -0.5268
  118OSM   C16F12489   0.873   2.819   8.948  0.0315 -1.3408  0.4211
  118OSM   H16F12490   0.969   2.781   8.989 -1.7559 -3.6350  2.7142
  118OSM   H16G12491   0.872   2.926   8.916 -0.3007 -1.3805  0.2993
  118OSM   C17F12492   0.815   2.730   8.839 -0.5091 -0.3020 -0.5966
  118OSM   H17F12493   0.706   2.728   8.856 -0.1053  1.2228  2.5304
  118OSM   H17G12494   0.847   2.627   8.867  2.2188  1.0521  1.5490
  118OSM   C18F12495   0.872   2.746   8.696  0.6792 -0.2822 -0.8584
  118OSM   H18F12496   0.864   2.851   8.660  0.3839 -0.5471 -1.5744
  118OSM   H18G12497   0.830   2.682   8.616  0.6362 -1.3942  0.0351
  118OSM   H18H12498   0.980   2.723   8.692  1.0861  1.1224  0.9740
  119OSM      N12499   1.809   0.793  10.769  0.0044 -0.4061  0.4983
  119OSM    C1512500   1.835   0.700  10.654 -0.2932  0.3354 -0.6200
  119OSM   H15A12501   1.881   0.613  10.699 -0.6906 -0.0497 -0.9546
  119OSM   H15B12502   1.900   0.748  10.581 -1.6535  1.3539 -1.1792
  119OSM   H15C12503   1.743   0.662  10.612 -0.4533  1.4326 -1.2935
  119OSM    C1412504   1.748   0.714  10.883 -0.3345  0.0616 -0.2289
  119OSM   H14A12505   1.810   0.633  10.919 -0.6828  0.7865  2.0880
  119OSM   H14B12506   1.654   0.665  10.861 -0.9594  0.8188  0.6828
  119OSM   H14C12507   1.741   0.784  10.965  0.2429  0.0158 -0.1397
  119OSM    C1312508   1.943   0.833  10.815 -0.1514  0.5162 -0.2856
  119OSM   H13A12509   1.992   0.905  10.750  1.9924  0.4030  1.1410
  119OSM   H13B12510   2.009   0.749  10.831 -0.1935  0.8191  1.5331
  119OSM   H13C12511   1.933   0.878  10.912 -1.0498 -2.8770  1.2712
  119OSM    C1212512   1.724   0.909  10.718  0.3918 -0.1808 -0.8118
  119OSM   H12A12513   1.627   0.866  10.702 -0.3352 -0.2248  3.1444
  119OSM   H12B12514   1.756   0.945  10.622 -1.6334  1.4446 -0.8977
  119OSM    C1112515   1.695   1.030  10.813 -0.3180 -0.5104 -0.4535
  119OSM   H11A12516   1.634   1.112  10.767  2.5070  2.1310  0.3312
  119OSM   H11B12517   1.788   1.084  10.838  0.6359 -1.0794 -2.6418
  119OSM      P12518   1.473   0.982  10.940  0.1796 -0.1140 -0.0956
  119OSM    O1312519   1.428   0.873  11.030  0.0473  0.1929 -0.2949
  119OSM    O1412520   1.425   1.120  10.975  0.0085  0.4732 -0.1676
  119OSM    O1112521   1.434   0.954  10.793  0.4771  0.3588  0.1886
  119OSM    O1212522   1.635   0.971  10.932 -0.1673 -0.6621  0.4867
  119OSM    C1S12523   1.296   0.965  10.753 -0.5906  0.2105 -0.4577
  119OSM    H1S12524   1.228   1.010  10.828 -2.1527  0.0956 -1.7921
  119OSM    H1T12525   1.250   0.867  10.729 -2.6160  0.8829  0.5449
  119OSM     NF12526   1.150   1.066  10.592  0.2917  0.5706  0.9845
  119OSM    HNF12527   1.097   1.008  10.531 -0.1743  0.9713  0.9993
  119OSM    C2S12528   1.288   1.050  10.620  0.1698 -0.0506 -0.4180
  119OSM    H2S12529   1.324   1.154  10.632 -0.7349  0.2990 -0.6715
  119OSM    C3S12530   1.371   0.981  10.508  0.7194 -1.3311 -0.3868
  119OSM    H3S12531   1.329   0.880  10.488 -0.1767 -0.5953 -2.4150
  119OSM     O312532   1.502   0.965  10.541  0.0850  0.3204 -0.5653
  119OSM    HO312533   1.500   0.978  10.636 -1.6862 -0.3070 -0.5027
  119OSM    C4S12534   1.375   1.063  10.376 -0.0565  0.5597 -0.7713
  119OSM    H4S12535   1.364   1.172  10.385 -0.5513  0.5510 -1.2313
  119OSM    C5S12536   1.379   1.006  10.257 -0.4070 -0.5617 -0.4871
  119OSM    H5S12537   1.378   0.896  10.248 -1.7371 -0.5416 -0.5810
  119OSM    C6S12538   1.366   1.089  10.127 -0.2837  0.5496 -0.4847
  119OSM    H6S12539   1.305   1.180  10.147 -1.4863 -0.5307  0.8752
  119OSM    H6T12540   1.340   1.025  10.039 -1.3196 -0.8436  0.8067
  119OSM    C7S12541   1.509   1.162  10.094  0.1933  0.5840 -0.4199
  119OSM    H7S12542   1.576   1.077  10.069 -2.0030 -1.0246 -0.9223
  119OSM    H7T12543   1.543   1.215  10.186 -0.2526 -0.0199  0.0918
  119OSM    C8S12544   1.505   1.264   9.981 -0.1304  0.3007  1.1167
  119OSM    H8S12545   1.426   1.335  10.011 -2.3557 -0.9360 -1.6606
  119OSM    H8T12546   1.465   1.216   9.890 -2.0037  0.9555  1.5780
  119OSM    C9S12547   1.631   1.345   9.955 -0.2483  0.0526 -0.2596
  119OSM    H9S12548   1.707   1.268   9.928 -0.3423 -0.5316  1.1377
  119OSM    H9T12549   1.661   1.402  10.045  4.0168 -0.8312 -1.0134
  119OSM   C10S12550   1.608   1.457   9.846 -0.5665  0.1202 -0.6820
  119OSM   H10S12551   1.689   1.532   9.863  0.0873 -0.8146  0.3641
  119OSM   H10T12552   1.514   1.512   9.866 -0.8573  0.4679 -2.9156
  119OSM   C11S12553   1.627   1.396   9.708 -0.0253  0.5948  0.1921
  119OSM   H11S12554   1.580   1.295   9.703  0.0288  0.4872  1.6799
  119OSM   H11T12555   1.732   1.363   9.696  0.5930  3.0448 -1.3545
  119OSM   C12S12556   1.579   1.490   9.593 -0.4546  0.4474  0.1342
  119OSM   H12S12557   1.645   1.576   9.571 -0.2637  0.5759  1.2074
  119OSM   H12T12558   1.480   1.524   9.631 -1.3783 -3.3073  1.2700
  119OSM   C13S12559   1.556   1.405   9.465 -0.2545  1.0411  0.1444
  119OSM   H13S12560   1.510   1.310   9.499  1.4832 -1.0458 -3.0964
  119OSM   H13T12561   1.661   1.377   9.440  0.3623  3.0696  0.3531
  119OSM   C14S12562   1.483   1.473   9.351 -0.0757 -0.7014  0.5258
  119OSM   H14S12563   1.378   1.495   9.380  0.0482 -0.5738  0.8796
  119OSM   H14T12564   1.480   1.408   9.260 -1.9968  2.1601 -1.5444
  119OSM   C15S12565   1.550   1.601   9.296  0.2403  0.8341 -0.1497
  119OSM   H15S12566   1.568   1.668   9.383  0.0026  0.3639  0.2645
  119OSM   H15T12567   1.478   1.653   9.231  0.1458  0.6420 -0.1995
  119OSM   C16S12568   1.670   1.567   9.209 -0.3856 -0.0209 -0.3052
  119OSM   H16S12569   1.750   1.522   9.271 -1.2728  1.1666  1.7471
  119OSM   H16T12570   1.711   1.664   9.173  0.7306  0.1173  1.2668
  119OSM   C17S12571   1.642   1.496   9.084  0.5853  0.0694  0.0138
  119OSM   H17S12572   1.555   1.529   9.022  0.1179 -3.9638 -1.6450
  119OSM   H17T12573   1.630   1.385   9.089  1.2006  0.0652  1.7431
  119OSM   C18S12574   1.761   1.525   8.988 -0.0660  0.5329  0.3206
  119OSM   H18S12575   1.745   1.477   8.889  0.4183 -0.6839  0.8181
  119OSM   H18T12576   1.847   1.472   9.035  0.1108  0.2698 -0.2981
  119OSM   H18U12577   1.782   1.631   8.963  0.2886  0.7687  1.5596
  119OSM    C1F12578   1.076   1.158  10.652  0.0213  0.3285  0.0727
  119OSM     OF12579   1.123   1.228  10.741  0.1644  0.6996 -0.0837
  119OSM    C2F12580   0.928   1.153  10.624  0.6731 -0.0774 -0.0104
  119OSM    H2F12581   0.879   1.248  10.654  1.9667  0.3342  0.8579
  119OSM    H2G12582   0.890   1.079  10.698 -0.7908  0.5528 -0.1185
  119OSM    C3F12583   0.892   1.122  10.479  0.0453  0.1081 -0.3277
  119OSM    H3F12584   0.784   1.149  10.480 -0.5280 -2.0583 -0.5026
  119OSM    H3G12585   0.898   1.018  10.439 -1.2743  0.6370 -1.9395
  119OSM    C4F12586   0.961   1.216  10.379  0.5708  0.0140  0.5459
  119OSM    H4F12587   1.070   1.195  10.373  0.9358  1.3995  2.0281
  119OSM    H4G12588   0.951   1.317  10.425  0.3286 -0.6723  2.0147
  119OSM    C5F12589   0.897   1.222  10.238 -0.3568 -0.9306 -0.0696
  119OSM    H5F12590   0.794   1.258  10.262  0.4085  2.1548 -1.1824
  119OSM    H5G12591   0.882   1.124  10.189  2.0718 -0.5295 -1.6461
  119OSM    C6F12592   0.979   1.300  10.134  0.6135 -0.0013  0.3700
  119OSM    H6F12593   1.074   1.246  10.113  1.6902  2.2039 -0.6435
  119OSM    H6G12594   0.997   1.397  10.186 -2.0604  0.8350 -0.1588
  119OSM    C7F12595   0.900   1.311  10.005 -0.1407 -0.2691 -0.1978
  119OSM    H7F12596   0.797   1.345  10.028 -0.9963 -1.1675 -2.4973
  119OSM    H7G12597   0.883   1.209   9.964 -2.3573  0.4131 -1.0288
  119OSM    C8F12598   0.967   1.393   9.890  0.0555  1.1637  0.7583
  119OSM    H8F12599   0.933   1.499   9.892 -2.1232  0.4591  2.2224
  119OSM    H8G12600   0.924   1.345   9.799  0.1031  0.2493  1.2160
  119OSM    C9F12601   1.116   1.383   9.877 -0.7613  0.3610  0.4499
  119OSM    H9F12602   1.178   1.421   9.960  0.4396 -0.9865  0.1966
  119OSM   C10F12603   1.184   1.324   9.772 -0.4438 -0.4894 -0.0608
  119OSM   H10F12604   1.294   1.322   9.779 -0.1891  0.6885 -2.9290
  119OSM   C11F12605   1.120   1.254   9.655 -0.0831 -0.7315 -0.8735
  119OSM   H11F12606   1.079   1.329   9.584  0.7492  1.3817  0.8228
  119OSM   H11G12607   1.036   1.191   9.694 -0.0499  1.1571  2.5145
  119OSM   C12F12608   1.218   1.165   9.580 -0.5100 -0.4041  0.1398
  119OSM   H12F12609   1.306   1.221   9.542 -0.6141 -0.5944 -0.3831
  119OSM   H12G12610   1.163   1.139   9.487 -0.9961 -0.0930  0.3376
  119OSM   C13F12611   1.256   1.051   9.669  0.0268  0.0378  0.7162
  119OSM   H13F12612   1.157   1.013   9.701 -0.4685  0.8526  0.1695
  119OSM   H13G12613   1.308   1.085   9.761  3.1364  0.1583 -1.0048
  119OSM   C14F12614   1.340   0.941   9.599  0.3788  0.3865  0.5509
  119OSM   H14F12615   1.319   0.935   9.490  2.1150  0.2914  0.2032
  119OSM   H14G12616   1.324   0.837   9.635  2.5182 -0.0811  0.1778
  119OSM   C15F12617   1.489   0.968   9.626  0.7296  0.3702 -0.0724
  119OSM   H15F12618   1.506   0.944   9.733 -1.9138  2.1725  0.8007
  119OSM   H15G12619   1.500   1.078   9.610  0.8639  0.1868 -1.2446
  119OSM   C16F12620   1.586   0.877   9.554  0.3845  0.4648 -0.2511
  119OSM   H16F12621   1.589   0.915   9.450  2.6211  0.6457 -0.1565
  119OSM   H16G12622   1.543   0.775   9.551  1.2829  0.0413  0.8586
  119OSM   C17F12623   1.726   0.867   9.610 -0.2109  0.7736 -0.0066
  119OSM   H17F12624   1.797   0.811   9.545 -1.0093  1.1762 -1.2425
  119OSM   H17G12625   1.724   0.806   9.703 -0.9684  1.1544  0.2261
  119OSM   C18F12626   1.799   0.994   9.647  0.1395  0.2766  0.0867
  119OSM   H18F12627   1.771   1.042   9.743  0.2016  0.0050  0.2403
  119OSM   H18G12628   1.779   1.066   9.565 -0.9644 -0.9802 -0.7585
  119OSM   H18H12629   1.909   0.982   9.656  0.3830  2.9339  1.3849
  120OSM      N12630   6.456   4.833  10.590  0.0059 -0.5785  0.0649
  120OSM    C1512631   6.481   4.715  10.670  0.1939 -0.1158  0.6419
  120OSM   H15A12632   6.402   4.667  10.725  1.4139 -2.1342  0.6913
  120OSM   H15B12633   6.562   4.729  10.740  0.7850 -0.4481  0.0346
  120OSM   H15C12634   6.527   4.639  10.608  3.2688  1.0013  1.4418
  120OSM    C1412635   6.371   4.806  10.468  0.4860 -0.2629 -0.0397
  120OSM   H14A12636   6.372   4.896  10.408 -4.5819  1.6705  2.5574
  120OSM   H14B12637   6.273   4.767  10.491 -1.7007  2.9655 -3.2428
  120OSM   H14C12638   6.413   4.737  10.395  2.2639  0.6240  0.1122
  120OSM    C1312639   6.381   4.934  10.674  0.2230 -0.3673  0.1067
  120OSM   H13A12640   6.296   4.889  10.722  0.2830  0.2572  0.8114
  120OSM   H13B12641   6.346   5.013  10.609  2.6449 -0.1575 -1.0281
  120OSM   H13C12642   6.436   4.988  10.750 -0.9344 -0.3746  0.9589
  120OSM    C1212643   6.580   4.901  10.537  0.6846 -0.5212  0.4795
  120OSM   H12A12644   6.621   4.944  10.627 -3.3207  0.6772  1.8335
  120OSM   H12B12645   6.566   4.989  10.477 -3.1258 -2.7248 -2.1190
  120OSM    C1112646   6.675   4.810  10.456  0.2651  0.3355  0.1759
  120OSM   H11A12647   6.739   4.877  10.394 -0.4651  1.8021  0.9830
  120OSM   H11B12648   6.616   4.746  10.387  0.2766 -1.8352  2.1258
  120OSM      P12649   6.858   4.617  10.491  0.5814  0.3391 -0.2444
  120OSM    O1312650   6.991   4.636  10.562  0.3693  0.3725 -0.0897
  120OSM    O1412651   6.783   4.486  10.496  0.2057 -0.6311 -0.0057
  120OSM    O1112652   6.890   4.656  10.336  0.2077 -0.2512  0.7131
  120OSM    O1212653   6.761   4.733  10.540 -0.5977  0.1370 -0.3767
  120OSM    C1S12654   6.982   4.763  10.312 -0.2929 -0.4235  0.4050
  120OSM    H1S12655   7.075   4.722  10.356  0.6928  0.6835 -0.6260
  120OSM    H1T12656   6.954   4.857  10.364 -0.3735  0.6539 -1.5390
  120OSM     NF12657   7.129   4.849  10.143  0.1799  0.0972 -0.7965
  120OSM    HNF12658   7.130   4.946  10.119  2.3554  0.3770  0.2791
  120OSM    C2S12659   7.005   4.778  10.164 -0.1309  0.6367 -0.3581
  120OSM    H2S12660   7.017   4.679  10.115 -1.1684  0.1014  0.4285
  120OSM    C3S12661   6.878   4.847  10.101  0.5359  0.2757  0.3672
  120OSM    H3S12662   6.862   4.946  10.148 -0.9604  0.4400 -0.4671
  120OSM     O312663   6.756   4.774  10.109  0.1409 -0.2430  0.7833
  120OSM    HO312664   6.776   4.702  10.168  1.9863  0.5582  1.1687
  120OSM    C4S12665   6.906   4.869   9.951  0.1977  0.8508 -0.1488
  120OSM    H4S12666   6.910   4.976   9.926  1.2727  1.0785  0.9220
  120OSM    C5S12667   6.918   4.772   9.864  0.4847  0.4006 -0.5214
  120OSM    H5S12668   6.903   4.668   9.898  3.5214 -0.1459 -0.7294
  120OSM    C6S12669   6.931   4.793   9.711 -0.9784 -0.7969 -0.1085
  120OSM    H6S12670   6.831   4.771   9.669 -1.7499  1.4108  0.5329
  120OSM    H6T12671   7.005   4.716   9.680  0.2644 -0.7138  2.4586
  120OSM    C7S12672   6.985   4.932   9.656  0.5922 -0.4474 -0.3442
  120OSM    H7S12673   7.067   4.961   9.726 -1.0105 -0.8625  1.7457
  120OSM    H7T12674   6.906   5.009   9.670 -0.0560 -1.2341  0.3531
  120OSM    C8S12675   7.037   4.929   9.514  0.1008  0.0550  0.3047
  120OSM    H8S12676   7.106   4.842   9.505  1.9109  1.1877  2.7720
  120OSM    H8T12677   7.102   5.016   9.490  1.7661 -0.4469  2.8193
  120OSM    C9S12678   6.920   4.908   9.420  0.4150  0.0482  0.1936
  120OSM    H9S12679   6.846   4.989   9.438 -0.0713  0.0329 -1.5769
  120OSM    H9T12680   6.867   4.813   9.442  1.7790 -0.4392  1.4395
  120OSM   C10S12681   6.965   4.917   9.266 -0.0789 -0.1341  0.0549
  120OSM   H10S12682   7.028   4.825   9.262  0.5052  0.1874  1.5216
  120OSM   H10T12683   7.012   5.015   9.243 -1.6921  0.1361 -2.1990
  120OSM   C11S12684   6.839   4.900   9.177  0.0185 -0.7112  0.1676
  120OSM   H11S12685   6.775   4.985   9.208 -0.3875 -0.5744 -1.0408
  120OSM   H11T12686   6.783   4.806   9.196 -0.6765 -0.3601 -0.1524
  120OSM   C12S12687   6.867   4.939   9.031 -0.7027  0.0724 -0.4051
  120OSM   H12S12688   6.951   4.876   8.995 -2.0069 -1.0950 -1.4569
  120OSM   H12T12689   6.901   5.045   9.033  0.6601 -0.3594  0.4292
  120OSM   C13S12690   6.750   4.916   8.939 -0.0054  1.2265 -0.6139
  120OSM   H13S12691   6.676   4.972   9.000  0.1803  0.6008  0.1917
  120OSM   H13T12692   6.722   4.809   8.939  0.3825  1.0784  2.3789
  120OSM   C14S12693   6.772   4.971   8.803 -0.2280  0.4188  0.1706
  120OSM   H14S12694   6.843   4.900   8.756 -1.8508 -1.9530  1.1996
  120OSM   H14T12695   6.825   5.067   8.816  0.0923  0.0553  1.5944
  120OSM   C15S12696   6.641   4.994   8.722  0.6296  0.9097  0.2129
  120OSM   H15S12697   6.574   5.075   8.759  0.9989  1.1807  0.2854
  120OSM   H15T12698   6.577   4.903   8.725  0.0859  1.2085 -1.5621
  120OSM   C16S12699   6.667   5.012   8.575  0.6224 -0.1725  0.1702
  120OSM   H16S12700   6.734   4.927   8.547 -2.0008 -2.5622  0.9798
  120OSM   H16T12701   6.710   5.114   8.561  1.8416 -0.7592 -0.4332
  120OSM   C17S12702   6.536   5.013   8.494  0.4098 -0.0542  0.3687
  120OSM   H17S12703   6.483   5.105   8.526  3.7889  1.5560  1.5840
  120OSM   H17T12704   6.473   4.926   8.520 -0.1213  0.0143 -0.6529
  120OSM   C18S12705   6.564   5.013   8.345  0.0858 -0.0128 -0.5492
  120OSM   H18S12706   6.615   4.916   8.325 -1.1912 -0.3304 -2.3744
  120OSM   H18T12707   6.637   5.087   8.306  0.8011  0.2943  1.3232
  120OSM   H18U12708   6.474   5.020   8.281 -1.3352 -2.5555  1.0768
  120OSM    C1F12709   7.254   4.807  10.166  0.3016 -0.0420  0.2953
  120OSM     OF12710   7.279   4.696  10.196  0.3883  0.5881  0.4425
  120OSM    C2F12711   7.361   4.919  10.158 -0.1062  0.1851  0.4511
  120OSM    H2F12712   7.409   4.941  10.256  0.1119  2.7245 -0.1841
  120OSM    H2G12713   7.312   4.996  10.095 -1.9061 -1.5423 -0.3069
  120OSM    C3F12714   7.476   4.869  10.065 -0.1461  0.3311 -0.1386
  120OSM    H3F12715   7.511   4.779  10.120 -0.8951 -0.0063 -0.2179
  120OSM    H3G12716   7.566   4.935  10.074  0.1488 -0.0476 -0.3091
  120OSM    C4F12717   7.444   4.844   9.916 -0.5430 -0.0099 -0.8433
  120OSM    H4F12718   7.358   4.774   9.913  0.5037 -1.2522 -3.2687
  120OSM    H4G12719   7.533   4.794   9.874 -1.0332 -1.2430 -0.4353
  120OSM    C5F12720   7.416   4.969   9.834  0.0878  0.1974 -0.3236
  120OSM    H5F12721   7.498   5.040   9.858 -0.4916  1.0975 -0.9607
  120OSM    H5G12722   7.325   5.019   9.872  0.6783  0.5836  0.6087
  120OSM    C6F12723   7.417   4.939   9.685 -0.3248 -0.0580 -0.3774
  120OSM    H6F12724   7.389   5.029   9.626  0.2968 -0.0556 -0.6732
  120OSM    H6G12725   7.331   4.881   9.646 -0.3542  1.0535 -1.9942
  120OSM    C7F12726   7.545   4.882   9.630 -0.0710 -0.0652 -0.0134
  120OSM    H7F12727   7.562   4.773   9.642  1.2811  0.0884 -0.3877
  120OSM    H7G12728   7.632   4.938   9.671 -0.7530  1.0881 -0.1361
  120OSM    C8F12729   7.562   4.906   9.475  0.6056  0.1423 -0.1011
  120OSM    H8F12730   7.671   4.892   9.459  0.5729  1.0284 -1.1178
  120OSM    H8G12731   7.540   5.014   9.461  3.1962  0.4130 -2.3814
  120OSM    C9F12732   7.490   4.792   9.397  0.7735 -0.2077  0.1472
  120OSM    H9F12733   7.520   4.689   9.420 -0.9845 -1.0462 -1.2088
  120OSM   C10F12734   7.391   4.796   9.300  0.3837  0.1479 -0.2121
  120OSM   H10F12735   7.338   4.703   9.277 -0.5232  0.6586 -0.2096
  120OSM   C11F12736   7.337   4.921   9.235  0.4428  0.1120 -0.0676
  120OSM   H11F12737   7.310   4.993   9.315 -2.3913 -0.3318 -0.5828
  120OSM   H11G12738   7.243   4.888   9.186  1.1960 -2.0177 -0.1514
  120OSM   C12F12739   7.428   4.977   9.132  0.5212 -0.5403 -0.0191
  120OSM   H12F12740   7.372   5.053   9.074  2.0694  0.6067 -0.0460
  120OSM   H12G12741   7.451   4.896   9.059 -0.0465  0.2292 -1.0778
  120OSM   C13F12742   7.556   5.049   9.169 -0.2569  0.2953  0.0547
  120OSM   H13F12743   7.637   4.989   9.214 -1.3728 -1.4212 -0.1659
  120OSM   H13G12744   7.526   5.135   9.233 -1.5972  0.1386 -0.3467
  120OSM   C14F12745   7.624   5.120   9.053  0.8829 -0.0837 -0.1825
  120OSM   H14F12746   7.702   5.187   9.095  1.0427 -0.6029  0.3659
  120OSM   H14G12747   7.550   5.171   8.989  0.4988  0.0535  0.3683
  120OSM   C15F12748   7.685   5.028   8.952 -0.0752 -0.3471  0.1868
  120OSM   H15F12749   7.609   5.014   8.872 -1.7701 -0.6802  1.8131
  120OSM   H15G12750   7.703   4.934   9.008  0.0682  0.8954  2.2482
  120OSM   C16F12751   7.815   5.074   8.882 -0.0225  1.0126  0.2366
  120OSM   H16F12752   7.863   4.991   8.826  1.2117  1.5168  0.5242
  120OSM   H16G12753   7.890   5.102   8.960  1.7165 -0.7481 -0.7494
  120OSM   C17F12754   7.791   5.192   8.781 -0.3649  0.5426  0.2115
  120OSM   H17F12755   7.774   5.288   8.836 -0.3125 -0.5537  2.1898
  120OSM   H17G12756   7.698   5.169   8.725  1.0957  0.0533 -2.0654
  120OSM   C18F12757   7.898   5.213   8.667  0.8348  0.0905 -0.5626
  120OSM   H18F12758   7.866   5.301   8.607 -1.7108 -0.0635  0.4993
  120OSM   H18G12759   7.915   5.122   8.605 -1.7171  0.1511 -1.4249
  120OSM   H18H12760   7.998   5.228   8.713  0.2691 -2.0691  1.4704
  121OSM      N12761   5.958   0.675  10.889  0.2161 -0.3619  0.1457
  121OSM    C1512762   5.925   0.798  10.959 -0.2641  0.2783  0.4490
  121OSM   H15A12763   5.995   0.812  11.040  0.4277 -0.5494  0.0024
  121OSM   H15B12764   5.822   0.795  10.992 -0.4234  1.2799  0.0667
  121OSM   H15C12765   5.933   0.878  10.886  0.8032  0.2244  0.5098
  121OSM    C1412766   5.934   0.557  10.980  0.1011  0.0861  0.4728
  121OSM   H14A12767   5.973   0.578  11.078 -0.0734 -2.9667  1.2455
  121OSM   H14B12768   5.973   0.466  10.938  1.7712  0.7866  0.4903
  121OSM   H14C12769   5.828   0.541  10.995  0.2624 -1.2538  0.2262
  121OSM    C1312770   5.868   0.657  10.772  0.1706 -0.2957  0.2401
  121OSM   H13A12771   5.899   0.565  10.725  1.2038  0.3462 -0.3662
  121OSM   H13B12772   5.874   0.737  10.700  0.4529 -0.7285 -0.2162
  121OSM   H13C12773   5.763   0.653  10.797  0.1625 -1.5044  0.0220
  121OSM    C1212774   6.104   0.679  10.843  0.0615  0.0821  0.2907
  121OSM   H12A12775   6.120   0.751  10.764 -0.0733  0.6501  0.7758
  121OSM   H12B12776   6.133   0.588  10.794 -3.0811  0.5522 -2.6196
  121OSM    C1112777   6.210   0.707  10.953  0.6204 -0.0538  0.5103
  121OSM   H11A12778   6.309   0.688  10.906  0.0707 -2.1416  0.1325
  121OSM   H11B12779   6.200   0.633  11.035  2.2407  0.9990  1.6789
  121OSM      P12780   6.312   0.893  11.089  0.1670  0.8394 -0.1338
  121OSM    O1312781   6.253   0.959  11.207  0.2439  0.1083  0.0698
  121OSM    O1412782   6.416   0.791  11.120 -0.1170 -0.1619 -0.0693
  121OSM    O1112783   6.386   1.003  11.008  0.0561  0.0982 -0.7714
  121OSM    O1212784   6.209   0.840  10.992 -0.0429  0.2779  0.0229
  121OSM    C1S12785   6.442   0.974  10.879 -0.2715 -0.0766 -0.3390
  121OSM    H1S12786   6.412   0.877  10.836 -1.6619  0.5898 -0.9082
  121OSM    H1T12787   6.551   0.962  10.893  0.0344  1.3289 -1.4170
  121OSM     NF12788   6.461   1.037  10.656 -0.4096 -0.3408  0.4817
  121OSM    HNF12789   6.545   1.082  10.626  1.0120 -2.2186  1.5214
  121OSM    C2S12790   6.408   1.087  10.780 -1.0756  0.1469 -0.0516
  121OSM    H2S12791   6.298   1.103  10.782 -1.0452  0.3007  1.2264
  121OSM    C3S12792   6.475   1.216  10.823  0.6620 -0.0070  0.7371
  121OSM    H3S12793   6.582   1.194  10.846  1.3876  2.2364 -0.2765
  121OSM     O312794   6.413   1.275  10.936 -0.6600 -0.2867  0.1574
  121OSM    HO312795   6.383   1.198  10.984  2.1180 -0.7119  1.3157
  121OSM    C4S12796   6.470   1.304  10.707  0.6161  0.0563 -0.3868
  121OSM    H4S12797   6.377   1.295  10.649  1.1648 -1.6163 -1.0391
  121OSM    C5S12798   6.570   1.381  10.668 -1.3087 -0.0409 -0.0197
  121OSM    H5S12799   6.655   1.393  10.737 -0.0366 -1.8290 -1.2158
  121OSM    C6S12800   6.574   1.463  10.545 -0.3050 -0.6913  0.4259
  121OSM    H6S12801   6.583   1.572  10.564  2.2284 -1.0322  1.3196
  121OSM    H6T12802   6.482   1.439  10.487  0.0206 -2.9917  0.8170
  121OSM    C7S12803   6.694   1.432  10.456  0.0863  0.8446  0.1048
  121OSM    H7S12804   6.717   1.325  10.473 -2.5284  0.4036  1.0389
  121OSM    H7T12805   6.781   1.489  10.495  0.3179  0.5306  0.0476
  121OSM    C8S12806   6.682   1.473  10.309  0.6827  0.0529 -1.1987
  121OSM    H8S12807   6.684   1.584  10.304 -3.5441  0.2886  0.2053
  121OSM    H8T12808   6.582   1.437  10.278 -0.0137  1.2578 -0.3824
  121OSM    C9S12809   6.798   1.415  10.223  0.5308  0.0226 -0.2541
  121OSM    H9S12810   6.823   1.314  10.263  3.4585  1.2658  1.1771
  121OSM    H9T12811   6.883   1.483  10.240 -0.3183  1.1780 -0.5489
  121OSM   C10S12812   6.780   1.404  10.068 -0.1458 -0.1383 -0.1764
  121OSM   H10S12813   6.687   1.454  10.034  0.4906  1.2711  0.1094
  121OSM   H10T12814   6.767   1.297  10.041  0.3502  0.3837 -2.6513
  121OSM   C11S12815   6.889   1.443   9.970 -0.7195  0.8835  0.5273
  121OSM   H11S12816   6.973   1.373   9.993 -0.6646  0.5422 -0.6377
  121OSM   H11T12817   6.918   1.544  10.005 -0.2184  0.9003  0.0863
  121OSM   C12S12818   6.849   1.429   9.824  0.4341  0.2724  0.1416
  121OSM   H12S12819   6.757   1.478   9.786 -1.5211 -3.4808 -0.1880
  121OSM   H12T12820   6.830   1.322   9.800  0.6461 -0.3361  2.5868
  121OSM   C13S12821   6.961   1.468   9.726  0.4344  0.5274 -0.7203
  121OSM   H13S12822   7.047   1.411   9.767  0.9482  2.3176  0.7573
  121OSM   H13T12823   6.969   1.578   9.733 -1.4720  0.8155 -2.6167
  121OSM   C14S12824   6.932   1.428   9.586  0.3319  0.0265  0.1314
  121OSM   H14S12825   6.839   1.482   9.558 -0.3721 -1.9923 -1.5213
  121OSM   H14T12826   6.920   1.318   9.578  0.0805 -0.0637  1.5009
  121OSM   C15S12827   7.048   1.472   9.492  0.3249  0.1531  0.2715
  121OSM   H15S12828   7.144   1.427   9.524 -0.3216 -0.3171  1.5911
  121OSM   H15T12829   7.064   1.581   9.506 -1.4073  0.1938  2.1352
  121OSM   C16S12830   7.030   1.444   9.340  0.8558 -0.6958 -0.0541
  121OSM   H16S12831   7.105   1.482   9.267 -0.5537  3.2152  0.4143
  121OSM   H16T12832   6.942   1.507   9.314  1.6371  0.7347  0.7098
  121OSM   C17S12833   6.984   1.300   9.305  0.8910  0.4814 -0.1834
  121OSM   H17S12834   6.903   1.267   9.374  1.2182  0.8111  0.3556
  121OSM   H17T12835   7.072   1.236   9.330 -1.3958 -2.0870  1.6671
  121OSM   C18S12836   6.940   1.274   9.159  0.0283  0.8725 -0.0840
  121OSM   H18S12837   7.023   1.308   9.093 -0.2522 -0.6419 -1.2409
  121OSM   H18T12838   6.849   1.331   9.131  1.0712  2.0837 -1.0743
  121OSM   H18U12839   6.928   1.165   9.141 -1.0827  1.0412 -0.4047
  121OSM    C1F12840   6.396   0.951  10.574 -0.0300  0.0819 -0.7278
  121OSM     OF12841   6.281   0.925  10.615 -0.0617 -0.1133  0.0039
  121OSM    C2F12842   6.457   0.897  10.449  0.3809 -0.1823  0.5256
  121OSM    H2F12843   6.559   0.859  10.472  0.4823  0.5260  1.2691
  121OSM    H2G12844   6.472   0.977  10.374 -0.7432 -0.7733 -0.3499
  121OSM    C3F12845   6.368   0.783  10.389 -0.3824  0.1549 -0.0835
  121OSM    H3F12846   6.266   0.818  10.363 -0.5960 -0.9127 -0.6894
  121OSM    H3G12847   6.367   0.706  10.469 -2.2929 -0.5624 -0.7812
  121OSM    C4F12848   6.428   0.732  10.255  0.0632 -0.1399  0.7009
  121OSM    H4F12849   6.533   0.696  10.262  0.4841  0.6054 -1.4156
  121OSM    H4G12850   6.427   0.822  10.190  1.1621 -0.3013  0.4548
  121OSM    C5F12851   6.349   0.622  10.184  0.3177 -0.0887  0.3425
  121OSM    H5F12852   6.250   0.666  10.161  0.8616  0.9621 -0.0101
  121OSM    H5G12853   6.322   0.538  10.252 -1.1985  0.8678  0.9644
  121OSM    C6F12854   6.404   0.573  10.048 -0.2268  0.1840 -0.0371
  121OSM    H6F12855   6.324   0.520   9.992  1.6022  0.1749 -2.7217
  121OSM    H6G12856   6.485   0.497  10.058  0.1668  0.0580 -3.6771
  121OSM    C7F12857   6.455   0.690   9.965 -0.4501  0.7022 -0.3941
  121OSM    H7F12858   6.538   0.745  10.013 -0.9341 -0.0268  1.3247
  121OSM    H7G12859   6.375   0.767   9.958 -0.2267  0.9445 -0.3014
  121OSM    C8F12860   6.516   0.667   9.827 -0.3566  0.3782  0.5720
  121OSM    H8F12861   6.457   0.593   9.768 -0.0415 -1.6056  2.6858
  121OSM    H8G12862   6.606   0.608   9.856  1.3134  1.7932 -1.5124
  121OSM    C9F12863   6.564   0.778   9.738 -0.1865  0.3669 -0.3637
  121OSM    H9F12864   6.620   0.848   9.802  1.9696 -1.5576 -0.0811
  121OSM   C10F12865   6.563   0.785   9.603  0.0184 -0.6313  0.2293
  121OSM   H10F12866   6.602   0.882   9.568  0.7814 -0.0048  2.7274
  121OSM   C11F12867   6.514   0.689   9.500 -0.3131  1.2470  0.0155
  121OSM   H11F12868   6.448   0.613   9.548 -1.9234  1.9757 -1.0157
  121OSM   H11G12869   6.595   0.627   9.456 -1.2913  0.7793 -1.1361
  121OSM   C12F12870   6.423   0.757   9.383  0.5853 -0.5431  0.2308
  121OSM   H12F12871   6.478   0.842   9.338  1.9268 -0.9303  1.0948
  121OSM   H12G12872   6.336   0.804   9.433  0.4463  0.5757 -1.0419
  121OSM   C13F12873   6.370   0.666   9.272 -0.2431  0.5591  0.1974
  121OSM   H13F12874   6.326   0.575   9.317  0.3008  0.4049  0.4298
  121OSM   H13G12875   6.459   0.624   9.220 -0.9873 -1.3775  0.4623
  121OSM   C14F12876   6.267   0.732   9.176  0.2344  0.7676 -0.3842
  121OSM   H14F12877   6.327   0.818   9.138  2.2928  0.9253  3.0050
  121OSM   H14G12878   6.178   0.756   9.237  1.4401  0.8044  1.4166
  121OSM   C15F12879   6.218   0.645   9.058 -0.1275 -0.5739  0.6768
  121OSM   H15F12880   6.303   0.577   9.036  0.2052 -0.0951  0.4737
  121OSM   H15G12881   6.198   0.711   8.972  0.1815 -1.2833  0.0574
  121OSM   C16F12882   6.093   0.557   9.084 -0.0808 -0.1864 -0.8917
  121OSM   H16F12883   6.084   0.539   9.193 -1.4410 -1.6842 -1.2188
  121OSM   H16G12884   6.093   0.466   9.019  2.2698 -1.1603  0.3974
  121OSM   C17F12885   5.970   0.632   9.043  0.0729  0.4559 -0.1405
  121OSM   H17F12886   5.972   0.652   8.934  1.5970 -0.3711 -0.2709
  121OSM   H17G12887   5.981   0.735   9.084 -1.5301  1.9255 -3.2803
  121OSM   C18F12888   5.840   0.581   9.103 -0.8686  0.4041  0.0230
  121OSM   H18F12889   5.849   0.584   9.213  1.6203  1.8199 -0.1822
  121OSM   H18G12890   5.817   0.475   9.079  0.2538  0.1779 -0.0658
  121OSM   H18H12891   5.750   0.643   9.080 -1.0243  0.2295  0.1640
  122OSM      N12892   0.170   0.222  10.838  0.0140 -0.0908 -0.3945
  122OSM    C1512893   0.077   0.306  10.914  0.1296  0.2000 -0.1904
  122OSM   H15A12894   0.109   0.308  11.017  3.6080 -1.1643 -1.1600
  122OSM   H15B12895  -0.023   0.263  10.916  1.1101 -2.1396  0.6679
  122OSM   H15C12896   0.068   0.402  10.866  2.5460  0.8177  0.5631
  122OSM    C1412897   0.107   0.211  10.700 -0.1801 -1.0125 -0.5525
  122OSM   H14A12898   0.159   0.151  10.628 -1.2967  0.0839 -2.3317
  122OSM   H14B12899   0.116   0.313  10.666 -0.4621  0.1300  2.6279
  122OSM   H14C12900   0.006   0.176  10.713 -1.3691  2.5118  0.4934
  122OSM    C1312901   0.301   0.291  10.836  0.2803  0.7265  0.2222
  122OSM   H13A12902   0.285   0.391  10.798 -0.2445  1.0813  1.3613
  122OSM   H13B12903   0.358   0.246  10.756  2.1309 -0.7745  2.3411
  122OSM   H13C12904   0.346   0.292  10.934  0.0449  0.3546  0.3349
  122OSM    C1212905   0.180   0.084  10.902 -0.0759 -0.1440 -0.3422
  122OSM   H12A12906   0.080   0.043  10.900 -0.5055  0.9077 -1.1331
  122OSM   H12B12907   0.204   0.096  11.006 -2.9286  0.3848  0.2756
  122OSM    C1112908   0.278  -0.008  10.833  0.8165 -0.0478 -0.3213
  122OSM   H11A12909   0.374   0.023  10.878  0.2846  1.7128 -0.3559
  122OSM   H11B12910   0.288   0.009  10.723  1.0797 -0.1995 -0.3210
  122OSM      P12911   0.099  -0.193  10.795  0.1969  0.0791  0.1964
  122OSM    O1312912   0.100  -0.338  10.827 -0.2687 -0.5454 -0.1530
  122OSM    O1412913  -0.011  -0.115  10.849  0.1195  0.0695 -0.3548
  122OSM    O1112914   0.122  -0.162  10.640  0.0739 -0.5278 -0.8553
  122OSM    O1212915   0.231  -0.137  10.864 -0.5361  0.1820  0.1953
  122OSM    C1S12916   0.223  -0.232  10.566 -0.4774  0.0226 -0.1563
  122OSM    H1S12917   0.220  -0.341  10.590 -2.2448  0.6144  2.6117
  122OSM    H1T12918   0.326  -0.208  10.599 -0.5130  1.1620 -0.8533
  122OSM     NF12919   0.278  -0.323  10.356  0.3427  0.3667  0.1842
  122OSM    HNF12920   0.376  -0.313  10.346  0.4872  0.0304  1.2085
  122OSM    C2S12921   0.209  -0.219  10.412 -0.5233  0.4767  1.0857
  122OSM    H2S12922   0.099  -0.224  10.400 -0.4628  0.4955  0.5089
  122OSM    C3S12923   0.256  -0.079  10.362 -0.2135 -0.2046  0.3156
  122OSM    H3S12924   0.366  -0.064  10.366  0.3691 -3.5955 -1.1687
  122OSM     O312925   0.201   0.022  10.445  0.2918 -0.3846 -0.3132
  122OSM    HO312926   0.148  -0.034  10.502 -1.0982 -0.0323 -1.2497
  122OSM    C4S12927   0.213  -0.059  10.220  0.6476 -1.1063  0.6828
  122OSM    H4S12928   0.287  -0.098  10.149 -0.0861  0.4203 -0.9573
  122OSM    C5S12929   0.101   0.000  10.176 -0.2158  0.3361  0.7915
  122OSM    H5S12930   0.025   0.040  10.244  0.0256  1.2264  0.5501
  122OSM    C6S12931   0.061   0.011  10.030 -0.0541 -1.2579  0.3722
  122OSM    H6S12932   0.049   0.119  10.007 -1.3002 -1.8560 -1.9380
  122OSM    H6T12933  -0.036  -0.040  10.013 -0.7072 -0.6262  2.0230
  122OSM    C7S12934   0.158  -0.056   9.934  0.3953 -0.0165  0.0107
  122OSM    H7S12935   0.183  -0.163   9.956  1.6297 -0.2546 -2.4338
  122OSM    H7T12936   0.250   0.005   9.936  0.1643  0.3027  2.0503
  122OSM    C8S12937   0.097  -0.061   9.798 -0.2647  0.4113  0.0221
  122OSM    H8S12938   0.055   0.034   9.759 -0.5646  0.1719 -0.2328
  122OSM    H8T12939   0.014  -0.134   9.793 -0.2965  0.4119  0.4978
  122OSM    C9S12940   0.201  -0.117   9.688  0.7958 -0.0436  0.1104
  122OSM    H9S12941   0.193  -0.228   9.683  0.7147  0.0145 -1.0414
  122OSM    H9T12942   0.299  -0.090   9.733  0.4451  1.5616 -0.0507
  122OSM   C10S12943   0.171  -0.045   9.554  0.1864  0.3604 -0.1762
  122OSM   H10S12944   0.164   0.063   9.580  0.4798  0.4081 -0.3018
  122OSM   H10T12945   0.076  -0.076   9.505  1.1617 -0.7662 -1.3564
  122OSM   C11S12946   0.296  -0.067   9.466  0.1623 -0.4077  0.0439
  122OSM   H11S12947   0.329  -0.170   9.493 -2.7977 -1.7672 -1.1950
  122OSM   H11T12948   0.379   0.004   9.484 -0.1053  0.1415 -0.8545
  122OSM   C12S12949   0.272  -0.062   9.322  0.2412 -0.7307  0.2458
  122OSM   H12S12950   0.372  -0.054   9.274  0.7263 -1.8658  1.0356
  122OSM   H12T12951   0.218   0.030   9.292  1.4219 -0.7964 -2.2193
  122OSM   C13S12952   0.186  -0.183   9.280 -0.5526  0.3363 -0.1151
  122OSM   H13S12953   0.090  -0.184   9.335  0.0646  1.0143  0.9931
  122OSM   H13T12954   0.238  -0.276   9.310 -1.1149  0.6802  2.0024
  122OSM   C14S12955   0.147  -0.178   9.129  0.6070  0.1479  0.8168
  122OSM   H14S12956   0.097  -0.081   9.107  0.4122 -0.7581 -3.0563
  122OSM   H14T12957   0.074  -0.258   9.102  0.3560  0.4865  0.4850
  122OSM   C15S12958   0.273  -0.176   9.039 -0.5021 -0.2094 -0.0012
  122OSM   H15S12959   0.339  -0.244   9.098  0.3857  1.3574  0.8391
  122OSM   H15T12960   0.322  -0.077   9.053  2.4299 -1.8313  1.7831
  122OSM   C16S12961   0.267  -0.222   8.893 -0.2453  0.3392 -0.2489
  122OSM   H16S12962   0.199  -0.168   8.823  0.8087  0.6315 -1.0590
  122OSM   H16T12963   0.232  -0.326   8.910  0.3787  0.1276 -0.2250
  122OSM   C17S12964   0.409  -0.228   8.841 -0.2403 -0.5505  0.2004
  122OSM   H17S12965   0.475  -0.279   8.914  2.1658  0.2184 -1.3726
  122OSM   H17T12966   0.439  -0.121   8.839 -2.0556 -0.0315 -0.6899
  122OSM   C18S12967   0.411  -0.305   8.708 -0.2275 -0.2711  0.1233
  122OSM   H18S12968   0.504  -0.290   8.650 -0.5313  0.1426 -0.2603
  122OSM   H18T12969   0.332  -0.277   8.635  0.8519  1.0697 -0.5671
  122OSM   H18U12970   0.402  -0.413   8.732  4.2668 -0.5557  1.0883
  122OSM    C1F12971   0.224  -0.444  10.345  0.5733  0.3519 -0.6016
  122OSM     OF12972   0.118  -0.488  10.387 -0.2584 -0.3478 -0.4031
  122OSM    C2F12973   0.321  -0.544  10.293  0.6132 -0.3531 -0.2145
  122OSM    H2F12974   0.345  -0.628  10.361 -0.2762 -0.2566  0.2383
  122OSM    H2G12975   0.412  -0.488  10.262 -0.3160  2.2402  1.5579
  122OSM    C3F12976   0.259  -0.608  10.164 -0.0944 -0.5183 -0.7259
  122OSM    H3F12977   0.229  -0.537  10.085 -1.4981 -0.6087 -0.3040
  122OSM    H3G12978   0.158  -0.647  10.189 -1.3762  3.8716  1.4482
  122OSM    C4F12979   0.355  -0.710  10.094  0.9796 -0.0657  0.1837
  122OSM    H4F12980   0.384  -0.786  10.170 -1.3515  0.2126  1.4319
  122OSM    H4G12981   0.445  -0.664  10.049  0.5517 -2.0941 -2.8631
  122OSM    C5F12982   0.290  -0.788   9.987 -0.1643  0.0663 -0.2627
  122OSM    H5F12983   0.269  -0.717   9.904 -3.4940 -0.5276 -0.0011
  122OSM    H5G12984   0.190  -0.827  10.016  0.9014 -1.4703  1.4113
  122OSM    C6F12985   0.379  -0.891   9.920  0.6508  0.1324  0.1817
  122OSM    H6F12986   0.428  -0.960   9.992  1.0883  0.2711  0.0153
  122OSM    H6G12987   0.464  -0.842   9.869 -0.8764  1.1088 -1.4487
  122OSM    C7F12988   0.309  -0.982   9.811  0.3424 -0.0703 -0.4991
  122OSM    H7F12989   0.291  -0.913   9.725  2.3050  0.0467 -0.8514
  122OSM    H7G12990   0.207  -1.006   9.846  0.2377  0.9840 -0.0922
  122OSM    C8F12991   0.391  -1.101   9.756 -0.1128 -0.4197 -0.5678
  122OSM    H8F12992   0.331  -1.143   9.672  0.0513 -0.6628 -0.5635
  122OSM    H8G12993   0.386  -1.186   9.828  1.1012  1.1611  1.4366
  122OSM    C9F12994   0.532  -1.061   9.718 -0.4116 -0.4239  0.2959
  122OSM    H9F12995   0.589  -1.021   9.803  0.0790  1.6410 -0.9514
  122OSM   C10F12996   0.581  -1.034   9.593 -0.1203 -0.1806  0.0774
  122OSM   H10F12997   0.686  -1.009   9.573  0.1142 -1.4715 -0.3599
  122OSM   C11F12998   0.504  -1.056   9.464  0.0067  0.0266 -0.1017
  122OSM   H11F12999   0.510  -0.979   9.384  1.3400 -1.9925 -2.0053
  122OSM   H11G13000   0.395  -1.068   9.484 -0.4840 -0.8590 -3.0062
  122OSM   C12F13001   0.550  -1.187   9.390  0.3538 -0.0551  0.7286
  122OSM   H12F13002   0.516  -1.280   9.440 -0.3164  0.5047  1.3295
  122OSM   H12G13003   0.660  -1.176   9.384  0.1493  1.7669  0.2439
  122OSM   C13F13004   0.489  -1.189   9.258 -0.2956 -0.6071  0.7838
  122OSM   H13F13005   0.531  -1.106   9.197  0.6003 -1.8367 -0.3187
  122OSM   H13G13006   0.380  -1.172   9.273 -0.7113 -0.3697 -2.1765
  122OSM   C14F13007   0.494  -1.322   9.181 -0.2415  0.3254  0.1690
  122OSM   H14F13008   0.466  -1.408   9.245  0.6448 -1.5678 -1.9083
  122OSM   H14G13009   0.603  -1.331   9.162 -0.4522 -0.0089 -0.9173
  122OSM   C15F13010   0.405  -1.337   9.059  0.4977  0.3275 -0.3310
  122OSM   H15F13011   0.449  -1.263   8.989  0.0889  1.8167  0.9582
  122OSM   H15G13012   0.300  -1.313   9.087  0.4952 -0.3477  0.2404
  122OSM   C16F13013   0.413  -1.476   8.986 -0.1890  0.0425  0.6793
  122OSM   H16F13014   0.406  -1.543   9.075  2.6034 -0.9748  0.1751
  122OSM   H16G13015   0.513  -1.485   8.939 -0.0067  0.6836  0.9448
  122OSM   C17F13016   0.306  -1.496   8.885 -0.3134  0.0185  0.0443
  122OSM   H17F13017   0.324  -1.426   8.801  0.6798 -1.5012 -1.0382
  122OSM   H17G13018   0.204  -1.479   8.925  0.1848  0.7940  1.0062
  122OSM   C18F13019   0.311  -1.629   8.816 -0.4635 -0.1541 -0.1150
  122OSM   H18F13020   0.235  -1.647   8.737  0.7797  0.6297 -1.5172
  122OSM   H18G13021   0.284  -1.718   8.876 -0.1273  0.4245  0.9123
  122OSM   H18H13022   0.410  -1.650   8.769 -0.5776  0.4564 -0.6452
  123OSM      N13023   4.109   3.852   5.861  1.1356 -0.2717  0.2795
  123OSM    C1513024   4.120   3.991   5.803  0.3127 -0.0905 -0.0243
  123OSM   H15A13025   4.032   4.052   5.820 -0.5319 -1.9408  2.5295
  123OSM   H15B13026   4.137   3.984   5.696 -0.3966  0.7439 -0.2055
  123OSM   H15C13027   4.202   4.044   5.848 -1.2486  0.8941  1.7178
  123OSM    C1413028   4.017   3.776   5.775  0.3072 -0.0442 -0.3902
  123OSM   H14A13029   4.026   3.813   5.674 -1.5210  0.2835 -0.4445
  123OSM   H14B13030   3.914   3.797   5.798  0.2867 -0.6932  0.1057
  123OSM   H14C13031   4.033   3.670   5.789  1.9593 -0.1182 -2.5222
  123OSM    C1313032   4.241   3.782   5.853 -1.1837  0.0368  0.3876
  123OSM   H13A13033   4.250   3.695   5.917  0.0200 -0.1540 -0.0261
  123OSM   H13B13034   4.314   3.859   5.873 -2.1613  1.2668 -0.7385
  123OSM   H13C13035   4.256   3.754   5.750 -0.4943  1.7269  0.0145
  123OSM    C1213036   4.062   3.854   6.010  0.2287  0.0514  0.1344
  123OSM   H12A13037   4.044   3.749   6.029 -1.3832  0.3028  0.0212
  123OSM   H12B13038   3.967   3.904   6.019 -0.1333 -0.3781 -1.2313
  123OSM    C1113039   4.161   3.906   6.118  0.1100 -0.2328 -0.9202
  123OSM   H11A13040   4.240   3.827   6.119  0.2775 -0.0560  1.6083
  123OSM   H11B13041   4.106   3.901   6.214  2.0284  1.0793  0.2871
  123OSM      P13042   4.177   4.161   6.153  0.3707  0.2085 -0.2641
  123OSM    O1313043   4.272   4.261   6.110 -0.3861  0.3156 -0.2331
  123OSM    O1413044   4.029   4.187   6.124 -0.1942 -0.6242 -0.3073
  123OSM    O1113045   4.195   4.123   6.303 -0.3798  0.2536 -0.1235
  123OSM    O1213046   4.216   4.029   6.083  0.0192 -0.6302  0.0328
  123OSM    C1S13047   4.138   4.232   6.387 -0.4506  0.4764 -0.6088
  123OSM    H1S13048   4.039   4.270   6.355 -0.3337  1.2142 -0.1040
  123OSM    H1T13049   4.212   4.315   6.380  1.0741 -0.7429  0.8898
  123OSM     NF13050   4.081   4.302   6.617 -0.1836 -0.3845 -0.2073
  123OSM    HNF13051   4.147   4.347   6.677 -0.9719 -0.5852  0.8337
  123OSM    C2S13052   4.125   4.193   6.536 -0.0365  0.0016  0.1104
  123OSM    H2S13053   4.043   4.119   6.526  0.0531  0.0623 -1.2097
  123OSM    C3S13054   4.261   4.136   6.586 -0.3297  0.1816  0.5486
  123OSM    H3S13055   4.330   4.223   6.587 -1.4052  1.0725 -0.4787
  123OSM     O313056   4.323   4.042   6.497  0.0179 -0.1607 -0.1400
  123OSM    HO313057   4.271   4.053   6.417  0.8932  0.6109 -0.6192
  123OSM    C4S13058   4.254   4.089   6.724 -0.2546  0.2346  0.2501
  123OSM    H4S13059   4.181   4.009   6.745 -1.1958  1.1532  0.4971
  123OSM    C5S13060   4.320   4.143   6.826 -0.1329  0.5710 -0.1067
  123OSM    H5S13061   4.385   4.229   6.802 -1.7922  0.8058 -4.1712
  123OSM    C6S13062   4.313   4.095   6.966 -0.0114  0.0207 -0.4332
  123OSM    H6S13063   4.384   4.009   6.974 -0.1146 -0.0013  0.2361
  123OSM    H6T13064   4.211   4.062   6.994 -0.3222 -0.4301 -2.0232
  123OSM    C7S13065   4.363   4.202   7.053  0.1527 -0.6741  0.1550
  123OSM    H7S13066   4.295   4.288   7.065  0.5190 -0.6698  2.5880
  123OSM    H7T13067   4.464   4.230   7.015 -0.7318  1.8194 -0.4125
  123OSM    C8S13068   4.385   4.155   7.197  0.1597 -0.1927 -0.2065
  123OSM    H8S13069   4.456   4.070   7.200  0.0852 -0.1984  2.2863
  123OSM    H8T13070   4.294   4.105   7.236  1.0608 -0.2913  1.8340
  123OSM    C9S13071   4.450   4.264   7.278  0.8395 -0.4217  0.0527
  123OSM    H9S13072   4.379   4.349   7.281  3.2753  1.6563  1.3850
  123OSM    H9T13073   4.542   4.287   7.220  0.7386  0.5134  0.2546
  123OSM   C10S13074   4.487   4.233   7.426  0.0460 -0.1773 -0.0196
  123OSM   H10S13075   4.549   4.314   7.468  1.5472 -1.7850  0.9518
  123OSM   H10T13076   4.542   4.137   7.414 -1.8816 -1.1845 -1.0566
  123OSM   C11S13077   4.373   4.198   7.525  0.6673 -0.3352  0.9459
  123OSM   H11S13078   4.331   4.104   7.483  1.5944 -0.0868 -0.5921
  123OSM   H11T13079   4.279   4.256   7.515  0.2834 -1.1781 -0.5001
  123OSM   C12S13080   4.414   4.185   7.672 -0.7196 -0.6433  0.6351
  123OSM   H12S13081   4.458   4.277   7.715  0.2347 -0.4443 -0.7510
  123OSM   H12T13082   4.494   4.107   7.680  0.6585  0.5924 -0.7706
  123OSM   C13S13083   4.287   4.149   7.751  0.2029  0.3754 -0.0235
  123OSM   H13S13084   4.254   4.052   7.708 -0.5199  1.7723 -2.7343
  123OSM   H13T13085   4.200   4.215   7.734  0.6556  0.6794 -1.1930
  123OSM   C14S13086   4.321   4.151   7.893  0.7079  0.1811  0.5034
  123OSM   H14S13087   4.354   4.251   7.929  0.0986  0.5641 -0.0026
  123OSM   H14T13088   4.405   4.078   7.901  0.2938 -0.2461  0.9947
  123OSM   C15S13089   4.204   4.099   7.981 -0.9262  0.2197  0.1474
  123OSM   H15S13090   4.179   3.995   7.950 -1.3170  0.2823  0.2539
  123OSM   H15T13091   4.123   4.173   7.972  0.2987  1.9948  3.0851
  123OSM   C16S13092   4.244   4.092   8.133 -0.4497 -0.3092 -0.5305
  123OSM   H16S13093   4.260   4.196   8.167  2.1569 -1.8052  3.1587
  123OSM   H16T13094   4.337   4.038   8.162 -0.4151  0.9511  1.8104
  123OSM   C17S13095   4.137   4.024   8.215 -0.2063 -0.0818 -1.0634
  123OSM   H17S13096   4.131   3.918   8.181 -1.6111 -0.1979 -0.4755
  123OSM   H17T13097   4.042   4.076   8.192  0.7406  0.9540 -2.7606
  123OSM   C18S13098   4.165   4.025   8.362  0.2625  0.2814  0.1087
  123OSM   H18S13099   4.272   3.997   8.376 -0.0320  0.3918  2.8429
  123OSM   H18T13100   4.105   3.944   8.409  1.2774 -0.4115  0.2230
  123OSM   H18U13101   4.150   4.122   8.414  0.1878  1.4711 -2.0542
  123OSM    C1F13102   3.947   4.342   6.619 -0.7548 -0.3293  0.0976
  123OSM     OF13103   3.861   4.275   6.564  0.4104  0.2954  0.1102
  123OSM    C2F13104   3.916   4.464   6.687  0.1441  0.1366 -0.1351
  123OSM    H2F13105   3.907   4.542   6.610  1.0589  0.9830  0.5965
  123OSM    H2G13106   4.011   4.502   6.733 -0.6141  0.7961  0.9098
  123OSM    C3F13107   3.783   4.458   6.766 -0.2130  0.0217  0.1196
  123OSM    H3F13108   3.699   4.418   6.705 -0.1845 -0.4377  0.3776
  123OSM    H3G13109   3.764   4.564   6.793 -2.4200 -0.2450 -0.3493
  123OSM    C4F13110   3.802   4.382   6.901 -0.2924  0.6568 -0.2836
  123OSM    H4F13111   3.852   4.285   6.881 -0.5938  0.5395 -0.4600
  123OSM    H4G13112   3.703   4.362   6.946  0.2082 -1.9563 -0.2826
  123OSM    C5F13113   3.884   4.454   7.010  0.3305 -0.1066  1.0104
  123OSM    H5F13114   3.832   4.543   7.052  1.1434  0.7862  0.1665
  123OSM    H5G13115   3.978   4.488   6.961  0.6108 -0.6109  1.2009
  123OSM    C6F13116   3.922   4.354   7.123 -0.1960 -0.2318 -0.2683
  123OSM    H6F13117   3.949   4.253   7.087 -1.8068 -0.5330 -0.7032
  123OSM    H6G13118   3.832   4.344   7.187  1.6255 -0.4374  2.3257
  123OSM    C7F13119   4.034   4.405   7.220 -0.6988  0.5267 -0.0218
  123OSM    H7F13120   4.131   4.414   7.167 -0.2479  0.9792  0.8806
  123OSM    H7G13121   4.048   4.322   7.293 -0.0838  0.7321  0.0919
  123OSM    C8F13122   3.993   4.526   7.304 -0.4401 -0.0733 -0.1777
  123OSM    H8F13123   3.912   4.496   7.373 -3.2383  1.4168 -2.6907
  123OSM    H8G13124   3.957   4.605   7.234  0.8986 -1.7841 -2.8839
  123OSM    C9F13125   4.113   4.579   7.374  0.2127  0.7220  0.3076
  123OSM    H9F13126   4.203   4.572   7.311 -1.0148 -1.2017 -1.3049
  123OSM   C10F13127   4.127   4.619   7.501 -0.8451 -0.0990  0.2234
  123OSM   H10F13128   4.229   4.653   7.525 -1.5437  1.7261  0.6571
  123OSM   C11F13129   4.020   4.617   7.609 -0.0590 -0.1008 -0.4720
  123OSM   H11F13130   3.932   4.560   7.573  0.5469  0.0297 -2.1880
  123OSM   H11G13131   3.982   4.721   7.619 -2.3223 -0.7596 -2.0384
  123OSM   C12F13132   4.070   4.558   7.736 -0.0044 -0.5244  0.0557
  123OSM   H12F13133   4.172   4.597   7.757 -0.0432 -1.6113  2.4512
  123OSM   H12G13134   4.065   4.448   7.731  0.5288 -0.6469  1.8614
  123OSM   C13F13135   3.984   4.604   7.858 -0.7660  0.0461 -0.0971
  123OSM   H13F13136   3.877   4.586   7.834 -0.5551 -0.3587 -0.7501
  123OSM   H13G13137   4.005   4.711   7.880  0.8876 -0.2367 -0.2371
  123OSM   C14F13138   4.043   4.526   7.981  0.5222 -0.4310 -0.3131
  123OSM   H14F13139   4.146   4.562   8.002  0.0517  0.2606  0.8344
  123OSM   H14G13140   4.039   4.416   7.961 -1.4567 -0.4520  0.1067
  123OSM   C15F13141   3.954   4.561   8.101  0.6167 -0.6661 -0.3978
  123OSM   H15F13142   3.849   4.541   8.071  0.2477  1.0446 -0.2609
  123OSM   H15G13143   3.951   4.669   8.124 -1.0800 -1.4725  3.5442
  123OSM   C16F13144   3.975   4.495   8.236 -0.4547  0.2436 -0.6378
  123OSM   H16F13145   4.064   4.535   8.289  0.4886  0.3973 -2.3079
  123OSM   H16G13146   3.990   4.386   8.219 -1.0894  0.0349  0.1401
  123OSM   C17F13147   3.856   4.520   8.333  0.4360  0.1064 -0.0557
  123OSM   H17F13148   3.845   4.449   8.418  2.6852  0.3893  0.5021
  123OSM   H17G13149   3.757   4.515   8.283  0.5826  0.7355 -0.4213
  123OSM   C18F13150   3.860   4.666   8.399  0.0263  1.1961 -0.0220
  123OSM   H18F13151   3.758   4.670   8.443  0.0907 -1.2857  0.4347
  123OSM   H18G13152   3.900   4.750   8.339 -1.3010  1.8115 -0.0742
  123OSM   H18H13153   3.930   4.653   8.484 -0.5184 -3.3276 -0.1112
  124OSM      N13154   6.664   2.179   6.141 -0.6012 -0.2599 -0.3699
  124OSM    C1513155   6.748   2.165   6.263  0.3638 -0.9115 -0.8462
  124OSM   H15A13156   6.845   2.213   6.254  0.5575 -1.2924 -0.7928
  124OSM   H15B13157   6.784   2.064   6.279  1.4725 -0.1897  1.2894
  124OSM   H15C13158   6.680   2.193   6.341 -0.7506 -1.6383 -1.5320
  124OSM    C1413159   6.632   2.325   6.124  0.3914  0.1400  0.1853
  124OSM   H14A13160   6.580   2.346   6.032  0.5325 -2.0390 -0.4180
  124OSM   H14B13161   6.718   2.389   6.113  0.0417  0.2717 -2.1322
  124OSM   H14C13162   6.573   2.355   6.209  1.9963 -0.1781  1.4378
  124OSM    C1313163   6.750   2.125   6.030 -0.4235 -0.2595 -0.0080
  124OSM   H13A13164   6.851   2.164   6.024 -1.1040  1.3460 -1.7723
  124OSM   H13B13165   6.699   2.149   5.938 -1.2982 -0.6018  0.3846
  124OSM   H13C13166   6.761   2.018   6.037 -1.2239 -0.5029 -2.0341
  124OSM    C1213167   6.534   2.105   6.155 -0.5269  0.1173  0.4390
  124OSM   H12A13168   6.561   2.001   6.167 -1.6461 -0.2171  0.1077
  124OSM   H12B13169   6.484   2.102   6.059  1.5534 -0.8799 -0.6542
  124OSM    C1113170   6.445   2.139   6.271  0.2192  0.1573 -0.1444
  124OSM   H11A13171   6.502   2.124   6.365  1.1476 -0.8895 -0.8669
  124OSM   H11B13172   6.363   2.063   6.275 -0.7372  1.1714 -0.0894
  124OSM      P13173   6.265   2.304   6.357  0.1491  0.1880  0.2586
  124OSM    O1313174   6.242   2.448   6.373  0.1562  0.0780 -0.2677
  124OSM    O1413175   6.163   2.219   6.297 -0.2795  0.0477  0.4076
  124OSM    O1113176   6.281   2.236   6.501  0.1256 -0.1834  0.2013
  124OSM    O1213177   6.405   2.279   6.277 -0.4239 -0.2947  0.3505
  124OSM    C1S13178   6.395   2.266   6.588  0.5855 -0.7646  0.1364
  124OSM    H1S13179   6.473   2.318   6.530 -1.9677  2.8385 -0.2844
  124OSM    H1T13180   6.442   2.168   6.611 -2.7503 -3.0201 -2.0908
  124OSM     NF13181   6.454   2.373   6.807 -0.0364  1.1575  0.1463
  124OSM    HNF13182   6.459   2.323   6.893  0.5196 -2.0836 -1.6938
  124OSM    C2S13183   6.346   2.348   6.720 -0.7988  0.6826  0.6427
  124OSM    H2S13184   6.309   2.443   6.675 -1.9710 -0.5331 -1.0330
  124OSM    C3S13185   6.224   2.287   6.791  0.0420 -0.5707  0.0643
  124OSM    H3S13186   6.242   2.186   6.834  0.0003 -0.9025 -0.6998
  124OSM     O313187   6.111   2.260   6.697  0.6371 -0.4944 -0.2424
  124OSM    HO313188   6.148   2.241   6.611 -2.4423 -0.9327 -1.5472
  124OSM    C4S13189   6.171   2.385   6.896 -0.0948  0.3850  0.1485
  124OSM    H4S13190   6.132   2.480   6.856 -0.5153 -0.4683 -1.4762
  124OSM    C5S13191   6.177   2.362   7.029  0.7766  0.6826 -0.2948
  124OSM    H5S13192   6.226   2.265   7.047 -1.3510 -0.4354 -0.4441
  124OSM    C6S13193   6.132   2.459   7.136  0.5621 -0.0991 -0.5424
  124OSM    H6S13194   6.081   2.541   7.083  1.3699 -0.1292 -1.3815
  124OSM    H6T13195   6.227   2.496   7.180  0.9715 -0.9963 -0.6588
  124OSM    C7S13196   6.045   2.398   7.254  0.8434  0.0403  0.1211
  124OSM    H7S13197   6.103   2.310   7.290 -1.3954 -1.8366 -0.7133
  124OSM    H7T13198   5.953   2.356   7.209  0.6180 -1.7923  2.1689
  124OSM    C8S13199   5.998   2.498   7.360 -0.3403  0.2815  0.5137
  124OSM    H8S13200   5.948   2.576   7.299  0.9659  0.0963 -0.8281
  124OSM    H8T13201   6.084   2.544   7.413 -2.2783  0.9563  3.1572
  124OSM    C9S13202   5.891   2.449   7.461 -0.0688  0.0528  0.7011
  124OSM    H9S13203   5.936   2.367   7.521 -1.1864 -0.6413  0.6026
  124OSM    H9T13204   5.808   2.401   7.404 -0.4940  0.4597  0.9771
  124OSM   C10S13205   5.825   2.553   7.552 -0.0292  0.0570  0.5374
  124OSM   H10S13206   5.784   2.634   7.488 -0.9371  0.4750  1.6205
  124OSM   H10T13207   5.911   2.587   7.613  1.6868  1.2750 -2.4432
  124OSM   C11S13208   5.711   2.495   7.639 -0.5134 -0.1908  1.1523
  124OSM   H11S13209   5.754   2.400   7.676 -0.3875 -0.4632  0.3286
  124OSM   H11T13210   5.634   2.461   7.566 -0.8352 -0.8193  1.7737
  124OSM   C12S13211   5.651   2.587   7.741  0.0860  0.0641 -0.1769
  124OSM   H12S13212   5.566   2.535   7.791  0.5053  0.9668  1.5352
  124OSM   H12T13213   5.612   2.676   7.686 -3.3210 -1.5345 -0.4602
  124OSM   C13S13214   5.746   2.627   7.850 -0.2350 -0.5525  0.3351
  124OSM   H13S13215   5.820   2.708   7.832 -1.1768  0.1735 -0.3312
  124OSM   H13T13216   5.789   2.536   7.896  0.1187 -0.0107  1.0993
  124OSM   C14S13217   5.658   2.675   7.971 -0.0206 -0.5410 -0.3566
  124OSM   H14S13218   5.592   2.597   8.016 -1.4606  0.6263 -0.4055
  124OSM   H14T13219   5.596   2.757   7.929  1.7784  1.3521  0.5620
  124OSM   C15S13220   5.738   2.724   8.092 -0.6780 -0.6190  0.4110
  124OSM   H15S13221   5.821   2.784   8.049 -2.4029  0.9382 -0.8288
  124OSM   H15T13222   5.783   2.628   8.125 -0.2872  0.1445  2.1394
  124OSM   C16S13223   5.666   2.792   8.208  0.1008  0.2176 -1.1512
  124OSM   H16S13224   5.653   2.898   8.179 -0.4170  0.7591  0.9157
  124OSM   H16T13225   5.726   2.772   8.300 -0.9322  0.0815 -0.5042
  124OSM   C17S13226   5.532   2.739   8.252 -0.1704  0.4058 -0.0711
  124OSM   H17S13227   5.542   2.637   8.294  0.5110  0.3167 -0.4431
  124OSM   H17T13228   5.463   2.733   8.165 -0.2978 -0.8325  0.1090
  124OSM   C18S13229   5.471   2.841   8.351  0.0508  0.7775 -0.5576
  124OSM   H18S13230   5.421   2.919   8.288  1.4577  0.9192 -1.5362
  124OSM   H18T13231   5.553   2.885   8.412 -1.2018 -0.2212  1.9121
  124OSM   H18U13232   5.397   2.792   8.417  1.7700  1.2314  1.7406
  124OSM    C1F13233   6.543   2.463   6.781  0.2866 -0.3934  0.2764
  124OSM     OF13234   6.544   2.539   6.684  0.1507  0.1751  0.3115
  124OSM    C2F13235   6.655   2.471   6.878  0.1419  0.3859 -0.7664
  124OSM    H2F13236   6.753   2.483   6.825  0.2522  2.5280 -0.1304
  124OSM    H2G13237   6.652   2.380   6.940 -2.4583  0.1152 -1.2441
  124OSM    C3F13238   6.636   2.597   6.962 -0.1369  0.1561 -0.3097
  124OSM    H3F13239   6.543   2.594   7.023 -1.0537 -0.8705 -1.7128
  124OSM    H3G13240   6.631   2.678   6.887  0.1666 -0.1154 -0.6245
  124OSM    C4F13241   6.760   2.625   7.047  0.0755  0.8313  0.2833
  124OSM    H4F13242   6.851   2.627   6.983  1.6672  0.4944  2.4596
  124OSM    H4G13243   6.775   2.531   7.106 -3.8246 -1.2130 -1.7656
  124OSM    C5F13244   6.739   2.749   7.125 -0.3840  0.0850 -0.0153
  124OSM    H5F13245   6.641   2.747   7.176 -1.5513  1.5313 -2.1411
  124OSM    H5G13246   6.739   2.828   7.047 -3.4765 -0.3307 -0.4932
  124OSM    C6F13247   6.833   2.784   7.240  0.1055 -0.3171 -0.4111
  124OSM    H6F13248   6.808   2.886   7.274  0.4904 -0.1593 -0.5873
  124OSM    H6G13249   6.940   2.774   7.209 -0.3810 -2.3355 -1.5164
  124OSM    C7F13250   6.818   2.702   7.365 -0.0237 -0.6085  0.3909
  124OSM    H7F13251   6.813   2.594   7.341 -0.1077 -0.9259  1.8282
  124OSM    H7G13252   6.725   2.738   7.414  1.2118 -0.1786  2.4793
  124OSM    C8F13253   6.935   2.724   7.473 -0.4854  0.5310  0.3128
  124OSM    H8F13254   7.032   2.720   7.419 -0.3422 -1.4960  0.6968
  124OSM    H8G13255   6.931   2.635   7.539 -0.7247  0.1830 -0.1759
  124OSM    C9F13256   6.929   2.851   7.553  0.4606  0.0699  0.1787
  124OSM    H9F13257   6.959   2.941   7.497 -0.2831  0.8201  0.9658
  124OSM   C10F13258   6.918   2.867   7.683  0.1995  0.0652  0.0274
  124OSM   H10F13259   6.930   2.969   7.722 -1.1376 -0.1589  1.0832
  124OSM   C11F13260   6.894   2.754   7.778 -0.0605  0.0785  0.0694
  124OSM   H11F13261   6.900   2.653   7.731  2.1007 -0.5577  1.5962
  124OSM   H11G13262   6.788   2.766   7.809 -0.6358 -2.1107 -0.9162
  124OSM   C12F13263   6.990   2.758   7.904  0.0281  0.2652 -0.1816
  124OSM   H12F13264   7.096   2.775   7.873  0.3286  0.0165  0.6853
  124OSM   H12G13265   6.980   2.660   7.955 -2.5358  0.4259 -0.3206
  124OSM   C13F13266   6.962   2.872   8.005  0.0868  0.2707 -0.5849
  124OSM   H13F13267   6.995   2.970   7.964  1.5160  0.0007 -0.1074
  124OSM   H13G13268   7.034   2.849   8.086  0.5510 -2.4174 -1.7038
  124OSM   C14F13269   6.816   2.895   8.049 -0.0488 -0.0211 -0.0992
  124OSM   H14F13270   6.765   2.799   8.071  1.5317 -0.8748 -0.1311
  124OSM   H14G13271   6.747   2.938   7.973 -1.7581  0.5131  1.7029
  124OSM   C15F13272   6.812   2.976   8.178  0.5054 -0.3110 -0.4242
  124OSM   H15F13273   6.833   3.084   8.164 -0.2294 -0.1098  0.0371
  124OSM   H15G13274   6.877   2.941   8.261 -0.2004 -0.7797 -0.0639
  124OSM   C16F13275   6.671   2.973   8.250  0.4035  0.2918  0.4690
  124OSM   H16F13276   6.643   2.866   8.240  5.7617 -1.3211  1.4321
  124OSM   H16G13277   6.601   3.031   8.186  1.3478  1.4071  0.4453
  124OSM   C17F13278   6.670   3.027   8.394  0.4871  0.0840  0.5073
  124OSM   H17F13279   6.701   3.133   8.384 -1.1884  0.5257 -0.3003
  124OSM   H17G13280   6.741   2.975   8.460  0.5974 -0.0524  0.2821
  124OSM   C18F13281   6.534   3.013   8.466  0.2682  0.5907  0.0242
  124OSM   H18F13282   6.531   3.078   8.556  2.2758  1.2293 -0.3662
  124OSM   H18G13283   6.513   2.904   8.479  2.8395 -0.1730 -1.8714
  124OSM   H18H13284   6.454   3.047   8.396 -0.1464 -0.5839 -0.0817
  125OSM      N13285   6.023   3.598   6.438  0.2324  0.0547  0.0743
  125OSM    C1513286   5.934   3.482   6.402  0.1339  0.9718  0.3652
  125OSM   H15A13287   5.856   3.511   6.333  1.6911  2.3935 -0.8277
  125OSM   H15B13288   5.891   3.432   6.488 -0.2109  0.4659 -0.1013
  125OSM   H15C13289   5.995   3.413   6.347 -2.4093 -0.7904 -0.3088
  125OSM    C1413290   6.074   3.660   6.310  0.7956  0.0744  0.0911
  125OSM   H14A13291   6.004   3.712   6.247  1.4067  0.2573 -0.4299
  125OSM   H14B13292   6.126   3.588   6.248  3.1364  1.7463  0.0604
  125OSM   H14C13293   6.150   3.734   6.328  0.9552  0.2462 -1.2759
  125OSM    C1313294   5.945   3.703   6.514  0.4123 -0.0717 -0.5246
  125OSM   H13A13295   5.912   3.662   6.608 -1.8820 -0.9427 -1.6607
  125OSM   H13B13296   5.851   3.725   6.465 -0.5107 -1.0851  0.7498
  125OSM   H13C13297   6.006   3.790   6.530  1.3616 -0.5189 -1.7091
  125OSM    C1213298   6.140   3.555   6.516 -0.4451 -0.2387 -0.1823
  125OSM   H12A13299   6.204   3.502   6.447  0.7252  1.2546 -0.2692
  125OSM   H12B13300   6.119   3.486   6.596  2.3300  3.1335  3.7004
  125OSM    C1113301   6.225   3.663   6.582  0.4045 -0.6598 -0.2448
  125OSM   H11A13302   6.308   3.612   6.636  0.2218 -0.2721  0.4109
  125OSM   H11B13303   6.176   3.721   6.664 -1.1504 -1.6638 -0.4490
  125OSM      P13304   6.407   3.724   6.400  0.2723  0.0846 -0.0113
  125OSM    O1313305   6.368   3.602   6.325  0.3363 -0.3664  0.9484
  125OSM    O1413306   6.445   3.835   6.312  0.2837 -0.0361 -0.8447
  125OSM    O1113307   6.518   3.700   6.506  0.2884  0.0856 -0.0568
  125OSM    O1213308   6.282   3.759   6.489  0.4945 -0.4898  0.0231
  125OSM    C1S13309   6.584   3.806   6.573  0.0736 -0.0733  0.2226
  125OSM    H1S13310   6.561   3.907   6.532  0.2897 -0.2842 -0.4180
  125OSM    H1T13311   6.694   3.787   6.566 -0.0500 -0.7385  0.1420
  125OSM     NF13312   6.633   3.906   6.789  0.2747 -0.5414 -0.1425
  125OSM    HNF13313   6.725   3.891   6.825  0.1181  0.1368  0.5493
  125OSM    C2S13314   6.559   3.792   6.726  0.5727  0.2688  0.1020
  125OSM    H2S13315   6.452   3.807   6.751  0.3790 -3.2906  1.7482
  125OSM    C3S13316   6.596   3.650   6.778  0.2105 -0.3802  0.4956
  125OSM    H3S13317   6.706   3.650   6.790  0.1692  0.7013  1.0001
  125OSM     O313318   6.561   3.540   6.691  0.3251  0.1239  0.4541
  125OSM    HO313319   6.546   3.578   6.604  3.0764  0.0152 -0.1128
  125OSM    C4S13320   6.533   3.636   6.923  0.0174  0.7749 -0.2858
  125OSM    H4S13321   6.592   3.677   7.007  0.6873  0.6518 -0.6970
  125OSM    C5S13322   6.414   3.586   6.965  0.1943  0.2983  0.2589
  125OSM    H5S13323   6.350   3.536   6.891  1.5207 -0.4468 -0.4125
  125OSM    C6S13324   6.360   3.576   7.099 -0.0875 -0.4276 -0.2445
  125OSM    H6S13325   6.317   3.474   7.104  0.5108 -0.6617  0.0984
  125OSM    H6T13326   6.269   3.639   7.109 -0.5113 -0.9969 -0.5206
  125OSM    C7S13327   6.453   3.609   7.214  0.8805 -0.3885  0.2007
  125OSM    H7S13328   6.459   3.719   7.202 -0.9220 -0.3526 -0.5306
  125OSM    H7T13329   6.551   3.557   7.218  0.8480 -0.4237  0.5669
  125OSM    C8S13330   6.397   3.591   7.353 -0.2905 -0.2401  0.3170
  125OSM    H8S13331   6.397   3.485   7.385  0.3638 -0.2143  0.4221
  125OSM    H8T13332   6.292   3.627   7.352  0.0820  0.8638 -1.6745
  125OSM    C9S13333   6.479   3.672   7.457  0.1892  0.7570 -0.1950
  125OSM    H9S13334   6.455   3.778   7.435  0.9052  0.7909 -0.8266
  125OSM    H9T13335   6.586   3.651   7.435 -0.1013  0.9810 -1.8695
  125OSM   C10S13336   6.438   3.629   7.606 -0.0378 -0.0302  0.8257
  125OSM   H10S13337   6.467   3.523   7.624 -2.1189 -0.3682  2.3243
  125OSM   H10T13338   6.328   3.628   7.620 -0.3304 -1.0079 -1.2843
  125OSM   C11S13339   6.487   3.714   7.721  0.2533  0.2575 -0.4665
  125OSM   H11S13340   6.491   3.821   7.692  2.4016 -0.1283 -1.6866
  125OSM   H11T13341   6.593   3.689   7.740  0.2952  0.2733 -0.6886
  125OSM   C12S13342   6.406   3.710   7.853 -0.8267 -0.5832  0.4096
  125OSM   H12S13343   6.425   3.610   7.898 -2.3200 -0.8997  0.3766
  125OSM   H12T13344   6.296   3.703   7.839 -0.6306 -1.8187 -0.5522
  125OSM   C13S13345   6.455   3.824   7.937 -0.6712  0.8225  0.3537
  125OSM   H13S13346   6.442   3.922   7.886 -0.4759  0.9790  0.6019
  125OSM   H13T13347   6.564   3.810   7.952 -0.4010  1.6591 -0.7628
  125OSM   C14S13348   6.371   3.835   8.071  0.0589 -0.2392 -0.2505
  125OSM   H14S13349   6.396   3.757   8.147 -0.3733 -0.3613 -0.2292
  125OSM   H14T13350   6.263   3.822   8.050 -0.8150  3.7952  1.2916
  125OSM   C15S13351   6.371   3.976   8.138  0.1724  0.0412 -0.2371
  125OSM   H15S13352   6.299   3.951   8.218  0.4017  0.6631  0.1664
  125OSM   H15T13353   6.322   4.045   8.065 -1.2567 -0.8730 -0.1549
  125OSM   C16S13354   6.512   4.023   8.180  0.4199 -0.1162  0.6021
  125OSM   H16S13355   6.560   4.057   8.085 -1.8810  2.2803  0.2313
  125OSM   H16T13356   6.573   3.932   8.200 -1.8034 -1.6910  0.3778
  125OSM   C17S13357   6.517   4.125   8.302  0.5537  0.3854 -0.0823
  125OSM   H17S13358   6.437   4.093   8.373  0.1869 -0.4384 -0.8550
  125OSM   H17T13359   6.483   4.221   8.260  1.4596  1.4366  1.5259
  125OSM   C18S13360   6.652   4.122   8.374  0.3487 -0.4378 -0.9999
  125OSM   H18S13361   6.729   4.182   8.321 -0.1324  2.7701  1.7197
  125OSM   H18T13362   6.686   4.020   8.402  0.3772 -0.0154  0.5716
  125OSM   H18U13363   6.641   4.175   8.471  0.2982 -2.5122  0.1669
  125OSM    C1F13364   6.598   4.032   6.778  0.0568  0.5441  0.1069
  125OSM     OF13365   6.484   4.061   6.748  0.2987 -0.3032  0.3471
  125OSM    C2F13366   6.709   4.133   6.808 -0.1532 -0.4671 -0.1117
  125OSM    H2F13367   6.668   4.235   6.794  0.4563  0.1295  2.2132
  125OSM    H2G13368   6.796   4.122   6.739  0.1198 -0.2163  0.1952
  125OSM    C3F13369   6.756   4.145   6.955 -0.2457 -0.3875 -0.0052
  125OSM    H3F13370   6.793   4.250   6.963 -0.3819 -0.3872  0.6315
  125OSM    H3G13371   6.840   4.073   6.970  0.7579  1.0035  1.3112
  125OSM    C4F13372   6.636   4.127   7.053  0.5651  0.2243 -0.1792
  125OSM    H4F13373   6.565   4.047   7.024  0.9534 -0.5426  0.9517
  125OSM    H4G13374   6.576   4.221   7.053  1.5361  0.8613 -1.1729
  125OSM    C5F13375   6.697   4.085   7.188 -0.0424 -0.1050 -1.0454
  125OSM    H5F13376   6.755   4.175   7.217 -0.7951  0.0731 -0.0635
  125OSM    H5G13377   6.767   4.000   7.182 -0.3063 -0.3910 -0.1260
  125OSM    C6F13378   6.594   4.057   7.297  0.1940 -0.5120 -0.3157
  125OSM    H6F13379   6.543   3.966   7.260 -0.6098  1.0214 -3.1394
  125OSM    H6G13380   6.517   4.135   7.314  0.4202 -0.0629 -1.3025
  125OSM    C7F13381   6.662   4.026   7.431 -0.1442  0.1537 -0.4537
  125OSM    H7F13382   6.750   3.966   7.401  0.2756  1.3467 -1.6524
  125OSM    H7G13383   6.591   3.976   7.501 -0.6176  2.8476  1.0523
  125OSM    C8F13384   6.719   4.145   7.511 -0.2312 -0.2698 -0.2757
  125OSM    H8F13385   6.809   4.176   7.454  1.1259 -2.4962  0.5957
  125OSM    H8G13386   6.759   4.117   7.610 -0.7164 -1.7840 -0.4942
  125OSM    C9F13387   6.630   4.263   7.519 -0.0865 -0.1713 -0.1396
  125OSM    H9F13388   6.634   4.340   7.440 -1.5961 -2.7151 -2.7832
  125OSM   C10F13389   6.560   4.311   7.627 -0.1235  0.3411  0.7444
  125OSM   H10F13390   6.492   4.397   7.618  0.0606  0.7943  3.3783
  125OSM   C11F13391   6.551   4.240   7.754  0.1524 -0.2237  0.3728
  125OSM   H11F13392   6.644   4.183   7.775  0.6964  0.7599  0.6676
  125OSM   H11G13393   6.469   4.166   7.742 -0.1306  0.2712 -0.8086
  125OSM   C12F13394   6.539   4.322   7.883  0.5969 -0.1110  0.1532
  125OSM   H12F13395   6.628   4.381   7.914  2.3317 -3.1854  1.2552
  125OSM   H12G13396   6.527   4.256   7.971  0.6696  0.8427  0.8913
  125OSM   C13F13397   6.416   4.417   7.895 -0.5472  0.1146 -0.4588
  125OSM   H13F13398   6.343   4.377   7.821 -0.3399  2.3043 -1.8817
  125OSM   H13G13399   6.452   4.515   7.857  2.5924 -0.3112  1.1914
  125OSM   C14F13400   6.353   4.429   8.030  0.7335  0.2645 -0.9542
  125OSM   H14F13401   6.310   4.329   8.054 -0.7445  0.6842 -1.8288
  125OSM   H14G13402   6.266   4.497   8.016 -0.2713  0.0432  3.3350
  125OSM   C15F13403   6.447   4.475   8.141  0.2931  0.5318  0.1221
  125OSM   H15F13404   6.502   4.566   8.107  1.7756 -0.0070  1.0229
  125OSM   H15G13405   6.523   4.397   8.165 -0.4033 -0.4704 -0.9052
  125OSM   C16F13406   6.377   4.509   8.277 -0.2170 -0.6457 -0.1177
  125OSM   H16F13407   6.315   4.421   8.301 -0.8691  0.4778  2.5066
  125OSM   H16G13408   6.302   4.589   8.260 -1.4331 -1.1865  2.6137
  125OSM   C17F13409   6.475   4.539   8.395 -0.0784 -0.2227  0.0825
  125OSM   H17F13410   6.541   4.622   8.363 -1.4034  0.6586 -0.4117
  125OSM   H17G13411   6.536   4.447   8.406 -0.1586 -0.2712  0.1220
  125OSM   C18F13412   6.391   4.550   8.523 -0.8240 -1.1174  0.9758
  125OSM   H18F13413   6.453   4.583   8.609 -2.1418  2.1352  0.7637
  125OSM   H18G13414   6.363   4.445   8.546  0.2067 -1.6022  0.1009
  125OSM   H18H13415   6.299   4.609   8.507  0.4043  0.2380 -1.4296
  126OSM      N13416   4.614   3.387   6.500 -0.2708  0.6073 -0.5790
  126OSM    C1513417   4.587   3.499   6.600  0.2302  0.9589  0.7895
  126OSM   H15A13418   4.485   3.492   6.635  0.7196 -1.0908  1.8975
  126OSM   H15B13419   4.593   3.594   6.549  1.6219  0.6328  0.3211
  126OSM   H15C13420   4.661   3.492   6.679  0.9687 -0.3496 -0.0058
  126OSM    C1413421   4.520   3.409   6.389  0.6836 -0.0812 -1.3530
  126OSM   H14A13422   4.528   3.337   6.309 -0.7093  1.9716 -3.4194
  126OSM   H14B13423   4.520   3.513   6.361 -0.5802  0.9366  2.1104
  126OSM   H14C13424   4.418   3.398   6.424  0.7613  1.4882 -0.5990
  126OSM    C1313425   4.761   3.403   6.463 -0.4603  0.8524  0.5800
  126OSM   H13A13426   4.782   3.507   6.444  2.7021 -0.2213 -2.3761
  126OSM   H13B13427   4.795   3.338   6.384  0.2726  1.5698  0.3089
  126OSM   H13C13428   4.829   3.372   6.542 -0.1789  0.9913  0.3913
  126OSM    C1213429   4.594   3.255   6.561  0.0869  0.7107  0.2514
  126OSM   H12A13430   4.686   3.221   6.607 -0.4307  0.6182  1.2474
  126OSM   H12B13431   4.571   3.184   6.483 -1.4180 -0.1344  1.4253
  126OSM    C1113432   4.477   3.232   6.664  0.0263  0.2763  0.1317
  126OSM   H11A13433   4.498   3.298   6.750 -0.5609 -1.1147  1.3727
  126OSM   H11B13434   4.478   3.133   6.714 -1.1546  0.4758  0.5786
  126OSM      P13435   4.287   3.143   6.517 -0.2424  0.1615 -0.2914
  126OSM    O1313436   4.187   3.215   6.433  0.0897 -0.2195  0.7916
  126OSM    O1413437   4.398   3.073   6.452 -0.1239  0.0411  0.5698
  126OSM    O1113438   4.212   3.054   6.620  0.0199 -0.5045 -0.5277
  126OSM    O1213439   4.354   3.265   6.600  0.0714  0.0879 -0.1150
  126OSM    C1S13440   4.156   3.107   6.743  0.5355  0.0867 -0.1378
  126OSM    H1S13441   4.070   3.175   6.725 -1.9973 -3.0545 -0.2925
  126OSM    H1T13442   4.235   3.157   6.802 -0.7178 -1.2952  2.8174
  126OSM     NF13443   4.068   3.055   6.964 -0.1524 -0.7949  0.2262
  126OSM    HNF13444   4.120   3.063   7.048 -1.2253  1.4126  0.7298
  126OSM    C2S13445   4.116   2.993   6.843 -0.2329  0.0605  1.1663
  126OSM    H2S13446   4.036   2.933   6.795 -0.3575  1.7377 -0.8216
  126OSM    C3S13447   4.237   2.900   6.871 -0.1496 -0.4601  0.5829
  126OSM    H3S13448   4.317   2.953   6.928  1.1344 -2.8023  1.0414
  126OSM     O313449   4.311   2.849   6.760 -0.1467 -0.4438  0.2004
  126OSM    HO313450   4.269   2.873   6.677  0.5144 -2.0988 -0.6299
  126OSM    C4S13451   4.191   2.784   6.963 -0.3662  0.0636 -0.2182
  126OSM    H4S13452   4.231   2.785   7.066  0.1551 -0.5742 -0.4058
  126OSM    C5S13453   4.139   2.669   6.920  0.1754  0.0082 -0.3144
  126OSM    H5S13454   4.114   2.662   6.813 -3.6159  0.8468  0.4418
  126OSM    C6S13455   4.116   2.551   7.010  0.1170  0.2737  0.3296
  126OSM    H6S13456   4.105   2.470   6.935  0.5357  0.6665 -0.1574
  126OSM    H6T13457   4.022   2.558   7.070 -0.9543 -2.9803 -0.8298
  126OSM    C7S13458   4.236   2.524   7.108  0.8428 -0.6178 -0.0277
  126OSM    H7S13459   4.272   2.609   7.170  4.4809 -2.5644  0.6921
  126OSM    H7T13460   4.320   2.497   7.041  0.2655 -0.4273 -0.8392
  126OSM    C8S13461   4.211   2.410   7.209 -0.6309 -0.3981 -0.0526
  126OSM    H8S13462   4.305   2.386   7.263 -1.1839 -0.1137  1.0496
  126OSM    H8T13463   4.181   2.315   7.160 -1.4742 -0.2052  0.0880
  126OSM    C9S13464   4.099   2.451   7.309  0.0164  0.5837  0.2528
  126OSM    H9S13465   4.002   2.454   7.255 -0.0752 -0.3903  0.3575
  126OSM    H9T13466   4.124   2.549   7.356  3.0927 -0.4664  0.9584
  126OSM   C10S13467   4.077   2.345   7.409  0.3334 -0.3987  0.5104
  126OSM   H10S13468   4.164   2.334   7.477  0.3287  1.3302  0.8116
  126OSM   H10T13469   4.059   2.250   7.354  1.1860  0.0317 -0.5245
  126OSM   C11S13470   3.957   2.392   7.494 -0.7176  0.8905  0.0380
  126OSM   H11S13471   3.866   2.406   7.432 -1.0504 -0.0207  0.3007
  126OSM   H11T13472   3.982   2.487   7.545  0.6083 -0.2556  1.5831
  126OSM   C12S13473   3.921   2.290   7.602  0.1657 -0.0150  0.0887
  126OSM   H12S13474   4.010   2.290   7.668 -0.0500  2.8409  0.4391
  126OSM   H12T13475   3.904   2.189   7.558 -2.1009 -0.7158  2.5004
  126OSM   C13S13476   3.786   2.330   7.673  0.4513 -0.2602  0.2913
  126OSM   H13S13477   3.707   2.314   7.596  1.2822  1.4915 -0.9776
  126OSM   H13T13478   3.788   2.438   7.702  0.1726 -0.3320  0.5711
  126OSM   C14S13479   3.757   2.256   7.798 -0.5556  0.2191 -0.1711
  126OSM   H14S13480   3.816   2.310   7.875 -0.6161  0.2983 -0.1810
  126OSM   H14T13481   3.799   2.153   7.808  0.0446  0.5076  0.3268
  126OSM   C15S13482   3.606   2.260   7.843 -0.5128  0.7497  0.1801
  126OSM   H15S13483   3.556   2.183   7.780 -1.8204  0.3639  1.6897
  126OSM   H15T13484   3.555   2.356   7.824 -0.6763  0.8586  1.1467
  126OSM   C16S13485   3.581   2.255   7.986 -0.0675 -0.0199 -0.1789
  126OSM   H16S13486   3.662   2.318   8.030 -2.1697  2.6638 -0.0201
  126OSM   H16T13487   3.585   2.155   8.034 -0.6679  0.0641  0.0460
  126OSM   C17S13488   3.439   2.301   8.022 -0.3229  0.2732 -0.2672
  126OSM   H17S13489   3.378   2.242   7.950  0.3601 -2.6187  1.4639
  126OSM   H17T13490   3.424   2.409   7.998  0.5650  0.9284  2.0335
  126OSM   C18S13491   3.390   2.268   8.165 -0.0644 -0.5569  0.0123
  126OSM   H18S13492   3.374   2.159   8.177  1.1788 -0.8058 -0.5018
  126OSM   H18T13493   3.294   2.319   8.186 -0.0231  0.0952 -1.2986
  126OSM   H18U13494   3.468   2.301   8.236 -1.5781  1.2771  0.8726
  126OSM    C1F13495   3.956   3.127   6.960 -0.4841  0.0714 -0.5221
  126OSM     OF13496   3.892   3.140   6.858  0.0644  0.0577 -0.2556
  126OSM    C2F13497   3.919   3.202   7.088 -0.1986  1.2737  0.6009
  126OSM    H2F13498   4.010   3.215   7.151 -0.1978  1.1419  0.6266
  126OSM    H2G13499   3.853   3.143   7.154 -0.4117  0.0756 -0.6591
  126OSM    C3F13500   3.853   3.338   7.058  0.9707 -0.8193  0.2344
  126OSM    H3F13501   3.775   3.314   6.983 -1.5229  3.3145  1.3269
  126OSM    H3G13502   3.924   3.411   7.013  2.4558 -2.6678 -0.4704
  126OSM    C4F13503   3.782   3.416   7.171 -0.4684 -0.0210 -0.0286
  126OSM    H4F13504   3.707   3.349   7.217  0.8047 -0.9152  0.7603
  126OSM    H4G13505   3.730   3.509   7.139  0.1976  0.0112 -1.0474
  126OSM    C5F13506   3.890   3.439   7.278  0.0629  0.9676 -0.3219
  126OSM    H5F13507   3.972   3.496   7.230 -1.3757  3.1750 -0.2282
  126OSM    H5G13508   3.938   3.344   7.310 -0.8038  1.0178  1.1907
  126OSM    C6F13509   3.836   3.539   7.385  0.0624  0.2582  0.1799
  126OSM    H6F13510   3.756   3.494   7.448 -2.4115  1.5290 -1.9883
  126OSM    H6G13511   3.792   3.629   7.337 -1.1431 -0.6502 -0.4596
  126OSM    C7F13512   3.937   3.580   7.493  0.1598 -0.2797  0.1812
  126OSM    H7F13513   4.025   3.627   7.444  1.2053 -1.9729  0.4015
  126OSM    H7G13514   3.979   3.486   7.534 -1.2783 -1.4902 -1.0480
  126OSM    C8F13515   3.886   3.670   7.599  0.1385 -0.7540 -1.1817
  126OSM    H8F13516   3.794   3.628   7.647  0.4968  1.2474  1.3514
  126OSM    H8G13517   3.861   3.760   7.539 -2.7997 -2.5593 -2.8473
  126OSM    C9F13518   3.995   3.681   7.704 -0.4667 -0.0351  0.7601
  126OSM    H9F13519   4.080   3.613   7.687  0.3611  1.0925  0.3698
  126OSM   C10F13520   3.978   3.764   7.813 -0.5553  0.4363  0.2992
  126OSM   H10F13521   4.067   3.771   7.877  0.3456 -0.1105 -0.8625
  126OSM   C11F13522   3.862   3.861   7.844 -0.1818 -0.0123 -0.0102
  126OSM   H11F13523   3.819   3.899   7.749 -2.1678 -0.0200  0.8526
  126OSM   H11G13524   3.909   3.951   7.890  1.3419  0.6697 -2.8245
  126OSM   C12F13525   3.761   3.800   7.947 -0.4963 -0.1777  0.8831
  126OSM   H12F13526   3.722   3.710   7.894 -0.3349 -1.2894  2.6371
  126OSM   H12G13527   3.681   3.877   7.953  1.0224  1.3244  2.4566
  126OSM   C13F13528   3.812   3.765   8.087 -0.4978  0.0468 -0.0154
  126OSM   H13F13529   3.724   3.776   8.154 -1.0050 -0.1856 -0.6407
  126OSM   H13G13530   3.889   3.838   8.120 -0.0139 -0.1312 -0.7365
  126OSM   C14F13531   3.861   3.620   8.091  0.3315  0.4374 -0.0303
  126OSM   H14F13532   3.927   3.595   8.005  0.9528  0.8717  0.3159
  126OSM   H14G13533   3.775   3.550   8.082  1.6520 -1.2468  0.1692
  126OSM   C15F13534   3.922   3.585   8.235 -0.2103 -0.4350 -0.0450
  126OSM   H15F13535   3.844   3.622   8.305 -0.8455 -1.2188 -0.3320
  126OSM   H15G13536   4.007   3.657   8.235 -0.7357  0.2182 -1.8921
  126OSM   C16F13537   3.975   3.439   8.251 -0.1578  0.0812  0.4437
  126OSM   H16F13538   4.057   3.419   8.178 -1.5780 -1.3345 -0.8100
  126OSM   H16G13539   3.893   3.366   8.233 -1.0166  0.4901  2.5070
  126OSM   C17F13540   4.040   3.417   8.385 -0.4373 -0.6097 -0.2096
  126OSM   H17F13541   4.127   3.486   8.399  0.0712 -0.5957 -3.0880
  126OSM   H17G13542   4.084   3.317   8.404 -1.6206 -1.0378  0.3273
  126OSM   C18F13543   3.944   3.428   8.510 -0.7005 -0.3412  0.3325
  126OSM   H18F13544   3.843   3.381   8.501 -0.7250 -0.5644  1.8094
  126OSM   H18G13545   3.921   3.537   8.516  1.8332  0.2300  0.1610
  126OSM   H18H13546   4.001   3.390   8.597  1.0853  0.4158 -0.4834
  127OSM      N13547   4.581   1.222   6.009  0.6799  0.4790 -0.1853
  127OSM    C1513548   4.693   1.304   5.954  0.2002  0.3406 -0.6580
  127OSM   H15A13549   4.699   1.295   5.847 -0.0156  2.1958 -0.8523
  127OSM   H15B13550   4.780   1.247   5.985 -0.0223 -0.5648 -1.6819
  127OSM   H15C13551   4.698   1.403   5.998  0.9828  0.2946 -0.6316
  127OSM    C1413552   4.458   1.306   5.989  0.0205 -1.1225 -0.0489
  127OSM   H14A13553   4.372   1.246   6.015 -0.2218 -0.8322 -0.1797
  127OSM   H14B13554   4.449   1.329   5.884 -0.5378 -0.8764  0.0526
  127OSM   H14C13555   4.444   1.388   6.058  3.7948 -0.6670  0.2919
  127OSM    C1313556   4.578   1.095   5.926  0.3559  0.1910  0.6135
  127OSM   H13A13557   4.542   1.112   5.825 -0.4689 -2.6594  0.3953
  127OSM   H13B13558   4.514   1.029   5.982  1.1752  1.0650  2.6171
  127OSM   H13C13559   4.673   1.044   5.926  0.8366  1.0821  1.0946
  127OSM    C1213560   4.602   1.188   6.156 -0.2538  0.6594  0.3357
  127OSM   H12A13561   4.509   1.149   6.197  0.2547 -0.8200  0.0898
  127OSM   H12B13562   4.612   1.286   6.202  0.2341 -0.0605  1.7804
  127OSM    C1113563   4.716   1.094   6.199 -0.1307 -0.2367  0.1328
  127OSM   H11A13564   4.711   1.000   6.141  2.2583 -0.0996 -0.3428
  127OSM   H11B13565   4.710   1.067   6.306  0.1021 -0.2360  0.1452
  127OSM      P13566   4.926   1.253   6.239 -0.4141  0.5302 -0.1690
  127OSM    O1313567   5.063   1.251   6.181 -0.2042 -0.4147  0.0379
  127OSM    O1413568   4.853   1.385   6.247  0.3202 -0.0110 -0.4045
  127OSM    O1113569   4.934   1.175   6.379  0.0005  0.2516 -0.1513
  127OSM    O1213570   4.839   1.152   6.155  0.7192  0.1769  0.1963
  127OSM    C1S13571   4.961   1.241   6.504  0.0314 -0.8685 -0.3910
  127OSM    H1S13572   4.880   1.314   6.526  0.5620  0.4038 -2.5132
  127OSM    H1T13573   5.064   1.282   6.500  0.5669 -2.0130  1.0542
  127OSM     NF13574   5.005   1.233   6.743  0.8744  0.2386 -0.7689
  127OSM    HNF13575   5.092   1.194   6.773  0.8708  0.4686 -0.4560
  127OSM    C2S13576   4.949   1.160   6.633 -0.4058  0.1746 -0.4012
  127OSM    H2S13577   4.840   1.149   6.654 -0.5175  2.8501  0.5649
  127OSM    C3S13578   5.022   1.018   6.619  0.5437 -0.4838  0.5477
  127OSM    H3S13579   5.128   1.051   6.611  0.7088 -1.4123 -1.3249
  127OSM     O313580   4.994   0.943   6.499  0.3503 -0.7345 -0.3213
  127OSM    HO313581   4.957   1.017   6.449  0.5281 -1.0206 -0.8729
  127OSM    C4S13582   5.001   0.934   6.738 -0.7679  0.3011 -0.8417
  127OSM    H4S13583   4.901   0.891   6.759  0.5352 -1.8181  1.3444
  127OSM    C5S13584   5.105   0.888   6.812 -0.9111 -0.1316 -0.5562
  127OSM    H5S13585   5.210   0.906   6.785 -0.9862 -0.6187 -1.1713
  127OSM    C6S13586   5.090   0.794   6.926 -0.3408  0.4461 -0.4339
  127OSM    H6S13587   5.141   0.696   6.907 -1.4139 -0.4823  1.3118
  127OSM    H6T13588   4.988   0.761   6.955  0.4649 -0.0038  2.0182
  127OSM    C7S13589   5.143   0.853   7.058  0.1186 -0.5849  0.6806
  127OSM    H7S13590   5.088   0.949   7.066  1.9434  0.4748  0.5820
  127OSM    H7T13591   5.251   0.877   7.055  0.5107 -2.2447  0.9706
  127OSM    C8S13592   5.094   0.772   7.178  0.5985 -0.3101 -0.0144
  127OSM    H8S13593   5.139   0.671   7.173 -0.3239 -0.7754  0.8165
  127OSM    H8T13594   4.984   0.767   7.162  0.7312 -0.7725 -0.8111
  127OSM    C9S13595   5.119   0.844   7.311  0.3988 -0.3407  0.2058
  127OSM    H9S13596   5.067   0.789   7.393 -0.9591 -0.3929 -0.6814
  127OSM    H9T13597   5.079   0.948   7.303  0.5436 -0.3706 -0.9120
  127OSM   C10S13598   5.262   0.848   7.356 -0.5345  0.9898 -0.8930
  127OSM   H10S13599   5.328   0.903   7.285  1.6851 -0.5192 -0.0129
  127OSM   H10T13600   5.290   0.741   7.354  0.1613  1.0732  1.8011
  127OSM   C11S13601   5.291   0.898   7.497  0.0633 -0.4066  0.1096
  127OSM   H11S13602   5.240   0.835   7.573 -2.7550 -0.0312 -1.3859
  127OSM   H11T13603   5.261   1.004   7.512  0.6694 -0.2968  0.5578
  127OSM   C12S13604   5.445   0.882   7.534  0.2590  0.8140  0.5225
  127OSM   H12S13605   5.509   0.915   7.450 -0.2787 -0.7812 -0.5138
  127OSM   H12T13606   5.473   0.776   7.551 -2.5061 -0.1440 -0.5485
  127OSM   C13S13607   5.485   0.961   7.663  1.0516 -0.6412 -0.1910
  127OSM   H13S13608   5.413   0.939   7.744 -1.4514 -0.1889 -2.2390
  127OSM   H13T13609   5.489   1.069   7.636  0.3597 -0.7284 -0.6248
  127OSM   C14S13610   5.624   0.915   7.720 -0.5749  0.1048 -0.0902
  127OSM   H14S13611   5.706   0.966   7.666  1.3298 -0.0209  2.6113
  127OSM   H14T13612   5.625   0.805   7.703  1.0404  0.3080 -1.3530
  127OSM   C15S13613   5.647   0.949   7.871 -0.9411 -0.3013  0.1494
  127OSM   H15S13614   5.742   0.910   7.913 -1.8867 -0.3273  2.3510
  127OSM   H15T13615   5.567   0.897   7.927 -0.4156 -1.0955  0.1701
  127OSM   C16S13616   5.623   1.098   7.900 -0.2932  0.0230  0.8641
  127OSM   H16S13617   5.528   1.129   7.852  0.8025 -0.5841 -1.7917
  127OSM   H16T13618   5.709   1.148   7.850  0.1569  0.8523  2.4280
  127OSM   C17S13619   5.636   1.139   8.042 -0.7293  0.1369  0.2026
  127OSM   H17S13620   5.628   1.250   8.041  1.0818  0.4779  5.3051
  127OSM   H17T13621   5.738   1.115   8.078 -0.7748 -1.0227 -0.4380
  127OSM   C18S13622   5.534   1.077   8.144  0.1935 -0.0438  0.1080
  127OSM   H18S13623   5.428   1.096   8.116 -0.2414  0.7396  2.1581
  127OSM   H18T13624   5.557   1.131   8.239  0.3756  1.3343 -0.7074
  127OSM   H18U13625   5.543   0.967   8.158  0.4076 -0.0704 -0.2447
  127OSM    C1F13626   4.954   1.345   6.794 -0.2047 -0.6423 -0.1086
  127OSM     OF13627   4.840   1.380   6.763  0.2223  0.5810  0.0629
  127OSM    C2F13628   5.035   1.431   6.883 -0.3041  0.1817 -0.1520
  127OSM    H2F13629   5.042   1.531   6.835 -1.0344 -0.3844 -1.4698
  127OSM    H2G13630   5.136   1.385   6.883 -0.8858 -1.1301 -1.0262
  127OSM    C3F13631   4.976   1.424   7.027  0.3427  0.1336 -0.0629
  127OSM    H3F13632   4.965   1.316   7.053 -0.4509  0.3567  0.5204
  127OSM    H3G13633   4.878   1.474   7.032  1.3058  1.9176  1.5312
  127OSM    C4F13634   5.071   1.486   7.133 -0.2252 -0.2852  0.0357
  127OSM    H4F13635   5.088   1.595   7.118 -3.4539  0.2997  0.2047
  127OSM    H4G13636   5.169   1.443   7.105 -0.2882 -1.5502  1.7162
  127OSM    C5F13637   5.035   1.469   7.281 -0.6227 -0.3644  0.2261
  127OSM    H5F13638   5.066   1.365   7.305  1.7565  0.1285 -0.5935
  127OSM    H5G13639   4.925   1.486   7.286 -0.6126  0.3101 -1.5502
  127OSM    C6F13640   5.112   1.566   7.369  0.1947  0.4946 -0.3635
  127OSM    H6F13641   5.119   1.663   7.316  2.1558  0.1450 -0.7742
  127OSM    H6G13642   5.213   1.521   7.374 -0.4880 -1.0459  0.0331
  127OSM    C7F13643   5.069   1.578   7.511 -0.0656 -0.2452  0.0631
  127OSM    H7F13644   4.982   1.646   7.502 -0.9215 -1.4020 -0.5101
  127OSM    H7G13645   5.146   1.632   7.571 -1.7369  1.5482  0.6634
  127OSM    C8F13646   5.047   1.450   7.585  0.1379 -0.2348  0.0674
  127OSM    H8F13647   5.138   1.386   7.579  1.3427  1.3763  1.1101
  127OSM    H8G13648   4.972   1.386   7.534 -0.9554  1.4196 -0.4377
  127OSM    C9F13649   5.008   1.484   7.731  0.0226 -0.3836 -0.2229
  127OSM    H9F13650   4.923   1.552   7.736  1.0116  0.8741 -0.1932
  127OSM   C10F13651   5.085   1.474   7.843  0.2319  0.5096 -0.7804
  127OSM   H10F13652   5.054   1.513   7.941  0.0384 -3.0829  0.6742
  127OSM   C11F13653   5.219   1.417   7.847  0.3377  0.0240 -0.1168
  127OSM   H11F13654   5.297   1.490   7.881  0.5602 -0.7004  0.9772
  127OSM   H11G13655   5.245   1.398   7.741 -1.6229 -0.5069 -0.5145
  127OSM   C12F13656   5.233   1.289   7.929 -0.4625 -0.3774 -0.9640
  127OSM   H12F13657   5.332   1.238   7.931 -1.2942 -2.0165 -0.7549
  127OSM   H12G13658   5.158   1.209   7.910  1.3087 -2.1822 -0.4744
  127OSM   C13F13659   5.215   1.313   8.079  0.7860  0.3958  0.4476
  127OSM   H13F13660   5.219   1.215   8.132 -0.1404  0.7256  1.1329
  127OSM   H13G13661   5.112   1.341   8.109  1.3892  0.4971  2.4826
  127OSM   C14F13662   5.326   1.400   8.136  0.0425  0.5057  0.4584
  127OSM   H14F13663   5.295   1.501   8.100 -0.6044 -0.6929 -2.5004
  127OSM   H14G13664   5.424   1.372   8.092  1.4929  3.3584  1.7062
  127OSM   C15F13665   5.341   1.392   8.286 -0.4872  0.5115 -0.7983
  127OSM   H15F13666   5.342   1.285   8.318 -4.5846  0.7467  0.4340
  127OSM   H15G13667   5.252   1.441   8.332  0.8257  1.9463  0.2744
  127OSM   C16F13668   5.464   1.468   8.335  0.2984  0.1382 -0.3401
  127OSM   H16F13669   5.474   1.567   8.288  0.3686 -1.0782 -2.9492
  127OSM   H16G13670   5.553   1.413   8.298  0.5643 -0.0807  0.6008
  127OSM   C17F13671   5.473   1.477   8.493  0.3565  0.0244 -0.1050
  127OSM   H17F13672   5.480   1.371   8.527  2.6263  0.2693  0.2616
  127OSM   H17G13673   5.392   1.530   8.547 -1.8194 -1.3153 -1.9173
  127OSM   C18F13674   5.601   1.549   8.535  0.1081 -0.5488  0.1535
  127OSM   H18F13675   5.602   1.551   8.646  0.8180 -0.2510  0.1489
  127OSM   H18G13676   5.594   1.652   8.494  0.9191 -0.2203  0.8154
  127OSM   H18H13677   5.687   1.489   8.496  0.6151 -0.6177  1.3702
  128OSM      N13678   0.925   5.412   5.828 -0.1225  0.8202  0.1632
  128OSM    C1513679   0.900   5.274   5.773  0.0778  0.2435 -0.5451
  128OSM   H15A13680   0.810   5.272   5.714  0.1503 -0.8233 -0.6262
  128OSM   H15B13681   0.881   5.202   5.851 -1.3268  0.7741 -0.3697
  128OSM   H15C13682   0.978   5.230   5.713  0.1279  1.7383 -1.6200
  128OSM    C1413683   1.047   5.412   5.917  0.7099  0.2894 -0.2498
  128OSM   H14A13684   1.063   5.503   5.974  3.1905 -1.4183  1.8961
  128OSM   H14B13685   1.131   5.384   5.856 -1.5084  0.8247 -3.7067
  128OSM   H14C13686   1.039   5.331   5.988  3.2149 -0.9884 -1.3896
  128OSM    C1313687   0.960   5.508   5.717 -0.0902 -0.1538  0.9109
  128OSM   H13A13688   0.981   5.606   5.757 -2.5798 -0.1747  2.3500
  128OSM   H13B13689   0.878   5.508   5.647  0.6424  1.9412  0.0316
  128OSM   H13C13690   1.048   5.480   5.660  0.8052  1.8084  1.2897
  128OSM    C1213691   0.810   5.471   5.914  0.7008 -0.2606  0.1519
  128OSM   H12A13692   0.729   5.496   5.847  0.1937  1.4546  1.3667
  128OSM   H12B13693   0.844   5.559   5.967  1.5428 -1.5058  1.7146
  128OSM    C1113694   0.761   5.398   6.040 -0.0747  0.0377  0.2325
  128OSM   H11A13695   0.690   5.466   6.091 -2.4601 -2.9409  1.0309
  128OSM   H11B13696   0.854   5.373   6.096  0.7627 -1.0766 -1.5860
  128OSM      P13697   0.554   5.255   5.951  0.2917  0.1238 -0.5681
  128OSM    O1313698   0.534   5.353   5.840  0.5850  0.6140 -0.1260
  128OSM    O1413699   0.541   5.110   5.917  0.2441  0.4038 -0.0263
  128OSM    O1113700   0.453   5.287   6.067  0.6120 -0.1092  0.1077
  128OSM    O1213701   0.694   5.275   6.015 -0.8161  0.0701  0.1162
  128OSM    C1S13702   0.431   5.189   6.167  0.2360  0.1732 -0.6805
  128OSM    H1S13703   0.439   5.087   6.124  1.9291  1.1838 -2.8713
  128OSM    H1T13704   0.327   5.184   6.207  0.4513  2.2613  0.2107
  128OSM     NF13705   0.497   5.101   6.384  0.2119 -0.1098 -0.1023
  128OSM    HNF13706   0.451   5.129   6.467 -0.7460  2.7046 -1.4932
  128OSM    C2S13707   0.522   5.207   6.294  0.3991 -0.2729 -0.5839
  128OSM    H2S13708   0.630   5.207   6.270  0.6417  1.6041  0.3961
  128OSM    C3S13709   0.482   5.347   6.362  0.6597  0.2764  0.2277
  128OSM    H3S13710   0.376   5.338   6.395  1.0297  1.2296  1.7349
  128OSM     O313711   0.503   5.460   6.278  0.2944 -0.2263  0.3459
  128OSM    HO313712   0.486   5.430   6.188  1.1305  0.0928  0.0688
  128OSM    C4S13713   0.557   5.377   6.484  0.9201 -0.4193  0.1893
  128OSM    H4S13714   0.489   5.400   6.567  0.6685 -2.8935  0.7252
  128OSM    C5S13715   0.686   5.399   6.501 -0.0815  0.3904 -0.9736
  128OSM    H5S13716   0.749   5.395   6.411 -1.1499  0.5112 -1.7253
  128OSM    C6S13717   0.751   5.434   6.628 -0.0906  0.4463  0.3834
  128OSM    H6S13718   0.763   5.544   6.632 -1.4506  0.5936  0.7054
  128OSM    H6T13719   0.854   5.394   6.628 -0.4073 -0.3980 -1.1603
  128OSM    C7S13720   0.688   5.375   6.750 -0.3054 -0.2058 -0.1395
  128OSM    H7S13721   0.692   5.264   6.739 -0.0361 -0.2439  0.3171
  128OSM    H7T13722   0.583   5.408   6.761 -0.1826  0.8837 -2.0801
  128OSM    C8S13723   0.756   5.410   6.882 -0.3542  0.3323 -0.3622
  128OSM    H8S13724   0.762   5.521   6.895  1.1358  0.1784  0.3470
  128OSM    H8T13725   0.860   5.375   6.870 -0.2279  0.3308  0.7455
  128OSM    C9S13726   0.687   5.337   7.003 -0.3842 -0.2458 -0.0536
  128OSM    H9S13727   0.697   5.227   7.006  1.4588 -0.1470 -1.6045
  128OSM    H9T13728   0.581   5.372   7.008 -0.7755 -1.6070  1.4618
  128OSM   C10S13729   0.747   5.383   7.138 -0.3288 -0.2454  0.6929
  128OSM   H10S13730   0.745   5.494   7.139 -0.9396 -0.1542 -2.9728
  128OSM   H10T13731   0.857   5.373   7.135 -0.3295 -0.9781  2.6970
  128OSM   C11S13732   0.693   5.325   7.270  0.1837 -0.1911 -0.4044
  128OSM   H11S13733   0.697   5.214   7.277  0.2950 -0.1567  0.1460
  128OSM   H11T13734   0.586   5.352   7.277  0.1811 -0.4397  0.5497
  128OSM   C12S13735   0.772   5.391   7.389  0.6937 -0.6648  0.2191
  128OSM   H12S13736   0.742   5.498   7.395  0.1437 -0.8805  1.4742
  128OSM   H12T13737   0.880   5.387   7.363  0.6356  0.7660 -0.2963
  128OSM   C13S13738   0.739   5.316   7.513 -0.3101 -0.2502 -0.5161
  128OSM   H13S13739   0.796   5.221   7.524  0.3293  0.0818 -0.9544
  128OSM   H13T13740   0.632   5.291   7.526 -0.0875 -1.8403 -1.7476
  128OSM   C14S13741   0.784   5.394   7.636 -0.8251 -0.6113  0.0399
  128OSM   H14S13742   0.721   5.481   7.666 -0.1783 -1.0019  2.6187
  128OSM   H14T13743   0.887   5.433   7.630 -0.9206 -0.4785 -0.8040
  128OSM   C15S13744   0.770   5.300   7.763  0.7696  0.2859 -0.0669
  128OSM   H15S13745   0.832   5.208   7.751 -2.3469 -1.8379 -0.2838
  128OSM   H15T13746   0.661   5.281   7.770  0.8303 -0.8588 -1.9101
  128OSM   C16S13747   0.823   5.370   7.894 -0.3453 -0.4087  0.2911
  128OSM   H16S13748   0.769   5.465   7.913 -2.2834 -1.2001 -1.0385
  128OSM   H16T13749   0.932   5.380   7.875  0.0328 -3.1969  0.6881
  128OSM   C17S13750   0.806   5.292   8.017 -0.7283 -0.2813 -0.1041
  128OSM   H17S13751   0.851   5.191   8.002  1.7197  0.4672  1.7595
  128OSM   H17T13752   0.697   5.283   8.036 -0.7600  1.0818  0.4065
  128OSM   C18S13753   0.877   5.348   8.143  0.0396  0.0039 -0.5917
  128OSM   H18S13754   0.864   5.278   8.228 -1.2711  0.8632 -0.0745
  128OSM   H18T13755   0.833   5.444   8.177  0.4774 -0.6714  1.9676
  128OSM   H18U13756   0.986   5.358   8.119 -0.2431 -1.0448 -2.4104
  128OSM    C1F13757   0.537   4.975   6.363  0.5993  0.6520 -0.1738
  128OSM     OF13758   0.629   4.951   6.288  0.3588 -0.2893 -0.1593
  128OSM    C2F13759   0.467   4.870   6.440  0.1383 -0.3086  1.1815
  128OSM    H2F13760   0.434   4.791   6.369  2.1201  1.3169 -1.6637
  128OSM    H2G13761   0.383   4.915   6.498 -1.0176 -0.7721 -0.0881
  128OSM    C3F13762   0.566   4.809   6.545  0.1680 -0.5322 -0.4081
  128OSM    H3F13763   0.605   4.892   6.607  0.0879 -0.9417  0.2058
  128OSM    H3G13764   0.650   4.768   6.485  1.1200 -1.9222  1.7802
  128OSM    C4F13765   0.490   4.705   6.637 -0.4341  0.4246  0.5483
  128OSM    H4F13766   0.432   4.652   6.559  1.2568 -0.8280  0.0957
  128OSM    H4G13767   0.423   4.758   6.708 -0.9119 -1.1759  1.2950
  128OSM    C5F13768   0.581   4.610   6.733 -0.9966 -0.6216  0.4485
  128OSM    H5F13769   0.661   4.677   6.772 -2.6866  2.3169 -0.9622
  128OSM    H5G13770   0.638   4.532   6.679  1.6226  0.5215  1.4742
  128OSM    C6F13771   0.520   4.573   6.865 -0.8191  0.1685 -0.1534
  128OSM    H6F13772   0.422   4.525   6.847 -0.7515 -0.2319  0.5205
  128OSM    H6G13773   0.496   4.661   6.929 -2.4984  0.3165 -0.9582
  128OSM    C7F13774   0.612   4.486   6.945 -0.0896  0.4790  0.5371
  128OSM    H7F13775   0.718   4.516   6.957  0.4749 -1.3870  0.3081
  128OSM    H7G13776   0.625   4.395   6.883  2.5532  1.7020 -0.8139
  128OSM    C8F13777   0.546   4.463   7.080 -0.3112  0.2410 -0.4165
  128OSM    H8F13778   0.447   4.417   7.059 -0.7493  0.5088  1.0562
  128OSM    H8G13779   0.537   4.558   7.136 -1.2346  0.7806 -1.4406
  128OSM    C9F13780   0.623   4.356   7.148 -0.0746  0.1950  0.3265
  128OSM    H9F13781   0.637   4.263   7.090  0.0288 -0.9317  2.1305
  128OSM   C10F13782   0.671   4.353   7.273 -0.5861  0.2870  0.1372
  128OSM   H10F13783   0.730   4.266   7.305 -0.2628  0.5587  0.2885
  128OSM   C11F13784   0.656   4.463   7.374 -0.2301 -0.3920 -0.0548
  128OSM   H11F13785   0.576   4.531   7.337  1.0633  1.1045 -0.1706
  128OSM   H11G13786   0.748   4.524   7.392 -0.0418 -0.1663 -1.7085
  128OSM   C12F13787   0.623   4.407   7.513 -0.0935 -0.6741  0.0258
  128OSM   H12F13788   0.691   4.325   7.544  1.4053  0.5267 -0.0021
  128OSM   H12G13789   0.521   4.364   7.507 -0.2375 -0.2685 -0.5219
  128OSM   C13F13790   0.625   4.519   7.622 -0.1270  0.3331 -0.1012
  128OSM   H13F13791   0.558   4.602   7.591 -1.2585 -1.0031 -1.3085
  128OSM   H13G13792   0.729   4.557   7.621 -0.0064  0.1257  1.7416
  128OSM   C14F13793   0.581   4.464   7.763 -0.2677  0.2476  0.4323
  128OSM   H14F13794   0.651   4.382   7.793 -2.1776 -1.1601  1.1386
  128OSM   H14G13795   0.481   4.418   7.750  0.5255 -0.9276 -1.9004
  128OSM   C15F13796   0.576   4.576   7.860 -0.1616  0.3404  0.1751
  128OSM   H15F13797   0.494   4.645   7.831 -0.9996 -0.6187  0.2390
  128OSM   H15G13798   0.669   4.636   7.868 -1.4423  2.3097  0.4258
  128OSM   C16F13799   0.561   4.529   8.007  0.1170 -0.9985  0.4990
  128OSM   H16F13800   0.637   4.451   8.027 -1.3906 -2.8391 -0.7861
  128OSM   H16G13801   0.464   4.477   8.026  0.0641 -1.5967 -1.3574
  128OSM   C17F13802   0.551   4.643   8.097  0.1960  0.4953  0.1686
  128OSM   H17F13803   0.465   4.708   8.072  0.7162  0.9996 -0.3392
  128OSM   H17G13804   0.637   4.713   8.084  1.2270 -0.6391  0.7656
  128OSM   C18F13805   0.552   4.603   8.248 -0.4307 -0.2450 -1.3129
  128OSM   H18F13806   0.567   4.700   8.300 -0.8862 -0.4052 -0.8839
  128OSM   H18G13807   0.645   4.545   8.266  0.3059  0.6544 -2.1662
  128OSM   H18H13808   0.462   4.547   8.280 -0.1550  0.5551  0.8915
  129OSM      N13809   4.486   1.876   5.955 -0.1984 -0.7285 -0.1401
  129OSM    C1513810   4.427   1.988   5.873 -0.1576  1.3260 -0.5571
  129OSM   H15A13811   4.325   1.962   5.849  0.4431 -0.3116 -1.4296
  129OSM   H15B13812   4.480   2.010   5.781 -1.0005  2.0614 -0.8661
  129OSM   H15C13813   4.421   2.083   5.923  0.2027  1.8094 -1.4081
  129OSM    C1413814   4.454   1.748   5.895 -0.6391 -0.0565 -0.0307
  129OSM   H14A13815   4.470   1.735   5.789 -0.3807  1.8236 -0.2353
  129OSM   H14B13816   4.350   1.721   5.906 -0.0560 -1.5230  2.0334
  129OSM   H14C13817   4.500   1.663   5.943 -1.4318  1.7963  4.2891
  129OSM    C1313818   4.635   1.889   5.963 -0.0137 -0.1267 -0.1318
  129OSM   H13A13819   4.676   1.852   5.870 -0.8989  1.3911 -1.1500
  129OSM   H13B13820   4.680   1.836   6.045  0.7020  1.8467  0.7572
  129OSM   H13C13821   4.667   1.991   5.969  1.3413 -0.3553 -2.6865
  129OSM    C1213822   4.420   1.874   6.096  0.0883  0.2841  0.0277
  129OSM   H12A13823   4.313   1.867   6.087  0.0614 -1.8026  1.4423
  129OSM   H12B13824   4.422   1.973   6.140  0.8592  0.5155 -0.5240
  129OSM    C1113825   4.486   1.788   6.205  0.1358 -0.5857 -0.2788
  129OSM   H11A13826   4.464   1.831   6.305  0.3348 -0.6287 -0.2175
  129OSM   H11B13827   4.596   1.801   6.207  0.3625 -1.4883 -3.4924
  129OSM      P13828   4.318   1.584   6.239  0.2624  0.3648  0.2237
  129OSM    O1313829   4.230   1.691   6.286 -0.2521  0.1563  0.0025
  129OSM    O1413830   4.269   1.500   6.131  0.7070 -0.5078  0.9469
  129OSM    O1113831   4.359   1.491   6.365 -0.0089 -0.1385  0.5865
  129OSM    O1213832   4.456   1.653   6.196  0.5680 -0.1865  0.8751
  129OSM    C1S13833   4.467   1.526   6.449  0.2782 -0.6181 -0.1059
  129OSM    H1S13834   4.452   1.629   6.489 -1.2470 -1.3809  1.3673
  129OSM    H1T13835   4.561   1.521   6.390  1.5657 -1.9737  1.9928
  129OSM     NF13836   4.557   1.496   6.678  0.0470  0.4769  0.0033
  129OSM    HNF13837   4.647   1.457   6.698  0.1309  1.2225  1.1302
  129OSM    C2S13838   4.481   1.431   6.566  0.0821  0.1975  0.5263
  129OSM    H2S13839   4.385   1.407   6.614 -0.6674  2.2060  0.0750
  129OSM    C3S13840   4.537   1.297   6.508 -0.2913 -0.2163  0.1623
  129OSM    H3S13841   4.618   1.326   6.437 -2.5356  0.6633 -2.1186
  129OSM     O313842   4.445   1.239   6.417 -0.0289 -0.0424  0.2951
  129OSM    HO313843   4.380   1.310   6.416  0.8327  0.7608 -0.4131
  129OSM    C4S13844   4.572   1.204   6.623 -0.3865  0.0862 -0.3102
  129OSM    H4S13845   4.662   1.233   6.679 -1.1242 -0.0991  0.9891
  129OSM    C5S13846   4.504   1.099   6.673  0.2620 -0.1113 -0.7101
  129OSM    H5S13847   4.423   1.052   6.614 -2.2403  2.0157  0.9256
  129OSM    C6S13848   4.552   1.015   6.790 -0.4150  0.0048 -0.2552
  129OSM    H6S13849   4.606   0.929   6.746  0.3572 -0.0680  0.8451
  129OSM    H6T13850   4.461   0.970   6.835 -0.4126 -2.1821 -2.3408
  129OSM    C7S13851   4.646   1.086   6.895  0.2190  0.7214 -0.3913
  129OSM    H7S13852   4.598   1.179   6.933  0.8830  1.1874 -0.6801
  129OSM    H7T13853   4.744   1.119   6.855 -0.4008  0.5945 -2.0228
  129OSM    C8S13854   4.667   0.994   7.016  0.2531 -0.0341 -0.5874
  129OSM    H8S13855   4.723   0.906   6.979 -0.5075  0.5939 -3.2929
  129OSM    H8T13856   4.575   0.958   7.068  1.0887 -0.6879  0.4651
  129OSM    C9S13857   4.753   1.058   7.129  0.3557  0.8639 -0.1574
  129OSM    H9S13858   4.833   1.114   7.075  1.1959  1.3953  1.6204
  129OSM    H9T13859   4.802   0.982   7.193  1.0422  2.4533  1.2363
  129OSM   C10S13860   4.675   1.155   7.228 -0.3496  0.0794  0.4397
  129OSM   H10S13861   4.586   1.093   7.255  0.1082 -1.0637 -0.6328
  129OSM   H10T13862   4.635   1.243   7.174 -0.4983  0.0206  0.4518
  129OSM   C11S13863   4.746   1.201   7.359 -0.0255 -0.2689  0.0920
  129OSM   H11S13864   4.689   1.277   7.417 -1.2481 -2.3015  1.6087
  129OSM   H11T13865   4.841   1.251   7.330  1.5310 -1.0977  3.5529
  129OSM   C12S13866   4.785   1.089   7.458  0.0401 -0.4816  0.5873
  129OSM   H12S13867   4.852   1.019   7.404  2.6501  2.6080 -0.2917
  129OSM   H12T13868   4.688   1.042   7.487 -1.3211  2.6632  1.3484
  129OSM   C13S13869   4.865   1.130   7.582 -0.5939 -0.1959 -0.7877
  129OSM   H13S13870   4.958   1.174   7.541  1.5343 -3.5563  0.2665
  129OSM   H13T13871   4.903   1.040   7.634  0.1892 -0.0121 -1.0357
  129OSM   C14S13872   4.781   1.209   7.683  0.2040  0.1992  0.0022
  129OSM   H14S13873   4.676   1.175   7.670  0.2548 -0.1081  0.3945
  129OSM   H14T13874   4.788   1.315   7.651 -0.3993  0.1451 -0.3228
  129OSM   C15S13875   4.832   1.181   7.820 -0.3588  0.5773  0.3960
  129OSM   H15S13876   4.930   1.227   7.843  1.4254 -0.5821 -4.3821
  129OSM   H15T13877   4.854   1.073   7.829 -1.6488  0.1829 -0.9300
  129OSM   C16S13878   4.721   1.227   7.918  1.1161  0.2688  0.2452
  129OSM   H16S13879   4.627   1.167   7.915 -0.4092  2.1385  5.1183
  129OSM   H16T13880   4.702   1.335   7.903 -1.1896 -0.2729 -0.9598
  129OSM   C17S13881   4.772   1.211   8.060  0.7171 -0.2121  0.6089
  129OSM   H17S13882   4.871   1.259   8.078  1.1733 -0.7417 -0.4371
  129OSM   H17T13883   4.792   1.102   8.063 -1.4636 -0.7008 -1.3664
  129OSM   C18S13884   4.667   1.257   8.162 -0.3896  0.7230  0.2738
  129OSM   H18S13885   4.664   1.368   8.166 -0.0173  0.7476 -0.0804
  129OSM   H18T13886   4.697   1.225   8.264  1.1557  0.9217 -0.1003
  129OSM   H18U13887   4.563   1.233   8.134  0.5299  0.7167 -3.3485
  129OSM    C1F13888   4.514   1.596   6.754 -0.6356 -0.6532 -1.5654
  129OSM     OF13889   4.419   1.665   6.720 -0.7174  0.4459  0.5343
  129OSM    C2F13890   4.583   1.623   6.882  0.1978 -0.1376 -0.2573
  129OSM    H2F13891   4.558   1.730   6.899  0.0852 -0.0948 -0.6936
  129OSM    H2G13892   4.691   1.599   6.876  0.0319 -0.7067 -1.0812
  129OSM    C3F13893   4.526   1.549   7.013  0.1294  0.4934  0.0864
  129OSM    H3F13894   4.531   1.440   6.997 -0.8693  0.6596 -1.5029
  129OSM    H3G13895   4.420   1.583   7.017  0.6211  2.0622  0.3229
  129OSM    C4F13896   4.595   1.600   7.136  0.4129  0.0254 -0.0496
  129OSM    H4F13897   4.579   1.709   7.129  0.3110 -0.0211 -0.5329
  129OSM    H4G13898   4.702   1.576   7.119  0.8074  0.3407  1.8655
  129OSM    C5F13899   4.532   1.555   7.269  0.3913  0.0293  0.3365
  129OSM    H5F13900   4.531   1.444   7.263 -0.8125  0.1257 -1.7627
  129OSM    H5G13901   4.426   1.589   7.272  0.6191  0.7641  0.2251
  129OSM    C6F13902   4.609   1.596   7.396  0.4741  0.3889  0.4082
  129OSM    H6F13903   4.715   1.610   7.365 -0.1689 -0.3680 -2.2959
  129OSM    H6G13904   4.611   1.506   7.461  3.1190 -0.1725 -0.3678
  129OSM    C7F13905   4.553   1.714   7.459 -0.1014 -0.3172 -0.4425
  129OSM    H7F13906   4.442   1.712   7.466 -0.0184 -1.4188  0.5941
  129OSM    H7G13907   4.566   1.804   7.394 -1.2995  0.4131  0.3105
  129OSM    C8F13908   4.616   1.745   7.602  0.9298  0.6285  0.3759
  129OSM    H8F13909   4.572   1.836   7.646  1.6623  0.9084  0.5366
  129OSM    H8G13910   4.727   1.759   7.600  0.6473  3.0955 -3.4474
  129OSM    C9F13911   4.576   1.641   7.709  0.2018  0.3073 -0.1745
  129OSM    H9F13912   4.567   1.536   7.676 -0.5254  0.3700 -0.1922
  129OSM   C10F13913   4.544   1.647   7.840 -0.0265 -0.4461  0.1451
  129OSM   H10F13914   4.514   1.558   7.897 -0.9856  0.8034  1.6456
  129OSM   C11F13915   4.527   1.772   7.927 -0.5386  0.2483 -0.0561
  129OSM   H11F13916   4.436   1.758   7.990 -2.6535  1.8529 -2.6074
  129OSM   H11G13917   4.509   1.863   7.865 -1.9590 -0.1678 -0.2778
  129OSM   C12F13918   4.656   1.803   8.008  0.1796 -0.0746 -0.6266
  129OSM   H12F13919   4.656   1.906   8.050 -0.7041  0.4895 -1.9632
  129OSM   H12G13920   4.744   1.809   7.941  1.1150 -1.6511  0.4128
  129OSM   C13F13921   4.688   1.683   8.111  0.2819 -0.5000  0.0906
  129OSM   H13F13922   4.703   1.591   8.052  0.7686  1.2048 -2.5182
  129OSM   H13G13923   4.604   1.665   8.182 -0.0354  3.1321  0.7411
  129OSM   C14F13924   4.818   1.714   8.190 -0.4777  0.5107  0.4986
  129OSM   H14F13925   4.827   1.818   8.229  2.0717  0.1451  0.9643
  129OSM   H14G13926   4.905   1.699   8.122 -1.1024 -1.4084  0.1025
  129OSM   C15F13927   4.847   1.611   8.304 -0.2472 -0.5069  0.2826
  129OSM   H15F13928   4.957   1.599   8.309  0.0806  0.4182 -3.5580
  129OSM   H15G13929   4.807   1.511   8.275  1.4780 -1.0237 -0.3933
  129OSM   C16F13930   4.784   1.653   8.438 -0.0574 -0.8722 -0.1040
  129OSM   H16F13931   4.674   1.662   8.430  0.0877 -0.1138 -1.5141
  129OSM   H16G13932   4.822   1.748   8.483 -0.2334 -0.8496 -0.0015
  129OSM   C17F13933   4.814   1.541   8.538 -0.1051  0.6141  0.2551
  129OSM   H17F13934   4.923   1.549   8.558 -0.2843  1.7628  0.7590
  129OSM   H17G13935   4.796   1.438   8.498 -2.4158  0.9152  0.4343
  129OSM   C18F13936   4.738   1.561   8.665 -0.4114 -0.7132  0.5323
  129OSM   H18F13937   4.633   1.526   8.670 -0.6409 -0.1641 -0.3530
  129OSM   H18G13938   4.753   1.666   8.698  2.9393 -1.6924  2.4095
  129OSM   H18H13939   4.781   1.505   8.750  0.9634 -0.0256  0.3109
  130OSM      N13940   1.025   3.563   6.087 -1.0225 -0.7586 -0.1609
  130OSM    C1513941   1.068   3.594   6.225  0.4407 -0.8896 -0.2470
  130OSM   H15A13942   1.076   3.503   6.283 -1.6806 -0.6410  0.4851
  130OSM   H15B13943   1.002   3.667   6.270  1.2807 -0.1387 -0.2036
  130OSM   H15C13944   1.165   3.643   6.228  0.3021 -0.5916 -0.5628
  130OSM    C1413945   1.144   3.496   6.021 -0.2107 -0.3784 -0.0709
  130OSM   H14A13946   1.133   3.495   5.913 -2.4488 -1.8464  0.1446
  130OSM   H14B13947   1.168   3.397   6.056  2.8451  0.2671 -0.1294
  130OSM   H14C13948   1.235   3.551   6.042 -1.3671  1.5695 -0.0063
  130OSM    C1313949   0.912   3.468   6.080  0.2133  0.3579  0.2433
  130OSM   H13A13950   0.816   3.507   6.111 -0.1222 -0.6212  0.4314
  130OSM   H13B13951   0.929   3.378   6.137 -0.1427  0.7725  1.0219
  130OSM   H13C13952   0.899   3.434   5.979  1.3141 -1.0846  0.5675
  130OSM    C1213953   0.996   3.690   6.010  0.2337 -0.2569 -0.5981
  130OSM   H12A13954   0.961   3.650   5.916 -0.6836 -0.7767 -0.0486
  130OSM   H12B13955   1.087   3.748   6.002 -0.6893  1.4346  0.7484
  130OSM    C1113956   0.886   3.781   6.068  0.8939 -0.0187  0.1560
  130OSM   H11A13957   0.788   3.732   6.085  0.9153 -0.2495 -0.3937
  130OSM   H11B13958   0.868   3.862   5.994 -0.0880 -0.1522  0.2417
  130OSM      P13959   0.972   3.996   6.193  0.2156  0.2860 -0.0598
  130OSM    O1313960   1.064   3.994   6.073  0.0390  0.1366 -0.3340
  130OSM    O1413961   0.859   4.088   6.211  0.0427  0.4006 -0.2719
  130OSM    O1113962   1.066   4.000   6.318  0.8809  0.3795 -0.4465
  130OSM    O1213963   0.918   3.843   6.197  0.4100  0.4289  0.0164
  130OSM    C1S13964   1.023   4.024   6.447  1.1911  0.1600  0.4762
  130OSM    H1S13965   0.934   3.960   6.465  1.0048  0.2045 -0.2870
  130OSM    H1T13966   0.978   4.125   6.451 -1.9178 -1.0920 -1.1507
  130OSM     NF13967   1.090   4.054   6.675 -0.1133 -0.7282  1.0125
  130OSM    HNF13968   1.127   4.142   6.704 -0.8774  0.1194 -0.5174
  130OSM    C2S13969   1.137   4.009   6.547  0.3839  0.0919 -0.1525
  130OSM    H2S13970   1.171   3.904   6.561  2.8104  0.6517 -1.5286
  130OSM    C3S13971   1.274   4.086   6.494 -0.7872 -0.3160 -0.4531
  130OSM    H3S13972   1.261   4.194   6.475 -1.3184 -0.4652 -0.9350
  130OSM     O313973   1.333   4.027   6.374 -0.1793 -0.2205  0.1254
  130OSM    HO313974   1.263   3.972   6.338 -0.7389  0.9174 -0.5559
  130OSM    C4S13975   1.380   4.078   6.605 -0.2505 -0.8201  0.1286
  130OSM    H4S13976   1.367   4.165   6.671  0.3573 -1.1216  0.6534
  130OSM    C5S13977   1.479   3.984   6.624  0.4758  0.3394  0.2540
  130OSM    H5S13978   1.482   3.895   6.559  2.0592  0.4980  0.0918
  130OSM    C6S13979   1.587   3.980   6.731  0.1507 -0.2641 -0.1450
  130OSM    H6S13980   1.686   3.975   6.682  0.0356 -0.1728 -0.3928
  130OSM    H6T13981   1.587   3.885   6.788  1.7839 -0.7983 -1.0030
  130OSM    C7S13982   1.584   4.097   6.831 -0.6172  0.2709 -0.4003
  130OSM    H7S13983   1.484   4.133   6.865  1.7009  3.2760  3.6148
  130OSM    H7T13984   1.635   4.181   6.780  0.7869 -1.5168 -1.9955
  130OSM    C8S13985   1.670   4.062   6.951 -0.1797 -0.2415  0.4323
  130OSM    H8S13986   1.778   4.050   6.926 -0.1350  1.0532 -0.0047
  130OSM    H8T13987   1.639   3.961   6.986  0.0103 -1.5503 -2.9271
  130OSM    C9S13988   1.664   4.166   7.062 -0.1127 -0.1539  0.1860
  130OSM    H9S13989   1.560   4.204   7.078  0.5265  2.1688 -0.9775
  130OSM    H9T13990   1.722   4.249   7.018 -0.0082 -0.7916 -0.9050
  130OSM   C10S13991   1.725   4.120   7.198 -0.5670 -0.5820 -0.1553
  130OSM   H10S13992   1.830   4.092   7.176 -0.6344 -0.1804 -1.0448
  130OSM   H10T13993   1.673   4.029   7.236  0.0609 -1.2231 -0.8205
  130OSM   C11S13994   1.720   4.224   7.308  0.3535  0.1124  0.2208
  130OSM   H11S13995   1.620   4.261   7.339 -0.3792 -1.4313 -0.2575
  130OSM   H11T13996   1.761   4.316   7.262 -0.6573 -0.0928 -1.1373
  130OSM   C12S13997   1.814   4.175   7.423  0.1835  0.0489  0.1094
  130OSM   H12S13998   1.917   4.157   7.385  0.0229  1.2245 -0.9239
  130OSM   H12T13999   1.781   4.071   7.447 -0.2811  0.2692  0.4368
  130OSM   C13S14000   1.815   4.260   7.546 -0.2295  0.1147 -0.2916
  130OSM   H13S14001   1.709   4.255   7.580  0.1234  1.5027  1.0765
  130OSM   H13T14002   1.840   4.366   7.522  1.6807  0.0206  1.1200
  130OSM   C14S14003   1.921   4.226   7.657  0.1756  0.2644  0.1720
  130OSM   H14S14004   1.899   4.310   7.726 -0.6331 -0.4971  0.8415
  130OSM   H14T14005   2.022   4.240   7.614  0.1394  0.6901  0.2235
  130OSM   C15S14006   1.896   4.093   7.724 -0.0882  0.2376 -0.2692
  130OSM   H15S14007   1.968   4.088   7.808  0.1749  1.9959 -0.3779
  130OSM   H15T14008   1.907   4.008   7.652 -1.2532  0.4702 -0.7288
  130OSM   C16S14009   1.754   4.079   7.784 -0.2168 -0.9480 -0.5907
  130OSM   H16S14010   1.689   4.109   7.698 -3.0205 -0.5004  1.6135
  130OSM   H16T14011   1.745   4.140   7.877  1.3877  1.2878 -1.8420
  130OSM   C17S14012   1.711   3.943   7.830  0.1614 -0.4338  0.2414
  130OSM   H17S14013   1.761   3.874   7.758  3.1130  3.2854 -1.4598
  130OSM   H17T14014   1.600   3.943   7.836  0.2279  2.3425  2.3038
  130OSM   C18S14015   1.763   3.904   7.972 -0.8717 -0.2339 -0.2912
  130OSM   H18S14016   1.725   3.804   8.003  3.2398 -1.5565  0.9072
  130OSM   H18T14017   1.716   3.976   8.042 -1.3503 -0.5703 -0.2662
  130OSM   H18U14018   1.873   3.909   7.986 -0.9440  1.7352 -0.2751
  130OSM    C1F14019   0.993   3.983   6.746  0.2402  0.5869 -0.0006
  130OSM     OF14020   0.939   3.885   6.698 -0.2681  0.2485  0.0309
  130OSM    C2F14021   0.953   4.038   6.882  0.2391  0.4065 -0.4903
  130OSM    H2F14022   0.860   4.095   6.865 -0.8019 -0.2743  2.5794
  130OSM    H2G14023   1.027   4.114   6.916  1.6152 -1.2778  0.3958
  130OSM    C3F14024   0.936   3.921   6.984  0.2804 -0.3511  0.2192
  130OSM    H3F14025   1.028   3.859   6.992  0.1515 -0.7196 -1.0916
  130OSM    H3G14026   0.850   3.858   6.951 -1.0580  1.8238 -0.5820
  130OSM    C4F14027   0.913   3.979   7.133 -0.2234  0.0496  0.1466
  130OSM    H4F14028   0.827   4.050   7.141  0.0249  0.2944  0.6126
  130OSM    H4G14029   1.006   4.038   7.139  0.4195 -0.6234 -2.3889
  130OSM    C5F14030   0.903   3.866   7.238  0.3762 -0.0736  0.5516
  130OSM    H5F14031   0.986   3.791   7.242  0.2238 -0.2300  0.7921
  130OSM    H5G14032   0.804   3.820   7.217  1.0991 -0.9687 -0.9793
  130OSM    C6F14033   0.891   3.944   7.368  0.4541 -0.2984 -0.4204
  130OSM    H6F14034   0.821   4.030   7.363  1.2643  0.3312 -1.3129
  130OSM    H6G14035   0.986   3.996   7.396 -0.7923  1.5318  0.5019
  130OSM    C7F14036   0.850   3.854   7.476 -0.5360 -0.8988  0.2936
  130OSM    H7F14037   0.927   3.774   7.485 -0.1449 -0.3622  1.9276
  130OSM    H7G14038   0.752   3.812   7.446 -0.7008 -0.8813  0.8019
  130OSM    C8F14039   0.840   3.923   7.619  0.1629  0.6620 -0.0514
  130OSM    H8F14040   0.782   4.016   7.598 -1.3257 -1.0056 -3.8233
  130OSM    H8G14041   0.944   3.955   7.642  0.8634 -1.3139 -0.3850
  130OSM    C9F14042   0.772   3.820   7.701  0.2725  0.0718 -0.1099
  130OSM    H9F14043   0.690   3.777   7.642 -0.3450  0.9009  0.1413
  130OSM   C10F14044   0.814   3.781   7.823 -0.2816 -0.2864  0.8907
  130OSM   H10F14045   0.742   3.714   7.873  0.0999 -1.3095  0.0883
  130OSM   C11F14046   0.936   3.826   7.896  0.1035 -0.4186  0.9837
  130OSM   H11F14047   0.997   3.898   7.837 -1.3069 -1.1119 -1.3515
  130OSM   H11G14048   0.999   3.736   7.912  0.7058 -0.0878  0.4922
  130OSM   C12F14049   0.906   3.891   8.031 -0.6322  0.0676  0.3031
  130OSM   H12F14050   0.834   3.975   8.018 -0.6626  0.1936  1.2438
  130OSM   H12G14051   0.998   3.947   8.061  0.2450  0.3504 -2.7328
  130OSM   C13F14052   0.865   3.793   8.140 -0.7069  0.2246 -0.0104
  130OSM   H13F14053   0.947   3.727   8.177 -0.5767 -0.1656 -0.9939
  130OSM   H13G14054   0.783   3.726   8.108  0.1170  0.1430 -1.9975
  130OSM   C14F14055   0.816   3.874   8.266 -0.0421 -0.0788  0.2831
  130OSM   H14F14056   0.722   3.929   8.242 -0.2904 -1.0568 -1.0415
  130OSM   H14G14057   0.898   3.948   8.279 -0.6081  0.7502 -0.7852
  130OSM   C15F14058   0.790   3.787   8.386 -0.1683  0.0141 -0.4185
  130OSM   H15F14059   0.782   3.849   8.478 -2.1849  3.8346 -3.0859
  130OSM   H15G14060   0.859   3.700   8.397 -0.3662 -0.0449  0.3913
  130OSM   C16F14061   0.664   3.704   8.375 -0.4429  0.7237 -0.2198
  130OSM   H16F14062   0.683   3.638   8.289 -0.4195  2.6367 -1.7144
  130OSM   H16G14063   0.582   3.774   8.345 -0.2159  1.5840  1.0890
  130OSM   C17F14064   0.625   3.635   8.498 -0.5746  0.2552  0.1364
  130OSM   H17F14065   0.709   3.575   8.540  0.0627  1.2165  0.2450
  130OSM   H17G14066   0.544   3.560   8.482 -1.2149  0.4097  2.4798
  130OSM   C18F14067   0.580   3.734   8.598 -0.1223  0.1635  0.2893
  130OSM   H18F14068   0.500   3.795   8.552 -1.7182 -1.3893  0.9717
  130OSM   H18G14069   0.668   3.791   8.636  1.3842 -1.3682 -0.8020
  130OSM   H18H14070   0.531   3.692   8.689 -0.3471  0.5520  0.3505
  131OSM      N14071   5.173   5.838   5.747  0.1714  0.0039 -0.4543
  131OSM    C1514072   5.280   5.753   5.684 -0.7992  0.3408  0.5507
  131OSM   H15A14073   5.264   5.650   5.713  1.7801  0.2214  1.6358
  131OSM   H15B14074   5.375   5.776   5.730 -0.1267 -0.8782 -0.2001
  131OSM   H15C14075   5.306   5.768   5.581 -1.0020 -1.2648  0.2445
  131OSM    C1414076   5.084   5.868   5.629  0.7195  0.6400 -0.0087
  131OSM   H14A14077   5.003   5.936   5.652 -0.3887  0.2869 -2.6282
  131OSM   H14B14078   5.028   5.778   5.609  0.0213  0.3237  3.1746
  131OSM   H14C14079   5.141   5.911   5.548  1.1004 -1.1341 -0.7010
  131OSM    C1314080   5.094   5.764   5.844  0.0205 -1.0056  0.2759
  131OSM   H13A14081   5.038   5.685   5.795  1.2317 -0.8030 -1.4881
  131OSM   H13B14082   5.020   5.823   5.896  1.2652  0.2070  0.7100
  131OSM   H13C14083   5.163   5.723   5.916  0.7452  0.5291  0.4798
  131OSM    C1214084   5.243   5.957   5.811  0.2948  0.1108 -0.3324
  131OSM   H12A14085   5.170   6.035   5.828 -0.4902 -1.0301  1.6820
  131OSM   H12B14086   5.303   5.997   5.730 -0.2288  0.4804 -0.5419
  131OSM    C1114087   5.326   5.926   5.939 -0.4532 -0.6059  0.2527
  131OSM   H11A14088   5.259   5.887   6.019  1.2846 -0.3336  1.8734
  131OSM   H11B14089   5.362   6.027   5.968 -0.4560 -0.7315  0.6991
  131OSM      P14090   5.494   5.752   6.037 -0.0790  0.5717 -0.3627
  131OSM    O1314091   5.381   5.680   6.100  0.5507 -0.1242 -0.0530
  131OSM    O1414092   5.609   5.680   5.975 -0.6405 -0.3959 -0.0119
  131OSM    O1114093   5.551   5.856   6.141  0.3070 -0.3164  0.1409
  131OSM    O1214094   5.429   5.834   5.920 -0.1170 -0.6974 -0.6133
  131OSM    C1S14095   5.471   5.902   6.250  0.4808 -0.2757  0.0493
  131OSM    H1S14096   5.364   5.876   6.240  0.5808 -1.1923  1.2481
  131OSM    H1T14097   5.460   6.011   6.230 -0.1861 -1.0647 -4.2308
  131OSM     NF14098   5.439   5.921   6.484 -0.4272 -0.8494  0.2228
  131OSM    HNF14099   5.460   6.016   6.504 -1.2981 -1.0078  2.0033
  131OSM    C2S14100   5.526   5.867   6.395 -0.0902 -0.4415 -0.2177
  131OSM    H2S14101   5.539   5.757   6.409  1.0101 -0.2191  0.5800
  131OSM    C3S14102   5.668   5.930   6.399  0.1418  0.0991 -1.0723
  131OSM    H3S14103   5.662   6.041   6.398  1.9905  0.2329  0.3883
  131OSM     O314104   5.764   5.891   6.307 -0.6733 -0.4030  0.1005
  131OSM    HO314105   5.723   5.842   6.236 -0.2891  0.6181 -0.8348
  131OSM    C4S14106   5.720   5.899   6.537  0.0611  0.0546 -0.1634
  131OSM    H4S14107   5.703   5.981   6.607 -1.5256 -1.1954  0.9454
  131OSM    C5S14108   5.779   5.788   6.578 -0.0175  0.1879  0.3022
  131OSM    H5S14109   5.801   5.705   6.509  3.1720 -1.8956  3.6316
  131OSM    C6S14110   5.818   5.765   6.719  0.2500 -0.3359 -0.0378
  131OSM    H6S14111   5.929   5.765   6.725  0.2411  1.2585  0.3804
  131OSM    H6T14112   5.790   5.663   6.750 -2.3236 -0.3656 -2.2432
  131OSM    C7S14113   5.782   5.867   6.830  0.7949  0.2775 -0.1832
  131OSM    H7S14114   5.673   5.885   6.837  0.8340 -0.2323  2.4062
  131OSM    H7T14115   5.822   5.961   6.789  1.2092  0.6919  1.1335
  131OSM    C8S14116   5.855   5.852   6.968 -0.1576  0.2186  0.5852
  131OSM    H8S14117   5.964   5.871   6.954 -0.5988  0.4080 -3.2212
  131OSM    H8T14118   5.838   5.746   6.998  0.9254  0.5687  2.4772
  131OSM    C9S14119   5.803   5.950   7.072  0.5502  0.0443  0.3735
  131OSM    H9S14120   5.693   5.937   7.087  0.3868  2.6028  1.7335
  131OSM    H9T14121   5.816   6.053   7.032  0.7799  0.3391  1.1901
  131OSM   C10S14122   5.874   5.935   7.211  0.7005  0.2847 -0.3870
  131OSM   H10S14123   5.984   5.921   7.210  0.7546  0.6685  0.5629
  131OSM   H10T14124   5.815   5.851   7.255  0.4669  0.3706 -0.5348
  131OSM   C11S14125   5.866   6.068   7.280  0.2274  0.5739  0.4460
  131OSM   H11S14126   5.779   6.130   7.252 -0.9746 -1.5052 -0.5874
  131OSM   H11T14127   5.948   6.134   7.244  0.1194 -0.2207 -1.2753
  131OSM   C12S14128   5.863   6.060   7.430  0.2531 -0.3337 -0.6325
  131OSM   H12S14129   5.761   6.036   7.467 -1.3540  1.4488 -3.7258
  131OSM   H12T14130   5.883   6.164   7.464  1.4833 -1.0700  0.9623
  131OSM   C13S14131   5.965   5.964   7.490 -0.2914 -0.2158  0.2459
  131OSM   H13S14132   6.068   5.991   7.459 -0.6148 -0.2596 -0.9234
  131OSM   H13T14133   5.961   5.865   7.440  1.0973  0.4210 -1.1819
  131OSM   C14S14134   5.954   5.953   7.644  0.5444 -0.2320 -0.3781
  131OSM   H14S14135   5.999   5.857   7.677  1.7727  0.4170 -0.1188
  131OSM   H14T14136   5.846   5.944   7.668 -0.0565  2.5835 -1.8290
  131OSM   C15S14137   6.020   6.059   7.727  0.1347 -0.3177  0.1087
  131OSM   H15S14138   5.967   6.153   7.703 -2.1070 -2.0173 -1.7797
  131OSM   H15T14139   6.126   6.076   7.698  0.1817 -0.8081 -0.0037
  131OSM   C16S14140   6.016   6.033   7.877  0.7650  0.6381  0.2281
  131OSM   H16S14141   6.032   5.927   7.903 -0.6031  0.4203  0.1781
  131OSM   H16T14142   5.912   6.057   7.905 -0.0882 -0.4388 -1.8815
  131OSM   C17S14143   6.096   6.132   7.962 -0.5090  0.1018 -0.3739
  131OSM   H17S14144   6.047   6.137   8.062  1.4179  1.2727  0.5328
  131OSM   H17T14145   6.089   6.237   7.926 -0.9803  1.1049  2.4914
  131OSM   C18S14146   6.249   6.097   7.978  0.5587 -0.2076  0.0319
  131OSM   H18S14147   6.268   6.005   8.038 -2.2793  0.3212  1.8390
  131OSM   H18T14148   6.307   6.182   8.023 -0.8806  0.6645  0.2646
  131OSM   H18U14149   6.293   6.079   7.878 -0.0578  1.1606 -0.4893
  131OSM    C1F14150   5.314   5.883   6.512 -0.3857 -0.8469 -0.2520
  131OSM     OF14151   5.266   5.782   6.457 -0.2308  0.1311  0.3802
  131OSM    C2F14152   5.238   5.977   6.597  0.6414 -0.5367  0.0249
  131OSM    H2F14153   5.208   6.067   6.540 -0.6369 -1.0056 -0.0443
  131OSM    H2G14154   5.299   6.005   6.686 -0.5781 -1.5035  1.1759
  131OSM    C3F14155   5.109   5.910   6.646  0.3093  0.0499 -0.0949
  131OSM    H3F14156   5.137   5.832   6.721 -0.4273  1.2833  1.5028
  131OSM    H3G14157   5.046   5.863   6.567  1.8696 -0.0854 -1.2851
  131OSM    C4F14158   5.012   6.015   6.708 -0.5621 -0.0654  0.0913
  131OSM    H4F14159   4.908   5.977   6.704 -0.8957  0.5654  1.9757
  131OSM    H4G14160   5.022   6.100   6.637 -1.9695 -0.8076 -1.0268
  131OSM    C5F14161   5.050   6.058   6.850 -0.4942 -0.0164  0.4717
  131OSM    H5F14162   5.138   6.126   6.840 -2.0743  2.2238  1.3294
  131OSM    H5G14163   5.071   5.970   6.914  0.8224 -0.0044  0.0610
  131OSM    C6F14164   4.951   6.151   6.922  0.1648 -0.0991 -0.2189
  131OSM    H6F14165   4.852   6.108   6.949  0.3067 -0.3760 -0.1426
  131OSM    H6G14166   4.935   6.236   6.853 -2.2966  0.2353  0.7321
  131OSM    C7F14167   5.019   6.205   7.050 -0.4627 -0.5468 -0.2234
  131OSM    H7F14168   5.114   6.260   7.036 -1.3312  0.7767 -1.0599
  131OSM    H7G14169   5.044   6.124   7.122  0.1977 -1.9875 -2.0537
  131OSM    C8F14170   4.930   6.314   7.113 -1.0526 -0.5144 -0.4222
  131OSM    H8F14171   4.856   6.253   7.169 -1.8222  0.0290 -0.8477
  131OSM    H8G14172   4.875   6.365   7.031 -0.1334  1.0397 -0.0954
  131OSM    C9F14173   5.007   6.407   7.203 -0.2766 -0.2313 -0.2361
  131OSM    H9F14174   5.105   6.438   7.164 -0.2762 -0.5242 -0.4719
  131OSM   C10F14175   4.990   6.432   7.334  0.1365 -0.1169 -0.4554
  131OSM   H10F14176   5.058   6.499   7.388 -1.9642  0.1640  1.9251
  131OSM   C11F14177   4.892   6.374   7.433 -0.4929 -0.3025  0.6260
  131OSM   H11F14178   4.804   6.341   7.374 -1.5499  0.7744  1.5804
  131OSM   H11G14179   4.854   6.460   7.493 -2.2545  0.1075 -1.0274
  131OSM   C12F14180   4.945   6.255   7.512 -0.8978 -0.0353  0.3543
  131OSM   H12F14181   4.956   6.168   7.444 -1.5079 -0.1041  0.3462
  131OSM   H12G14182   4.874   6.215   7.588 -0.1490  1.4270  1.8690
  131OSM   C13F14183   5.087   6.278   7.573  0.1500 -0.2768  0.0859
  131OSM   H13F14184   5.171   6.298   7.503  0.4804  0.1926  0.6116
  131OSM   H13G14185   5.117   6.187   7.630  1.0930 -0.5408 -0.8190
  131OSM   C14F14186   5.088   6.400   7.672  0.9700  0.5426 -0.8738
  131OSM   H14F14187   5.005   6.377   7.742  1.7408  0.4822  0.0304
  131OSM   H14G14188   5.082   6.496   7.615  1.1618  1.8435  1.2576
  131OSM   C15F14189   5.215   6.402   7.760 -0.0604 -0.4239  0.1125
  131OSM   H15F14190   5.299   6.415   7.689 -1.0540  0.4602 -0.9242
  131OSM   H15G14191   5.210   6.307   7.816 -1.2114 -0.1591  0.4826
  131OSM   C16F14192   5.229   6.522   7.851 -0.2864 -0.0402 -0.0467
  131OSM   H16F14193   5.159   6.492   7.931 -0.8738  2.3072  0.3534
  131OSM   H16G14194   5.185   6.620   7.821 -2.5666 -1.0644 -0.0905
  131OSM   C17F14195   5.366   6.536   7.915 -0.1490  0.4472 -0.0489
  131OSM   H17F14196   5.434   6.544   7.828  0.3875  2.8215  0.5427
  131OSM   H17G14197   5.384   6.448   7.980 -1.8730  0.2240  0.1689
  131OSM   C18F14198   5.379   6.653   8.023  1.0620  0.2971 -0.5980
  131OSM   H18F14199   5.357   6.744   7.963  0.8123  0.7653  0.1998
  131OSM   H18G14200   5.485   6.646   8.055  0.7304 -2.3511  0.0325
  131OSM   H18H14201   5.311   6.639   8.110 -0.5444  1.1990 -1.6636
  132OSM      N14202   0.626   0.773   6.356 -0.2089 -0.2481  0.0518
  132OSM    C1514203   0.669   0.661   6.271  0.0985 -0.2283  0.4081
  132OSM   H15A14204   0.776   0.649   6.265 -0.0383 -0.7683 -1.3024
  132OSM   H15B14205   0.632   0.666   6.169  0.1984  1.1779  0.4280
  132OSM   H15C14206   0.640   0.564   6.309  4.4314 -0.7093  2.7713
  132OSM    C1414207   0.482   0.757   6.377 -0.2888 -0.6026 -0.2011
  132OSM   H14A14208   0.435   0.827   6.445  0.7723 -0.2413  0.1624
  132OSM   H14B14209   0.459   0.657   6.412  2.5808 -1.6170 -1.1446
  132OSM   H14C14210   0.425   0.769   6.286 -0.4352 -1.7572 -0.2723
  132OSM    C1314211   0.697   0.751   6.485  0.6425  0.4625  0.4739
  132OSM   H13A14212   0.676   0.841   6.541 -1.2529  0.6385 -0.4967
  132OSM   H13B14213   0.803   0.735   6.471  0.2041 -1.2251 -1.1209
  132OSM   H13C14214   0.664   0.663   6.537 -0.3645  0.2731 -0.4826
  132OSM    C1214215   0.663   0.910   6.298  0.4708  0.4032  0.1859
  132OSM   H12A14216   0.613   0.922   6.204  0.3725 -0.7245  0.0956
  132OSM   H12B14217   0.768   0.909   6.273  0.1832 -1.4044 -0.9858
  132OSM    C1114218   0.628   1.027   6.400  0.2961  0.1202  0.4502
  132OSM   H11A14219   0.663   1.116   6.343  0.4827 -0.2561 -0.0198
  132OSM   H11B14220   0.684   1.035   6.496  0.6466  2.6503  0.0863
  132OSM      P14221   0.391   1.145   6.346 -0.1570  0.2488 -0.0693
  132OSM    O1314222   0.433   1.164   6.206 -0.3133 -0.3130 -0.0831
  132OSM    O1414223   0.248   1.109   6.364  0.4894  0.4348 -0.1148
  132OSM    O1114224   0.429   1.275   6.430 -0.1949  0.3745 -0.2460
  132OSM    O1214225   0.482   1.037   6.410 -1.0077  0.6652  0.2315
  132OSM    C1S14226   0.440   1.268   6.573 -0.4929  1.2464 -0.0953
  132OSM    H1S14227   0.492   1.174   6.602  0.9517  1.6328 -1.3411
  132OSM    H1T14228   0.345   1.283   6.629 -1.2332  0.9417 -1.2492
  132OSM     NF14229   0.542   1.362   6.772  0.1933  0.2591  0.4159
  132OSM    HNF14230   0.484   1.425   6.824  3.1773  1.3851  2.5708
  132OSM    C2S14231   0.532   1.381   6.631  0.0939 -0.1726  0.8107
  132OSM    H2S14232   0.630   1.371   6.579  0.0822  1.0671  0.5471
  132OSM    C3S14233   0.473   1.513   6.590  0.1759  0.2426  0.4092
  132OSM    H3S14234   0.369   1.513   6.630  0.1127  2.2045  0.2932
  132OSM     O314235   0.441   1.543   6.460 -0.4700 -1.5169 -0.0144
  132OSM    HO314236   0.449   1.460   6.413 -3.6857 -1.0768 -1.4946
  132OSM    C4S14237   0.554   1.625   6.634 -0.2764  0.4476 -0.6927
  132OSM    H4S14238   0.655   1.635   6.591 -0.0967  0.2694 -0.3177
  132OSM    C5S14239   0.495   1.725   6.709 -0.3522 -0.1994  0.0825
  132OSM    H5S14240   0.397   1.698   6.751 -0.4154  0.9474  0.6701
  132OSM    C6S14241   0.562   1.851   6.751 -0.0452 -0.6563 -0.3421
  132OSM    H6S14242   0.550   1.935   6.680 -2.1959 -0.5587  0.1004
  132OSM    H6T14243   0.673   1.840   6.758 -0.3134 -3.3899  0.2799
  132OSM    C7S14244   0.512   1.900   6.887 -0.9407 -0.5290 -0.4516
  132OSM    H7S14245   0.403   1.896   6.908 -0.7791 -0.4476  0.4029
  132OSM    H7T14246   0.533   2.008   6.903  3.2453 -1.3832  0.3379
  132OSM    C8S14247   0.583   1.817   6.997 -0.5287 -0.2871 -0.0199
  132OSM    H8S14248   0.691   1.844   6.994 -0.8879  1.1682  0.2541
  132OSM    H8T14249   0.572   1.707   6.987 -0.7153 -0.4768  2.1329
  132OSM    C9S14250   0.520   1.843   7.136 -0.1568  0.6658  0.1687
  132OSM    H9S14251   0.480   1.947   7.135  0.4114  0.9235 -3.4928
  132OSM    H9T14252   0.607   1.826   7.202  1.7467  1.1441 -2.1310
  132OSM   C10S14253   0.403   1.748   7.174  0.4570 -0.1245 -0.1423
  132OSM   H10S14254   0.405   1.647   7.126  1.4101  0.0841 -0.5601
  132OSM   H10T14255   0.318   1.805   7.130  0.7948 -0.7146 -1.5961
  132OSM   C11S14256   0.375   1.735   7.327  0.2462 -0.2005  0.0117
  132OSM   H11S14257   0.290   1.663   7.330  0.0058  0.0735 -0.1082
  132OSM   H11T14258   0.342   1.831   7.372 -1.3689 -1.2723  1.2161
  132OSM   C12S14259   0.481   1.673   7.416 -0.0507  0.2232 -0.1810
  132OSM   H12S14260   0.578   1.718   7.385 -1.7399  2.6713 -2.1700
  132OSM   H12T14261   0.488   1.562   7.409  0.0143  0.2115  0.0659
  132OSM   C13S14262   0.451   1.701   7.562 -0.5625 -0.0778  0.1938
  132OSM   H13S14263   0.355   1.653   7.590  0.5600 -2.9421 -0.6042
  132OSM   H13T14264   0.448   1.811   7.573  0.3533  0.1801 -1.9654
  132OSM   C14S14265   0.560   1.662   7.670 -0.4730 -0.1882 -0.4799
  132OSM   H14S14266   0.640   1.738   7.672 -0.6838  0.0235  0.2821
  132OSM   H14T14267   0.612   1.564   7.658  1.7599  0.8022  0.7531
  132OSM   C15S14268   0.496   1.691   7.807 -0.0443 -0.4016  0.5843
  132OSM   H15S14269   0.431   1.605   7.833  0.8594 -1.4707 -0.6525
  132OSM   H15T14270   0.431   1.781   7.807  0.7041  0.2335 -3.6011
  132OSM   C16S14271   0.605   1.727   7.910 -0.3999  0.6962 -0.3453
  132OSM   H16S14272   0.554   1.767   8.000  0.5799 -0.4293  0.7277
  132OSM   H16T14273   0.672   1.804   7.866 -0.1450  0.8792  0.3630
  132OSM   C17S14274   0.688   1.598   7.949 -0.4381  0.2391 -0.4340
  132OSM   H17S14275   0.771   1.646   8.005  1.1779 -3.3311  0.3517
  132OSM   H17T14276   0.730   1.545   7.861 -0.9340 -0.5944 -0.1739
  132OSM   C18S14277   0.621   1.500   8.041  0.0820 -0.2142  0.0697
  132OSM   H18S14278   0.701   1.457   8.106  1.7949  0.1483 -1.7382
  132OSM   H18T14279   0.563   1.421   7.989 -0.6609 -0.2351  0.9041
  132OSM   H18U14280   0.548   1.553   8.106 -2.4024 -0.6930 -2.2706
  132OSM    C1F14281   0.616   1.264   6.828  0.0077  0.5718  0.2442
  132OSM     OF14282   0.691   1.191   6.760 -0.2633 -0.3536 -0.1816
  132OSM    C2F14283   0.604   1.253   6.972 -0.3215  0.2963  0.0452
  132OSM    H2F14284   0.500   1.233   7.007  0.7084 -1.9021  2.0258
  132OSM    H2G14285   0.632   1.348   7.022  1.3291 -0.1921  0.0916
  132OSM    C3F14286   0.692   1.149   7.034  0.2575  0.5813 -0.0150
  132OSM    H3F14287   0.798   1.181   7.044 -0.7020  3.3343  1.9563
  132OSM    H3G14288   0.689   1.054   6.976 -0.8614 -0.6628  2.0154
  132OSM    C4F14289   0.639   1.093   7.171  0.4080  0.0168  0.4321
  132OSM    H4F14290   0.542   1.044   7.148  0.6283 -1.3402  2.3273
  132OSM    H4G14291   0.615   1.167   7.250  1.1532  0.0978  0.5835
  132OSM    C5F14292   0.743   1.004   7.232 -0.1832  0.0462 -0.9628
  132OSM    H5F14293   0.801   1.056   7.311 -1.4752 -2.3462  1.6335
  132OSM    H5G14294   0.814   0.980   7.150 -0.3429 -2.1696 -0.4729
  132OSM    C6F14295   0.694   0.866   7.277 -0.1521 -0.3018  0.2292
  132OSM    H6F14296   0.783   0.800   7.276 -0.6642 -1.0021  0.2257
  132OSM    H6G14297   0.626   0.814   7.206  0.9399  1.2925 -2.0293
  132OSM    C7F14298   0.623   0.882   7.414 -0.9660  0.4291  0.2866
  132OSM    H7F14299   0.520   0.922   7.398 -1.3656 -0.5374  0.4502
  132OSM    H7G14300   0.670   0.964   7.474  0.2312 -1.0991  1.4625
  132OSM    C8F14301   0.640   0.753   7.496  0.3205 -0.0347 -0.5650
  132OSM    H8F14302   0.748   0.729   7.488  0.3925 -0.2394  0.7744
  132OSM    H8G14303   0.575   0.681   7.443  1.0017 -0.0524 -1.3866
  132OSM    C9F14304   0.603   0.758   7.644  0.2947  0.3578  0.8548
  132OSM    H9F14305   0.496   0.773   7.663  0.3701  0.6600  1.0370
  132OSM   C10F14306   0.690   0.743   7.748  0.2239  0.5938  0.2625
  132OSM   H10F14307   0.635   0.728   7.843 -1.4642 -2.1940 -1.0792
  132OSM   C11F14308   0.842   0.719   7.733 -0.2277 -0.0507 -0.5184
  132OSM   H11F14309   0.892   0.809   7.693 -0.2488  0.3263  0.2828
  132OSM   H11G14310   0.875   0.635   7.668 -1.8258 -0.7776 -0.4061
  132OSM   C12F14311   0.920   0.672   7.852  0.7230 -0.7048  0.8077
  132OSM   H12F14312   1.020   0.630   7.827  1.2612 -0.1590  1.9566
  132OSM   H12G14313   0.873   0.588   7.908  0.9654 -0.3819  1.5033
  132OSM   C13F14314   0.941   0.788   7.954 -0.4640  0.1610 -0.1373
  132OSM   H13F14315   0.842   0.825   7.989 -0.8772 -1.7793  0.8559
  132OSM   H13G14316   0.996   0.868   7.901 -0.0854 -0.2249 -0.3246
  132OSM   C14F14317   1.025   0.740   8.076  1.6037  0.3859 -0.9762
  132OSM   H14F14318   1.129   0.722   8.041  0.8499 -1.0864 -2.5026
  132OSM   H14G14319   0.987   0.645   8.119  1.6768  0.0062 -1.7467
  132OSM   C15F14320   1.047   0.844   8.185  0.2748 -0.4015  0.6340
  132OSM   H15F14321   0.945   0.862   8.225  0.6243  0.3079  1.2406
  132OSM   H15G14322   1.089   0.937   8.140 -0.9577  0.6930  1.7087
  132OSM   C16F14323   1.119   0.786   8.308 -0.2356 -0.1975  0.5571
  132OSM   H16F14324   1.221   0.762   8.271 -1.3252 -1.4474 -1.7825
  132OSM   H16G14325   1.057   0.694   8.320 -0.4067 -0.1381  0.1251
  132OSM   C17F14326   1.121   0.869   8.435  0.2539 -0.2434  0.6602
  132OSM   H17F14327   1.136   0.795   8.517  0.9269 -2.1433 -1.1415
  132OSM   H17G14328   1.023   0.920   8.449 -1.1009 -2.7232  0.4597
  132OSM   C18F14329   1.242   0.962   8.441 -0.2219 -0.0887  1.3598
  132OSM   H18F14330   1.260   1.029   8.354 -2.9186  0.4496  1.1774
  132OSM   H18G14331   1.332   0.898   8.430  0.5756  1.1861  0.3073
  132OSM   H18H14332   1.247   1.017   8.538  2.2104  3.1314 -0.4733
  133OSM      N14333   0.748   1.341   6.055 -0.1846  0.5653  0.3073
  133OSM    C1514334   0.696   1.372   6.192  0.4603 -0.3038  0.1990
  133OSM   H15A14335   0.700   1.477   6.217 -0.0793 -0.1621 -0.2846
  133OSM   H15B14336   0.751   1.328   6.274 -0.9487 -1.0701  0.7428
  133OSM   H15C14337   0.590   1.354   6.204  0.1622  0.5752 -0.9729
  133OSM    C1414338   0.728   1.199   6.028 -0.1315  0.3711 -0.0109
  133OSM   H14A14339   0.628   1.166   6.054  0.0767 -1.3058 -1.2397
  133OSM   H14B14340   0.796   1.145   6.092  0.5431  1.0476 -0.1516
  133OSM   H14C14341   0.745   1.177   5.923 -2.5921 -0.6665 -0.2323
  133OSM    C1314342   0.663   1.409   5.952  0.2253  0.4381  0.2907
  133OSM   H13A14343   0.560   1.380   5.961  0.3238 -0.0097 -0.0206
  133OSM   H13B14344   0.695   1.372   5.855 -2.3680 -2.0383  0.3285
  133OSM   H13C14345   0.672   1.517   5.943 -1.5274  0.4285 -1.9919
  133OSM    C1214346   0.890   1.394   6.034 -0.8916  0.0329  0.7021
  133OSM   H12A14347   0.882   1.502   6.041 -1.2338  0.1796 -1.4339
  133OSM   H12B14348   0.905   1.380   5.928 -2.8230  0.4268  0.3613
  133OSM    C1114349   1.009   1.352   6.119 -0.5116 -1.1811 -0.3366
  133OSM   H11A14350   0.993   1.403   6.217 -0.9142 -0.5153 -0.7393
  133OSM   H11B14351   1.104   1.392   6.079 -1.0410 -0.5996 -1.0263
  133OSM      P14352   1.026   1.118   6.243  0.3027  0.1424  0.2904
  133OSM    O1314353   0.940   0.998   6.212 -0.8209 -0.0452 -0.3311
  133OSM    O1414354   1.172   1.098   6.279 -0.1963 -0.3813 -0.1614
  133OSM    O1114355   0.968   1.208   6.364 -0.1346  0.6707  0.1737
  133OSM    O1214356   1.025   1.209   6.123 -0.5339  0.0468 -0.0978
  133OSM    C1S14357   0.968   1.153   6.495 -0.2246 -0.7920  0.6249
  133OSM    H1S14358   1.008   1.050   6.499 -1.5984 -1.3317  0.5485
  133OSM    H1T14359   0.860   1.143   6.521 -0.4237 -1.1602 -0.3560
  133OSM     NF14360   0.985   1.183   6.738 -0.0124 -0.0491  0.2090
  133OSM    HNF14361   0.902   1.214   6.786 -0.5391  0.6322 -1.1146
  133OSM    C2S14362   1.026   1.244   6.606 -0.1075 -0.4367 -0.7479
  133OSM    H2S14363   1.137   1.241   6.593 -0.0460  1.2653 -0.6805
  133OSM    C3S14364   0.966   1.386   6.578 -0.0852  0.4645 -0.0699
  133OSM    H3S14365   0.859   1.394   6.550 -0.0717 -0.9115 -0.5500
  133OSM     O314366   1.034   1.449   6.470  0.8628 -0.0555 -0.0847
  133OSM    HO314367   1.082   1.377   6.428  1.4016  0.5167 -0.4640
  133OSM    C4S14368   0.975   1.478   6.699  0.1225  0.4496 -0.0932
  133OSM    H4S14369   1.079   1.511   6.715  0.1812  0.9229 -1.3957
  133OSM    C5S14370   0.877   1.521   6.783 -0.3943 -0.4375  0.4532
  133OSM    H5S14371   0.773   1.488   6.771 -0.2578 -1.0318  0.8821
  133OSM    C6S14372   0.921   1.604   6.899 -0.2749  0.2677 -0.0238
  133OSM    H6S14373   0.874   1.704   6.884 -3.6280 -1.3291 -0.7796
  133OSM    H6T14374   1.031   1.617   6.896 -0.2981  0.2611 -1.1396
  133OSM    C7S14375   0.874   1.535   7.027 -0.2292  0.2331  0.3500
  133OSM    H7S14376   0.883   1.425   7.031 -3.1430 -0.0307  1.2545
  133OSM    H7T14377   0.764   1.544   7.040  0.0359  0.0184  3.0715
  133OSM    C8S14378   0.935   1.594   7.159 -0.0288 -0.0793  0.5100
  133OSM    H8S14379   0.881   1.691   7.165 -0.0335 -0.1080  0.9490
  133OSM    H8T14380   1.045   1.609   7.149 -0.7496  4.2880 -1.7054
  133OSM    C9S14381   0.900   1.503   7.281 -0.6849  0.8373  0.5878
  133OSM    H9S14382   0.928   1.397   7.267  0.5236  1.1186  0.8402
  133OSM    H9T14383   0.789   1.506   7.287 -0.7683 -2.8605  1.6463
  133OSM   C10S14384   0.955   1.557   7.417 -0.2853  0.0230  0.0522
  133OSM   H10S14385   0.923   1.663   7.415 -2.5462 -0.6487 -0.2996
  133OSM   H10T14386   1.063   1.535   7.403 -0.7100 -2.0924 -0.1194
  133OSM   C11S14387   0.901   1.489   7.546  0.3878  0.3805  0.1482
  133OSM   H11S14388   0.790   1.493   7.541  0.4943  1.6041 -1.7962
  133OSM   H11T14389   0.931   1.531   7.644 -0.8340  1.7455 -0.0506
  133OSM   C12S14390   0.940   1.340   7.543  0.4622  0.2146  0.1222
  133OSM   H12S14391   1.044   1.329   7.506  0.7336 -0.0881  0.9757
  133OSM   H12T14392   0.870   1.297   7.468 -0.4300  2.1983 -0.2350
  133OSM   C13S14393   0.932   1.263   7.676 -0.2013  0.0246 -0.2642
  133OSM   H13S14394   0.935   1.338   7.759  2.6781 -0.6903  0.3210
  133OSM   H13T14395   1.026   1.207   7.698 -1.1631 -0.9185  1.5678
  133OSM   C14S14396   0.811   1.168   7.681  1.2056  0.0322  0.4321
  133OSM   H14S14397   0.807   1.102   7.591 -0.5710 -0.8553  1.1410
  133OSM   H14T14398   0.720   1.232   7.682  1.7352  0.8192 -0.2480
  133OSM   C15S14399   0.792   1.084   7.815  0.5271 -0.3050 -0.1944
  133OSM   H15S14400   0.881   1.020   7.830  0.3806 -0.2171  1.0997
  133OSM   H15T14401   0.705   1.016   7.802 -0.2852  0.3366  1.7019
  133OSM   C16S14402   0.773   1.172   7.933  0.0019  0.9826 -0.0347
  133OSM   H16S14403   0.684   1.237   7.919  0.2981  1.0393 -1.7858
  133OSM   H16T14404   0.859   1.242   7.946  0.2908  0.6819 -0.3156
  133OSM   C17S14405   0.763   1.092   8.066  0.0854 -0.3334 -0.5972
  133OSM   H17S14406   0.855   1.030   8.078 -0.1287 -0.9083 -1.8954
  133OSM   H17T14407   0.674   1.027   8.054 -0.4845 -0.1842  2.4066
  133OSM   C18S14408   0.737   1.188   8.191 -0.0527 -0.1387  0.0422
  133OSM   H18S14409   0.800   1.280   8.194 -1.1137  0.6211 -0.5879
  133OSM   H18T14410   0.754   1.131   8.285  0.1189  1.5148  1.0482
  133OSM   H18U14411   0.638   1.237   8.186 -0.0979 -0.2546 -0.1804
  133OSM    C1F14412   1.053   1.078   6.782  0.0356  0.0322 -0.5831
  133OSM     OF14413   1.153   1.044   6.729 -0.7858 -0.2709 -0.7178
  133OSM    C2F14414   0.998   0.999   6.900  0.9125  0.1861 -0.0529
  133OSM    H2F14415   0.894   0.993   6.861  0.7571  1.5275  0.1236
  133OSM    H2G14416   1.023   1.057   6.991 -1.2922  1.6288 -0.3254
  133OSM    C3F14417   1.039   0.849   6.901  0.7559 -0.4217 -0.1700
  133OSM    H3F14418   1.047   0.803   6.799  1.4574 -2.0013  0.5742
  133OSM    H3G14419   0.967   0.788   6.960  0.8865 -2.4245 -1.9936
  133OSM    C4F14420   1.166   0.819   6.979 -0.2858  0.3332 -0.0833
  133OSM    H4F14421   1.153   0.861   7.081  0.6268  0.8161 -0.1557
  133OSM    H4G14422   1.250   0.868   6.924 -0.0680 -1.5710 -1.5021
  133OSM    C5F14423   1.190   0.665   6.989 -0.0356 -0.2019  0.5110
  133OSM    H5F14424   1.220   0.633   6.888 -0.4626  1.0004 -0.0092
  133OSM    H5G14425   1.099   0.603   7.000  0.2650 -1.0924 -1.8865
  133OSM    C6F14426   1.294   0.610   7.088 -0.0568  0.1613 -0.1327
  133OSM    H6F14427   1.242   0.605   7.186  0.7596 -0.4015  0.2735
  133OSM    H6G14428   1.381   0.679   7.091  0.9896 -1.1041 -0.6950
  133OSM    C7F14429   1.337   0.469   7.052  0.4696  0.8576 -0.5237
  133OSM    H7F14430   1.375   0.471   6.947  2.7843 -0.3529  0.2519
  133OSM    H7G14431   1.248   0.403   7.049  1.7744 -0.9188 -0.9320
  133OSM    C8F14432   1.450   0.394   7.140  0.2249  0.2384 -0.1625
  133OSM    H8F14433   1.543   0.445   7.106  0.0668 -0.2890 -1.4169
  133OSM    H8G14434   1.463   0.288   7.108  2.0702  0.2424  0.4987
  133OSM    C9F14435   1.419   0.407   7.285  0.2036 -0.3038 -0.4512
  133OSM    H9F14436   1.316   0.436   7.310 -0.1482 -0.6198 -1.4913
  133OSM   C10F14437   1.500   0.399   7.392 -0.5158 -0.4751  0.3155
  133OSM   H10F14438   1.459   0.419   7.492 -2.2554  2.5134 -0.9426
  133OSM   C11F14439   1.649   0.369   7.383  0.1700  0.0926  0.2054
  133OSM   H11F14440   1.678   0.341   7.279  0.3249  1.3622 -0.1128
  133OSM   H11G14441   1.663   0.284   7.452 -1.3026  1.4471  2.2414
  133OSM   C12F14442   1.748   0.479   7.423  0.0280 -0.3048 -0.3763
  133OSM   H12F14443   1.849   0.437   7.442  1.1825  2.6804  0.2778
  133OSM   H12G14444   1.717   0.510   7.525 -0.0255  0.3394 -0.5924
  133OSM   C13F14445   1.748   0.599   7.326  0.3088 -0.1162 -0.5311
  133OSM   H13F14446   1.801   0.680   7.379 -2.6769  1.0280  0.8310
  133OSM   H13G14447   1.639   0.621   7.327  0.0332 -1.3587 -1.5409
  133OSM   C14F14448   1.795   0.568   7.184 -0.6049  0.8256 -0.0345
  133OSM   H14F14449   1.705   0.591   7.122 -0.5527  2.5285  0.4812
  133OSM   H14G14450   1.815   0.460   7.168 -2.1188  0.8094 -2.0592
  133OSM   C15F14451   1.912   0.658   7.129 -0.1711 -1.1546 -0.0000
  133OSM   H15F14452   1.891   0.767   7.131  3.0344 -0.5171  3.2560
  133OSM   H15G14453   1.916   0.633   7.021  0.4447  0.1240 -0.2864
  133OSM   C16F14454   2.046   0.638   7.199  0.4709  0.8159  0.2393
  133OSM   H16F14455   2.069   0.530   7.182 -0.6819  0.6658 -0.3868
  133OSM   H16G14456   2.027   0.655   7.307 -1.6271 -2.6602  0.5021
  133OSM   C17F14457   2.169   0.703   7.147 -0.6331 -0.5171  0.4402
  133OSM   H17F14458   2.246   0.705   7.227 -1.5021  0.6264  1.2734
  133OSM   H17G14459   2.144   0.811   7.134 -1.2773 -0.7698 -0.4225
  133OSM   C18F14460   2.226   0.652   7.012  0.1557 -1.4336  0.0990
  133OSM   H18F14461   2.301   0.725   6.974  0.9757 -0.8617  2.7125
  133OSM   H18G14462   2.146   0.631   6.938 -0.9135 -0.9694  1.1103
  133OSM   H18H14463   2.279   0.555   7.022  1.1718 -0.6509  2.8647
  134OSM      N14464   1.470   4.936   6.300  0.5722 -0.1371 -0.0968
  134OSM    C1514465   1.333   4.964   6.372 -0.4553  0.6074 -0.2192
  134OSM   H15A14466   1.256   4.954   6.297 -1.1509  2.3615  0.2529
  134OSM   H15B14467   1.327   5.061   6.418 -1.5915  1.6988 -2.5818
  134OSM   H15C14468   1.300   4.906   6.456 -0.8579  1.2350  0.0559
  134OSM    C1414469   1.452   4.818   6.215  0.0915  0.2240  0.2138
  134OSM   H14A14470   1.533   4.802   6.145  1.2222  2.6056  0.9360
  134OSM   H14B14471   1.356   4.831   6.167  0.7912  2.0994 -0.7132
  134OSM   H14C14472   1.462   4.733   6.281 -0.7966  0.8908  1.2212
  134OSM    C1314473   1.496   5.056   6.214 -0.2842  0.2298 -0.2932
  134OSM   H13A14474   1.577   5.033   6.146 -0.4705 -1.3013 -0.0275
  134OSM   H13B14475   1.528   5.139   6.275  2.0689 -0.3063 -0.7624
  134OSM   H13C14476   1.409   5.087   6.158 -1.4484 -2.0970  0.1334
  134OSM    C1214477   1.581   4.926   6.403  1.1392 -0.1504  0.1592
  134OSM   H12A14478   1.580   5.022   6.452 -2.0018  1.1084 -2.2107
  134OSM   H12B14479   1.681   4.918   6.362  0.7271 -1.7652 -0.5932
  134OSM    C1114480   1.572   4.807   6.501  0.2671  0.0792  0.4360
  134OSM   H11A14481   1.470   4.802   6.547  0.1669 -0.5410  0.1484
  134OSM   H11B14482   1.648   4.807   6.582 -0.0182  1.3532  0.7294
  134OSM      P14483   1.708   4.595   6.413 -0.5196 -0.1107 -0.1099
  134OSM    O1314484   1.696   4.494   6.307 -0.5896 -0.3215 -0.3353
  134OSM    O1414485   1.832   4.680   6.402 -0.2835 -0.5083  0.4057
  134OSM    O1114486   1.712   4.508   6.538  0.1337  0.5124 -0.4367
  134OSM    O1214487   1.578   4.683   6.424  0.0827  0.0767  0.5293
  134OSM    C1S14488   1.705   4.559   6.673  0.3272  0.2351  0.0126
  134OSM    H1S14489   1.598   4.582   6.695  0.2933 -0.0352  0.1316
  134OSM    H1T14490   1.759   4.655   6.688 -0.4415  0.3080  2.7051
  134OSM     NF14491   1.798   4.545   6.901  0.2126  0.6170 -0.4605
  134OSM    HNF14492   1.889   4.564   6.937  0.5266 -2.3505  0.4337
  134OSM    C2S14493   1.777   4.467   6.780 -0.1393  0.4390  0.3267
  134OSM    H2S14494   1.712   4.378   6.794 -1.8194  1.5029 -0.5726
  134OSM    C3S14495   1.909   4.404   6.734  0.2713  0.2010  0.0960
  134OSM    H3S14496   1.979   4.487   6.711  0.8487 -0.6128 -1.1265
  134OSM     O314497   1.898   4.325   6.612  0.3365 -0.3089 -0.1461
  134OSM    HO314498   1.825   4.365   6.565  0.1251 -0.9383 -0.3539
  134OSM    C4S14499   1.966   4.315   6.845  0.0480 -0.1957  0.4419
  134OSM    H4S14500   1.896   4.234   6.871 -1.6059  1.1460  0.2989
  134OSM    C5S14501   2.072   4.337   6.918  0.0103 -0.5763 -0.6648
  134OSM    H5S14502   2.132   4.429   6.913  0.3848 -0.6886  1.2909
  134OSM    C6S14503   2.109   4.242   7.028 -0.0990 -0.3997 -0.1870
  134OSM    H6S14504   2.036   4.260   7.110 -0.1814  0.5322 -0.4626
  134OSM    H6T14505   2.209   4.276   7.064 -0.5796  1.8132 -0.8866
  134OSM    C7S14506   2.137   4.094   6.994  0.2947  0.3632 -0.1760
  134OSM    H7S14507   2.196   4.089   6.899  0.4539  0.3995 -0.0785
  134OSM    H7T14508   2.040   4.041   6.988  1.2699 -1.4062 -0.9073
  134OSM    C8S14509   2.214   4.005   7.086 -0.5904 -0.6794  0.1195
  134OSM    H8S14510   2.315   4.051   7.085 -1.2523  0.7696 -0.9876
  134OSM    H8T14511   2.219   3.904   7.040  0.2389  0.0564 -1.4637
  134OSM    C9S14512   2.155   4.010   7.224  0.5984 -0.3175 -0.1936
  134OSM    H9S14513   2.048   3.983   7.216  0.4420 -0.1368  1.2482
  134OSM    H9T14514   2.170   4.110   7.270 -0.1178  0.4786 -1.6409
  134OSM   C10S14515   2.214   3.917   7.329  0.4608  0.0555  0.6317
  134OSM   H10S14516   2.324   3.931   7.321  0.1515  0.9274 -2.6830
  134OSM   H10T14517   2.187   3.812   7.309 -2.2138  0.7196  0.6009
  134OSM   C11S14518   2.177   3.940   7.475  0.0095 -0.5848 -0.8185
  134OSM   H11S14519   2.080   3.887   7.488 -0.6369  0.3898 -1.5910
  134OSM   H11T14520   2.169   4.042   7.518  0.2691 -1.3713  1.1558
  134OSM   C12S14521   2.264   3.866   7.579  0.2285 -0.2885 -0.4433
  134OSM   H12S14522   2.358   3.923   7.595  0.3804  0.0965 -2.5897
  134OSM   H12T14523   2.296   3.767   7.540 -2.5060 -2.0258  1.5125
  134OSM   C13S14524   2.190   3.855   7.718 -0.3594  0.5132 -0.8050
  134OSM   H13S14525   2.088   3.812   7.717 -0.3251  0.3958  0.7150
  134OSM   H13T14526   2.177   3.957   7.759  0.3095  0.1290  0.3611
  134OSM   C14S14527   2.279   3.797   7.824  0.2771 -0.5389 -0.4885
  134OSM   H14S14528   2.371   3.859   7.833 -1.1572  1.5207  0.4522
  134OSM   H14T14529   2.305   3.697   7.784  0.0672  0.0166 -2.0561
  134OSM   C15S14530   2.216   3.781   7.970 -0.9707 -0.3988  0.4923
  134OSM   H15S14531   2.127   3.715   7.976  0.4329 -2.2962  0.7792
  134OSM   H15T14532   2.183   3.884   7.996  0.0258  0.0645 -0.0968
  134OSM   C16S14533   2.315   3.740   8.072 -0.1334  0.6442  0.1125
  134OSM   H16S14534   2.402   3.806   8.085 -0.8359  2.1053 -2.3331
  134OSM   H16T14535   2.353   3.640   8.040  1.0963  0.3774  2.3578
  134OSM   C17S14536   2.259   3.701   8.212 -0.3498 -0.2589  0.1085
  134OSM   H17S14537   2.186   3.779   8.244  0.3720  0.7989 -0.7755
  134OSM   H17T14538   2.338   3.702   8.291  0.3517  0.6309 -0.5899
  134OSM   C18S14539   2.181   3.571   8.232  0.0142 -0.3489 -0.6692
  134OSM   H18S14540   2.214   3.490   8.162  1.3141  0.7647 -1.3602
  134OSM   H18T14541   2.078   3.605   8.206  1.6229  3.3344 -2.6014
  134OSM   H18U14542   2.178   3.532   8.336  0.1782 -2.0075 -1.2655
  134OSM    C1F14543   1.693   4.573   6.981  0.3278  0.1668  0.8965
  134OSM     OF14544   1.580   4.528   6.964 -0.4287 -0.1859 -0.3164
  134OSM    C2F14545   1.727   4.661   7.098 -0.0438  1.1611 -0.7394
  134OSM    H2F14546   1.720   4.768   7.069 -0.9458  1.6131  1.1195
  134OSM    H2G14547   1.831   4.634   7.124  0.3859  0.7483 -2.7647
  134OSM    C3F14548   1.633   4.618   7.219 -0.2214  0.6824 -0.0907
  134OSM    H3F14549   1.653   4.510   7.236 -0.6174  0.6379  0.0805
  134OSM    H3G14550   1.525   4.639   7.210 -0.8316 -2.1340  0.2306
  134OSM    C4F14551   1.660   4.696   7.345  0.5333 -1.3526  0.8127
  134OSM    H4F14552   1.666   4.806   7.327  1.9463 -1.7519 -1.4710
  134OSM    H4G14553   1.760   4.661   7.379  1.0290  0.2446  1.0289
  134OSM    C5F14554   1.549   4.692   7.453 -0.5489 -0.4726 -0.4231
  134OSM    H5F14555   1.459   4.725   7.396 -1.8726 -2.3204  0.5166
  134OSM    H5G14556   1.584   4.774   7.520  0.2228 -1.0974 -0.0457
  134OSM    C6F14557   1.542   4.558   7.522  0.0907  0.2269  0.3620
  134OSM    H6F14558   1.639   4.548   7.576 -0.0571  0.9855  0.7644
  134OSM    H6G14559   1.534   4.465   7.461 -0.0215  0.0352  0.6665
  134OSM    C7F14560   1.440   4.531   7.639 -0.8963  0.2215  0.0524
  134OSM    H7F14561   1.443   4.421   7.654  0.8646  0.4101  1.2444
  134OSM    H7G14562   1.333   4.550   7.616 -1.0296  0.2526  0.6883
  134OSM    C8F14563   1.478   4.596   7.767  0.8717  0.5705 -0.5630
  134OSM    H8F14564   1.463   4.706   7.760  0.3858  0.5998  0.6729
  134OSM    H8G14565   1.583   4.573   7.795  0.6293 -0.0537 -0.1645
  134OSM    C9F14566   1.389   4.551   7.883  0.7346 -0.1606 -0.3277
  134OSM    H9F14567   1.285   4.586   7.889  0.3340 -1.6160  1.9928
  134OSM   C10F14568   1.424   4.456   7.983  0.1393  0.5917  0.1058
  134OSM   H10F14569   1.348   4.430   8.057 -1.5153  2.4440 -0.9024
  134OSM   C11F14570   1.561   4.388   8.004  0.2753 -0.3187 -0.9425
  134OSM   H11F14571   1.606   4.382   7.903  1.5910 -1.0726 -0.3223
  134OSM   H11G14572   1.540   4.280   8.018  1.3813 -0.4426 -0.1704
  134OSM   C12F14573   1.645   4.441   8.123  0.0167  0.3578  0.1442
  134OSM   H12F14574   1.585   4.441   8.217 -1.6087 -1.1044 -0.8698
  134OSM   H12G14575   1.664   4.548   8.099 -1.9442  1.1957  2.1040
  134OSM   C13F14576   1.791   4.382   8.147 -0.3930 -0.5749  0.0622
  134OSM   H13F14577   1.842   4.445   8.223  1.0674 -1.8822  0.1968
  134OSM   H13G14578   1.842   4.370   8.049 -0.3255  1.1651 -0.1360
  134OSM   C14F14579   1.789   4.242   8.205  0.3203  0.6861  0.2454
  134OSM   H14F14580   1.730   4.174   8.140 -0.1039  1.8127 -0.5669
  134OSM   H14G14581   1.750   4.245   8.309  2.0402  2.1355  0.8650
  134OSM   C15F14582   1.927   4.174   8.197  0.5869 -0.4437  0.4010
  134OSM   H15F14583   2.003   4.226   8.259  2.0815 -0.5547 -1.3283
  134OSM   H15G14584   1.974   4.168   8.097 -0.2256 -1.1871  0.0529
  134OSM   C16F14585   1.928   4.031   8.256 -0.2434 -0.4975 -0.0589
  134OSM   H16F14586   2.027   3.983   8.236  0.2817  0.5573 -0.0404
  134OSM   H16G14587   1.858   3.958   8.210 -1.4667  0.3274  0.4771
  134OSM   C17F14588   1.915   4.031   8.410  0.3598 -0.4681 -0.7460
  134OSM   H17F14589   1.809   4.037   8.441  0.3422  0.1520 -0.9223
  134OSM   H17G14590   1.953   4.119   8.466  1.6679 -2.0855  0.9829
  134OSM   C18F14591   1.969   3.901   8.474  0.2169  0.0905 -0.2692
  134OSM   H18F14592   1.944   3.888   8.581  0.7934 -1.4107 -0.3002
  134OSM   H18G14593   2.080   3.893   8.475  0.1344 -1.1154  0.4258
  134OSM   H18H14594   1.930   3.814   8.416  0.7846 -0.7043  0.5307
  135OSM      N14595   1.364   4.328   6.094  0.5484  0.5335 -0.8051
  135OSM    C1514596   1.404   4.287   5.952  0.7835 -0.5853  0.0139
  135OSM   H15A14597   1.473   4.204   5.947  2.4112  0.7106  0.3240
  135OSM   H15B14598   1.453   4.367   5.898  0.4236 -2.8788 -3.8859
  135OSM   H15C14599   1.318   4.261   5.893 -0.2801  0.5524  1.0550
  135OSM    C1414600   1.284   4.220   6.148  0.5709  0.2811  0.2132
  135OSM   H14A14601   1.351   4.139   6.172  1.0760  0.4930 -0.4643
  135OSM   H14B14602   1.216   4.179   6.075  0.7394  1.0237 -0.3685
  135OSM   H14C14603   1.228   4.248   6.236 -1.1495  0.4342 -0.9100
  135OSM    C1314604   1.479   4.353   6.178 -0.3780 -0.5304  0.4529
  135OSM   H13A14605   1.519   4.449   6.151  2.7041 -1.2928  2.1102
  135OSM   H13B14606   1.551   4.275   6.160 -0.8846 -1.2270  1.4063
  135OSM   H13C14607   1.451   4.352   6.283 -4.3333  0.1625 -0.4855
  135OSM    C1214608   1.282   4.461   6.083 -0.0054  0.5495  0.2082
  135OSM   H12A14609   1.186   4.430   6.044  2.0014 -3.7902 -1.6141
  135OSM   H12B14610   1.333   4.527   6.014 -0.1006  0.8311  0.4038
  135OSM    C1114611   1.253   4.536   6.223 -0.5735  0.1319  0.0198
  135OSM   H11A14612   1.201   4.631   6.197 -2.6134 -0.8295  0.5056
  135OSM   H11B14613   1.348   4.569   6.271 -1.0967 -0.4430  1.4658
  135OSM      P14614   1.080   4.506   6.420 -0.1877 -0.2678  0.0510
  135OSM    O1314615   1.080   4.655   6.415  0.2213 -0.1913 -0.2559
  135OSM    O1414616   0.950   4.437   6.399 -0.0370  0.6003  0.1844
  135OSM    O1114617   1.160   4.459   6.548  0.5407 -0.0459 -0.4300
  135OSM    O1214618   1.176   4.447   6.310  0.0825 -0.9285  0.1298
  135OSM    C1S14619   1.273   4.523   6.610 -0.4105 -0.6486  0.4713
  135OSM    H1S14620   1.303   4.615   6.554 -0.4947 -0.7093  0.3255
  135OSM    H1T14621   1.364   4.459   6.605  0.7859  1.1962 -3.0578
  135OSM     NF14622   1.350   4.643   6.821  0.0335  1.0679  0.5621
  135OSM    HNF14623   1.432   4.608   6.867  1.9040  0.5721 -2.9398
  135OSM    C2S14624   1.250   4.550   6.768  0.5381  1.1154 -0.0286
  135OSM    H2S14625   1.151   4.598   6.784 -0.2834 -0.4097 -0.4491
  135OSM    C3S14626   1.240   4.411   6.831  0.1644  0.4226  0.9981
  135OSM    H3S14627   1.318   4.342   6.793  1.0248  1.9843 -0.1617
  135OSM     O314628   1.116   4.352   6.783  0.2062  0.2853 -1.3994
  135OSM    HO314629   1.098   4.404   6.704  2.6226  0.8496 -1.6375
  135OSM    C4S14630   1.242   4.425   6.982  0.1642  0.0096 -0.1399
  135OSM    H4S14631   1.335   4.400   7.035 -1.6762 -2.6044  1.9688
  135OSM    C5S14632   1.136   4.458   7.058  0.6585 -0.5044  0.4322
  135OSM    H5S14633   1.040   4.478   7.008  0.9089  2.0809  0.9029
  135OSM    C6S14634   1.145   4.471   7.209  0.2656 -0.0609 -0.0705
  135OSM    H6S14635   1.067   4.541   7.247 -0.2537 -0.0418 -1.1566
  135OSM    H6T14636   1.245   4.508   7.239 -0.2192  1.4559 -0.2660
  135OSM    C7S14637   1.099   4.347   7.290  0.5795  0.0672  0.1407
  135OSM    H7S14638   1.171   4.263   7.275 -1.1217 -1.1045 -1.6737
  135OSM    H7T14639   0.999   4.322   7.248  0.7204  0.2664 -0.3104
  135OSM    C8S14640   1.073   4.381   7.440  0.9260  0.3248 -0.9467
  135OSM    H8S14641   1.021   4.478   7.454 -2.1671 -1.6926  2.0823
  135OSM    H8T14642   1.177   4.393   7.478  0.5745  0.0588  0.1046
  135OSM    C9S14643   0.982   4.278   7.504 -0.5547  0.3179  0.0399
  135OSM    H9S14644   1.041   4.184   7.488 -1.7033 -0.2988 -0.6083
  135OSM    H9T14645   0.890   4.282   7.443  0.5825  0.7299 -1.6849
  135OSM   C10S14646   0.947   4.299   7.651  1.0298  0.4738 -0.7297
  135OSM   H10S14647   0.871   4.233   7.699  0.7759 -0.7589 -2.7656
  135OSM   H10T14648   0.894   4.397   7.653  0.0945  0.0297 -2.2105
  135OSM   C11S14649   1.072   4.305   7.735  0.0157  0.0935 -0.1299
  135OSM   H11S14650   1.127   4.401   7.722  0.9559 -0.3718  0.2959
  135OSM   H11T14651   1.141   4.220   7.714 -1.8362 -0.8502 -2.6092
  135OSM   C12S14652   1.033   4.306   7.884  0.2638 -0.2963  0.1895
  135OSM   H12S14653   1.133   4.310   7.932  1.8922  1.4941 -3.1178
  135OSM   H12T14654   0.985   4.211   7.914  1.7286 -1.2125 -0.3012
  135OSM   C13S14655   0.949   4.432   7.926 -0.1098 -0.1721  0.3503
  135OSM   H13S14656   0.860   4.446   7.860  1.2710  0.7388 -1.3673
  135OSM   H13T14657   1.021   4.514   7.908 -1.4046  0.9702  0.2552
  135OSM   C14S14658   0.911   4.425   8.078  0.4958 -0.0254 -0.2281
  135OSM   H14S14659   0.848   4.335   8.094  2.6704 -1.3989  0.7319
  135OSM   H14T14660   0.843   4.510   8.097 -0.6943 -0.8215 -0.8265
  135OSM   C15S14661   1.030   4.417   8.180 -0.1680  0.1375 -0.1578
  135OSM   H15S14662   1.077   4.514   8.204 -1.2028  0.8583 -1.0004
  135OSM   H15T14663   1.115   4.357   8.141  1.3376  2.8281 -1.0803
  135OSM   C16S14664   0.988   4.357   8.318  0.1418 -0.4214  0.5909
  135OSM   H16S14665   1.087   4.334   8.364  0.5966  1.1199  0.4239
  135OSM   H16T14666   0.934   4.264   8.293  0.9690 -0.9980  0.9344
  135OSM   C17S14667   0.898   4.437   8.409  0.0875 -0.3036 -0.3799
  135OSM   H17S14668   0.795   4.450   8.371  0.4972 -0.4755 -1.5783
  135OSM   H17T14669   0.931   4.543   8.410  0.9674 -0.4616 -3.9617
  135OSM   C18S14670   0.892   4.397   8.559 -0.0214  0.0465  0.2201
  135OSM   H18S14671   0.996   4.379   8.595  0.0378 -0.8126 -0.3815
  135OSM   H18T14672   0.848   4.297   8.580  0.9897 -0.4636 -0.0879
  135OSM   H18U14673   0.849   4.478   8.622 -0.6926 -1.2155  1.4133
  135OSM    C1F14674   1.346   4.774   6.792 -0.6303  0.4644  0.4755
  135OSM     OF14675   1.263   4.809   6.710 -0.5366 -0.0120  0.3595
  135OSM    C2F14676   1.454   4.869   6.848 -0.3045  0.5015  0.6996
  135OSM    H2F14677   1.547   4.838   6.795 -0.9462  3.6136 -2.4569
  135OSM    H2G14678   1.467   4.834   6.953  1.1552 -2.4009 -0.4034
  135OSM    C3F14679   1.420   5.017   6.825 -0.0915  0.4248  0.4079
  135OSM    H3F14680   1.345   5.045   6.902 -2.0741 -1.5805 -0.7424
  135OSM    H3G14681   1.402   5.044   6.719 -0.6830  1.1598  0.6902
  135OSM    C4F14682   1.554   5.090   6.857 -0.0551  0.5027  0.7083
  135OSM    H4F14683   1.545   5.198   6.833  0.1745  0.1990 -0.8106
  135OSM    H4G14684   1.629   5.045   6.789  0.5180  1.0147  0.9904
  135OSM    C5F14685   1.618   5.069   6.995 -0.4341  0.5504 -0.6742
  135OSM    H5F14686   1.723   5.107   6.988  0.1752 -0.8141  0.7845
  135OSM    H5G14687   1.632   4.962   7.019  2.0124  0.9441 -0.1249
  135OSM    C6F14688   1.543   5.154   7.111  0.1550  0.6470  0.0657
  135OSM    H6F14689   1.447   5.110   7.144  0.9590 -0.9498  0.3495
  135OSM    H6G14690   1.549   5.264   7.097  1.3873  0.8873  2.2237
  135OSM    C7F14691   1.628   5.121   7.242  0.0343  0.2117  0.2070
  135OSM    H7F14692   1.732   5.152   7.217  0.5256 -0.7646  0.9981
  135OSM    H7G14693   1.639   5.011   7.248  2.5126  0.5328  2.1962
  135OSM    C8F14694   1.563   5.178   7.373  0.2544 -0.1377 -0.1336
  135OSM    H8F14695   1.515   5.095   7.429  0.6954  0.0658  0.5651
  135OSM    H8G14696   1.484   5.249   7.342 -0.3185 -0.5368  0.4102
  135OSM    C9F14697   1.657   5.243   7.464  0.5443 -0.2012 -0.2466
  135OSM    H9F14698   1.676   5.345   7.425 -0.1882 -0.7040 -1.9512
  135OSM   C10F14699   1.723   5.192   7.568  0.0010  0.0140  0.1285
  135OSM   H10F14700   1.796   5.245   7.631  0.6528 -0.6122 -0.0874
  135OSM   C11F14701   1.715   5.055   7.637 -0.0260  0.2743 -0.2948
  135OSM   H11F14702   1.820   5.017   7.635 -0.3125 -0.7893  2.7097
  135OSM   H11G14703   1.649   4.992   7.573  0.7230 -0.2597 -0.5485
  135OSM   C12F14704   1.678   5.043   7.786 -0.9164  0.5654 -0.3433
  135OSM   H12F14705   1.736   5.121   7.839  2.2742 -0.9625 -1.4770
  135OSM   H12G14706   1.705   4.939   7.813 -0.3964  0.2346 -2.0365
  135OSM   C13F14707   1.529   5.065   7.805  0.4101  0.3667 -0.1858
  135OSM   H13F14708   1.476   4.984   7.751  2.2398  0.1084 -1.6642
  135OSM   H13G14709   1.490   5.157   7.755  0.7764 -0.5474 -2.2377
  135OSM   C14F14710   1.489   5.059   7.955  0.1555  0.3042 -0.0404
  135OSM   H14F14711   1.382   5.086   7.965  0.4413  1.2363  0.5798
  135OSM   H14G14712   1.540   5.145   8.004  1.5164  0.6156 -1.9420
  135OSM   C15F14713   1.507   4.927   8.037 -0.2022  0.5780  0.4094
  135OSM   H15F14714   1.581   4.858   7.991 -1.4021  0.9563 -2.2037
  135OSM   H15G14715   1.414   4.867   8.042 -0.6787  1.3925  1.7059
  135OSM   C16F14716   1.572   4.960   8.173  0.2971 -0.2713 -0.4302
  135OSM   H16F14717   1.495   5.021   8.225  0.4168 -1.4962  1.2328
  135OSM   H16G14718   1.666   5.018   8.163 -0.4766  0.9421 -0.7873
  135OSM   C17F14719   1.604   4.838   8.258 -0.1692 -0.4315  0.1578
  135OSM   H17F14720   1.674   4.775   8.199 -0.0323  1.2036 -1.4759
  135OSM   H17G14721   1.508   4.786   8.275 -1.3126  2.1267  1.8646
  135OSM   C18F14722   1.654   4.878   8.397  0.1628 -0.0932  0.1251
  135OSM   H18F14723   1.753   4.926   8.382 -0.5563  2.2253  2.3960
  135OSM   H18G14724   1.671   4.789   8.463 -2.1914 -1.3832 -0.9462
  135OSM   H18H14725   1.584   4.945   8.451 -2.2624 -1.7243 -0.8805
  136OSM      N14726   5.671   6.102   5.861 -0.3209  0.1618 -0.7889
  136OSM    C1514727   5.792   6.172   5.802  0.1196  0.1571  0.4538
  136OSM   H15A14728   5.761   6.225   5.713  0.3736 -0.1796  0.1637
  136OSM   H15B14729   5.874   6.105   5.786  2.2258  2.7099  0.2462
  136OSM   H15C14730   5.829   6.250   5.867 -1.2638 -0.8848  2.5634
  136OSM    C1414731   5.570   6.201   5.876  0.2768 -0.1099  0.8857
  136OSM   H14A14732   5.473   6.157   5.893 -0.4554  0.3462 -1.8824
  136OSM   H14B14733   5.563   6.254   5.782 -1.5065 -1.6014  0.1539
  136OSM   H14C14734   5.601   6.265   5.957  1.0519  0.9465 -0.2224
  136OSM    C1314735   5.635   5.990   5.770  0.2088  0.6071 -0.5149
  136OSM   H13A14736   5.542   5.943   5.800  0.9049 -0.5178 -0.0662
  136OSM   H13B14737   5.714   5.919   5.750 -0.5944 -0.2409 -0.6979
  136OSM   H13C14738   5.619   6.023   5.669  1.1564 -0.2680 -0.9665
  136OSM    C1214739   5.723   6.059   5.998  0.8472 -0.1359  0.5501
  136OSM   H12A14740   5.818   6.010   5.983  0.9177  0.2714 -0.3578
  136OSM   H12B14741   5.665   5.987   6.055  1.4074  0.2069  1.5714
  136OSM    C1114742   5.745   6.168   6.103  0.3932  0.4158 -0.9559
  136OSM   H11A14743   5.773   6.116   6.197 -2.5189  2.1945  0.9807
  136OSM   H11B14744   5.649   6.223   6.114  1.3538  1.6355  1.7925
  136OSM      P14745   5.851   6.406   6.118  0.1737  0.7991 -0.1459
  136OSM    O1314746   5.946   6.488   6.042  0.0876  0.0445  0.1627
  136OSM    O1414747   5.709   6.443   6.136 -0.5405  0.8483 -0.1826
  136OSM    O1114748   5.916   6.370   6.258  0.5166 -0.4765 -0.2586
  136OSM    O1214749   5.849   6.258   6.053  0.2810 -0.3501 -0.7942
  136OSM    C1S14750   6.029   6.282   6.281  0.1970  0.1365 -0.4677
  136OSM    H1S14751   6.116   6.320   6.224  0.8220 -2.1608 -1.1107
  136OSM    H1T14752   5.999   6.179   6.252  0.6447  0.2509 -1.3413
  136OSM     NF14753   6.175   6.169   6.426 -0.3308 -0.6434  0.2770
  136OSM    HNF14754   6.138   6.078   6.441  1.3544 -1.3657  0.2168
  136OSM    C2S14755   6.069   6.264   6.431 -0.2817  0.4525 -0.8618
  136OSM    H2S14756   6.096   6.362   6.474  1.3777 -0.7903  1.0384
  136OSM    C3S14757   5.940   6.218   6.513 -1.0332 -0.2532  0.0488
  136OSM    H3S14758   5.914   6.119   6.470  1.2061 -0.9215  0.1624
  136OSM     O314759   5.824   6.300   6.497  0.5156  0.3837 -0.2560
  136OSM    HO314760   5.823   6.322   6.404 -1.1110  1.8036  0.0720
  136OSM    C4S14761   5.981   6.215   6.658 -0.2704  0.2713  0.0133
  136OSM    H4S14762   6.010   6.118   6.699 -1.5802 -0.5539 -0.9491
  136OSM    C5S14763   6.005   6.323   6.735 -0.4079  0.3241  0.2945
  136OSM    H5S14764   5.982   6.424   6.699  0.1485  0.5866  0.6619
  136OSM    C6S14765   6.055   6.331   6.875 -0.0667  0.3144 -0.2260
  136OSM    H6S14766   6.156   6.377   6.878  1.3157 -2.4512 -2.1428
  136OSM    H6T14767   6.068   6.238   6.934  1.9354  2.2221  2.4796
  136OSM    C7S14768   5.965   6.431   6.955  0.1448  0.3077 -0.2284
  136OSM    H7S14769   5.860   6.397   6.943  0.6048 -0.9025 -0.8927
  136OSM    H7T14770   5.974   6.535   6.916 -0.0117  0.4776  0.1849
  136OSM    C8S14771   6.000   6.438   7.105 -0.2852 -0.3706  0.5837
  136OSM    H8S14772   6.098   6.488   7.111  0.9470 -2.5847 -0.3062
  136OSM    H8T14773   6.015   6.336   7.146 -2.3851 -0.3631  1.4116
  136OSM    C9S14774   5.881   6.513   7.180  0.0505  0.2514  0.5083
  136OSM    H9S14775   5.787   6.454   7.175 -0.4013  0.9178  1.0282
  136OSM    H9T14776   5.860   6.608   7.127  2.3571  0.2379 -0.4448
  136OSM   C10S14777   5.916   6.558   7.325 -0.0515  0.7491 -0.1537
  136OSM   H10S14778   6.000   6.631   7.318 -0.0085  0.6955 -0.2063
  136OSM   H10T14779   5.957   6.477   7.389  1.5457 -0.1051 -2.1828
  136OSM   C11S14780   5.809   6.652   7.395  0.1267  0.1494 -0.0698
  136OSM   H11S14781   5.802   6.739   7.328 -0.3249 -0.9536 -1.4841
  136OSM   H11T14782   5.846   6.694   7.491 -2.5625  1.2556  0.5289
  136OSM   C12S14783   5.667   6.591   7.426  0.5749 -0.1512 -0.5185
  136OSM   H12S14784   5.640   6.519   7.345  1.2616 -0.9078 -0.0791
  136OSM   H12T14785   5.596   6.675   7.411 -0.7084 -0.9135  1.1673
  136OSM   C13S14786   5.659   6.528   7.558  0.6411  0.7167 -0.0436
  136OSM   H13S14787   5.553   6.511   7.588  0.9232  0.8967  1.0933
  136OSM   H13T14788   5.708   6.586   7.638  1.1850  0.3525 -0.1151
  136OSM   C14S14789   5.726   6.389   7.549 -0.1500 -0.7685 -0.8034
  136OSM   H14S14790   5.837   6.398   7.548 -0.2911  1.5011  0.9524
  136OSM   H14T14791   5.692   6.339   7.456 -1.4330 -1.8216  0.1979
  136OSM   C15S14792   5.680   6.293   7.664 -0.5962  0.5625 -0.0660
  136OSM   H15S14793   5.729   6.194   7.651 -1.2118  0.2776 -0.2010
  136OSM   H15T14794   5.570   6.278   7.658 -0.5598 -0.3475  1.2473
  136OSM   C16S14795   5.702   6.339   7.812 -0.2684 -0.2905  0.3168
  136OSM   H16S14796   5.647   6.434   7.829  0.6753 -0.0781  2.2874
  136OSM   H16T14797   5.810   6.352   7.831 -0.5070  1.3082  0.6340
  136OSM   C17S14798   5.640   6.228   7.903  0.2770  0.2293  0.0265
  136OSM   H17S14799   5.675   6.126   7.874  1.4782  1.0227 -1.3716
  136OSM   H17T14800   5.530   6.228   7.891  0.2265 -0.9005  0.4188
  136OSM   C18S14801   5.668   6.247   8.054  0.2022 -0.2720  0.4071
  136OSM   H18S14802   5.656   6.152   8.109 -1.1027 -1.2864 -1.5443
  136OSM   H18T14803   5.618   6.323   8.117  1.1066  0.9509 -0.3300
  136OSM   H18U14804   5.775   6.271   8.066 -0.0289  0.6441  0.6507
  136OSM    C1F14805   6.295   6.185   6.370  0.1300  0.1330  1.0156
  136OSM     OF14806   6.330   6.291   6.320 -0.6316  0.0172 -1.1604
  136OSM    C2F14807   6.382   6.069   6.352  0.0201  0.7990 -0.0658
  136OSM    H2F14808   6.438   6.078   6.257 -1.3454  0.6923 -0.8867
  136OSM    H2G14809   6.321   5.976   6.356 -0.3628  0.9566 -1.7848
  136OSM    C3F14810   6.488   6.083   6.466  0.2240  0.5330  0.0525
  136OSM    H3F14811   6.538   6.182   6.472  0.8080  0.1443  2.1751
  136OSM    H3G14812   6.572   6.014   6.440 -0.8028 -0.6045 -0.2666
  136OSM    C4F14813   6.442   6.061   6.615  0.9152  0.1803 -0.1974
  136OSM    H4F14814   6.384   6.149   6.651  0.4072 -0.6445  1.0282
  136OSM    H4G14815   6.539   6.085   6.663  1.3779  1.0852 -1.5583
  136OSM    C5F14816   6.403   5.919   6.637 -0.1022  0.1560 -0.4751
  136OSM    H5F14817   6.493   5.865   6.600  0.4791 -0.3618  1.6438
  136OSM    H5G14818   6.319   5.888   6.571 -0.3630  1.5927 -0.8484
  136OSM    C6F14819   6.380   5.884   6.784  0.3332  0.4218  0.4070
  136OSM    H6F14820   6.484   5.879   6.822  1.0696 -2.0103 -1.7631
  136OSM    H6G14821   6.342   5.780   6.784  0.2732  0.4365 -1.1571
  136OSM    C7F14822   6.282   5.976   6.856  0.5557 -0.1613 -0.5138
  136OSM    H7F14823   6.192   5.990   6.792  1.0186 -1.4614 -1.4860
  136OSM    H7G14824   6.326   6.077   6.869  0.1223 -0.2802  2.1755
  136OSM    C8F14825   6.252   5.928   7.003 -0.9501 -0.2808 -0.2206
  136OSM    H8F14826   6.241   5.818   7.005  1.5979 -0.5698  0.9003
  136OSM    H8G14827   6.157   5.979   7.029 -1.6473 -1.6034 -0.1381
  136OSM    C9F14828   6.357   5.979   7.100  0.2847 -0.0769 -0.0962
  136OSM    H9F14829   6.378   6.087   7.088 -0.3349 -0.1453 -2.0290
  136OSM   C10F14830   6.419   5.904   7.194 -0.1623 -1.1007  0.6591
  136OSM   H10F14831   6.478   5.953   7.272  0.6411 -0.3413 -0.4115
  136OSM   C11F14832   6.379   5.763   7.220  0.6162  0.2293  0.7936
  136OSM   H11F14833   6.442   5.694   7.160 -0.4028 -1.1422  1.2707
  136OSM   H11G14834   6.270   5.745   7.203  0.3446  0.0251  2.6311
  136OSM   C12F14835   6.403   5.718   7.368  0.1751 -0.4104 -0.0114
  136OSM   H12F14836   6.510   5.728   7.398 -0.7514  0.1232  3.3405
  136OSM   H12G14837   6.375   5.611   7.375 -2.0889 -0.0001 -2.2004
  136OSM   C13F14838   6.309   5.795   7.467 -0.0448 -0.1883  0.0981
  136OSM   H13F14839   6.202   5.774   7.448  0.4347 -1.3350 -1.5222
  136OSM   H13G14840   6.321   5.905   7.461  0.1200 -0.1767  0.6400
  136OSM   C14F14841   6.339   5.773   7.616  0.2097  0.5357 -0.1312
  136OSM   H14F14842   6.301   5.860   7.674  0.2319  0.6869 -0.3433
  136OSM   H14G14843   6.447   5.778   7.643 -0.4164  0.6808  2.4598
  136OSM   C15F14844   6.279   5.649   7.688 -0.3277 -0.2790  0.5147
  136OSM   H15F14845   6.283   5.561   7.619  2.7808  0.0860  0.1822
  136OSM   H15G14846   6.170   5.669   7.695 -0.1517  0.3690  1.5283
  136OSM   C16F14847   6.335   5.627   7.830  0.6034 -0.2205 -0.1200
  136OSM   H16F14848   6.426   5.689   7.847 -0.2525  0.6933  1.3382
  136OSM   H16G14849   6.363   5.520   7.841  0.2617 -0.0880  2.2964
  136OSM   C17F14850   6.242   5.670   7.943 -0.0775  0.1805  0.3298
  136OSM   H17F14851   6.143   5.620   7.939  0.4078 -0.6751 -1.3848
  136OSM   H17G14852   6.220   5.777   7.927 -1.1664 -0.0683  0.0869
  136OSM   C18F14853   6.304   5.651   8.085  0.4593 -0.4504 -0.0158
  136OSM   H18F14854   6.379   5.569   8.084  1.2274  0.1493  3.3579
  136OSM   H18G14855   6.218   5.621   8.149  0.3458  2.2014  1.1470
  136OSM   H18H14856   6.362   5.739   8.121  1.9900 -1.4823  0.1143
  137OSM      N14857   3.132   3.922   6.279  0.0802 -0.0074  0.4037
  137OSM    C1514858   3.062   4.051   6.245  0.4388  0.4237  0.4875
  137OSM   H15A14859   3.036   4.054   6.140  4.5118 -0.1099 -0.5927
  137OSM   H15B14860   3.120   4.140   6.265  1.6937 -0.3670  0.4061
  137OSM   H15C14861   2.970   4.068   6.301 -1.2832  1.1909 -2.4652
  137OSM    C1414862   3.262   3.921   6.220 -0.1179 -0.6499  0.1761
  137OSM   H14A14863   3.315   4.013   6.242 -1.4447 -0.0263  0.8127
  137OSM   H14B14864   3.256   3.916   6.112 -1.4999 -1.2176  0.2750
  137OSM   H14C14865   3.321   3.840   6.259 -0.9854 -0.8060  1.1694
  137OSM    C1314866   3.135   3.911   6.421  0.1340 -0.6161 -0.4594
  137OSM   H13A14867   3.030   3.920   6.447 -0.2869 -1.6164 -1.7801
  137OSM   H13B14868   3.203   3.975   6.476  0.3625  0.5731 -2.0774
  137OSM   H13C14869   3.159   3.809   6.448  3.3033  0.4951  1.1927
  137OSM    C1214870   3.050   3.814   6.210 -0.1335 -0.5754 -0.3466
  137OSM   H12A14871   3.106   3.723   6.219  2.1739  0.8347 -0.0454
  137OSM   H12B14872   3.033   3.834   6.105 -1.9075 -2.7918 -0.5053
  137OSM    C1114873   2.907   3.784   6.257  0.2276 -0.2628  0.5159
  137OSM   H11A14874   2.851   3.718   6.187  0.6127  1.6386 -1.6345
  137OSM   H11B14875   2.863   3.885   6.241  0.0499 -0.6809 -1.7858
  137OSM      P14876   2.949   3.575   6.411  0.1112 -0.0730 -0.2309
  137OSM    O1314877   2.871   3.482   6.332 -0.2412 -0.0645  0.2508
  137OSM    O1414878   3.094   3.562   6.388 -0.1878 -0.0208 -0.4202
  137OSM    O1114879   2.924   3.554   6.565 -0.2977  0.3561  0.5397
  137OSM    O1214880   2.902   3.733   6.389 -0.2820  0.5093 -0.0095
  137OSM    C1S14881   2.990   3.634   6.659  0.8895 -0.3936  0.0930
  137OSM    H1S14882   2.972   3.740   6.630  0.2403 -0.1249  1.4366
  137OSM    H1T14883   3.099   3.612   6.664  1.0109  0.2704  0.3440
  137OSM     NF14884   3.042   3.681   6.887  0.3587 -0.0843  0.5163
  137OSM    HNF14885   3.105   3.620   6.934 -0.8700 -0.3417  1.9020
  137OSM    C2S14886   2.944   3.614   6.803  0.8458 -0.0204  0.7154
  137OSM    H2S14887   2.850   3.674   6.802  0.3160 -0.8542 -1.0897
  137OSM    C3S14888   2.923   3.468   6.838  0.0687 -0.1975  0.4869
  137OSM    H3S14889   3.022   3.419   6.850 -0.3915 -0.8437  1.6691
  137OSM     O314890   2.854   3.378   6.744  0.3893  0.0092  0.4639
  137OSM    HO314891   2.861   3.426   6.661  0.0617 -0.7920 -0.0350
  137OSM    C4S14892   2.845   3.468   6.963 -0.5656  0.2606 -0.9889
  137OSM    H4S14893   2.753   3.527   6.953 -1.3636 -0.9303 -0.7837
  137OSM    C5S14894   2.872   3.416   7.090  0.0583  0.5201  0.1988
  137OSM    H5S14895   2.972   3.380   7.119 -0.2908  1.1832  2.3030
  137OSM    C6S14896   2.779   3.428   7.206  0.1232  0.1832 -0.3782
  137OSM    H6S14897   2.719   3.335   7.210  0.9891 -0.4196 -1.3157
  137OSM    H6T14898   2.709   3.514   7.196 -0.3150 -0.0619  0.5158
  137OSM    C7S14899   2.849   3.457   7.336 -0.1622  0.3948  0.6465
  137OSM    H7S14900   2.777   3.486   7.417 -2.3734  1.7527 -1.7290
  137OSM    H7T14901   2.919   3.543   7.327  0.4902 -0.3684 -1.9144
  137OSM    C8S14902   2.950   3.346   7.385  0.4993  0.7981 -0.0771
  137OSM    H8S14903   3.014   3.318   7.299 -1.5976 -1.9385 -0.7902
  137OSM    H8T14904   2.878   3.265   7.410 -1.2338  2.5925  0.8742
  137OSM    C9S14905   3.027   3.399   7.509  0.5740 -0.0640  0.2673
  137OSM    H9S14906   2.949   3.461   7.558 -0.2089  0.3966 -1.5107
  137OSM    H9T14907   3.115   3.458   7.475  0.3271 -1.4424 -2.9635
  137OSM   C10S14908   3.057   3.287   7.610 -0.3219  0.4835  0.4406
  137OSM   H10S14909   3.114   3.217   7.544 -2.0415  0.1066 -0.6705
  137OSM   H10T14910   2.970   3.231   7.650 -0.1540  0.9156  1.4184
  137OSM   C11S14911   3.169   3.323   7.715 -0.1686 -0.3987  0.2218
  137OSM   H11S14912   3.117   3.384   7.792 -1.3131 -1.2078  0.0944
  137OSM   H11T14913   3.247   3.390   7.673 -0.7350  1.2095  1.6849
  137OSM   C12S14914   3.238   3.200   7.775 -0.6781  0.1839 -1.1528
  137OSM   H12S14915   3.301   3.145   7.701 -0.1643 -1.9198  0.7973
  137OSM   H12T14916   3.162   3.123   7.801  0.7178 -0.8760 -0.1029
  137OSM   C13S14917   3.337   3.226   7.888  0.5754 -0.4017 -0.1591
  137OSM   H13S14918   3.407   3.309   7.865  2.7782 -2.9019 -2.9711
  137OSM   H13T14919   3.392   3.131   7.907  1.9605  0.8954  2.6747
  137OSM   C14S14920   3.273   3.278   8.025  0.4519 -0.0696  0.5280
  137OSM   H14S14921   3.186   3.216   8.057  1.0247 -0.5483  1.1872
  137OSM   H14T14922   3.230   3.377   8.001  2.7238  0.5508 -1.1962
  137OSM   C15S14923   3.386   3.282   8.133 -0.8535 -0.3708  0.4208
  137OSM   H15S14924   3.465   3.352   8.101 -0.9000 -0.5667 -0.1244
  137OSM   H15T14925   3.423   3.179   8.153  1.2485  0.5164  1.1575
  137OSM   C16S14926   3.322   3.331   8.265 -1.0445 -0.0720 -0.5312
  137OSM   H16S14927   3.235   3.266   8.290 -2.6043  2.1026 -0.1785
  137OSM   H16T14928   3.270   3.428   8.253  0.8663  0.9193 -0.9648
  137OSM   C17S14929   3.418   3.333   8.385  0.5519  0.2765  0.4229
  137OSM   H17S14930   3.500   3.263   8.360  0.6645 -0.3985  2.5383
  137OSM   H17T14931   3.374   3.299   8.482 -2.7658  1.6756 -0.5132
  137OSM   C18S14932   3.491   3.467   8.414  0.0279  0.4531  0.4187
  137OSM   H18S14933   3.568   3.445   8.491 -0.4286 -0.4684  0.6188
  137OSM   H18T14934   3.414   3.531   8.462 -1.0091 -1.8031  1.8659
  137OSM   H18U14935   3.538   3.512   8.324  1.3664  0.0875  0.9298
  137OSM    C1F14936   3.059   3.817   6.883 -0.2669  1.2853 -0.4373
  137OSM     OF14937   2.989   3.890   6.809  0.3561  0.3569 -0.6506
  137OSM    C2F14938   3.184   3.865   6.959  0.2051  0.3017 -0.3106
  137OSM    H2F14939   3.272   3.834   6.899 -0.0216  1.3295 -1.1865
  137OSM    H2G14940   3.191   3.818   7.060 -0.5797 -0.6976 -0.7170
  137OSM    C3F14941   3.191   4.022   6.982 -0.7295 -0.8693  1.1143
  137OSM    H3F14942   3.181   4.080   6.888 -0.3570 -1.4269  0.7275
  137OSM    H3G14943   3.293   4.041   7.021 -0.4165  1.2782 -0.6416
  137OSM    C4F14944   3.091   4.059   7.091  0.2249 -1.4016 -0.0353
  137OSM    H4F14945   3.105   3.993   7.180  0.4949 -1.4424 -0.1104
  137OSM    H4G14946   2.987   4.046   7.052 -0.8863 -1.0700  2.6724
  137OSM    C5F14947   3.109   4.209   7.135 -0.1927 -0.3702  0.2532
  137OSM    H5F14948   3.101   4.267   7.040 -0.1714 -0.0450  0.4471
  137OSM    H5G14949   3.210   4.228   7.176 -0.8010  2.0532  0.7424
  137OSM    C6F14950   3.007   4.255   7.246 -0.3719  0.3560  0.2825
  137OSM    H6F14951   2.906   4.240   7.202  0.0688 -0.8372 -0.3386
  137OSM    H6G14952   3.020   4.364   7.263  1.4566  0.0986  0.6488
  137OSM    C7F14953   3.027   4.187   7.382  0.1375  0.0420  0.3871
  137OSM    H7F14954   3.133   4.208   7.408  1.0954 -1.7895 -1.8303
  137OSM    H7G14955   3.026   4.076   7.383 -0.8839 -0.0212 -2.8089
  137OSM    C8F14956   2.935   4.245   7.491 -0.7359 -0.4927  0.1728
  137OSM    H8F14957   2.827   4.219   7.482 -1.1659  1.2094  0.1935
  137OSM    H8G14958   2.935   4.354   7.470  0.3436 -0.4104  0.5721
  137OSM    C9F14959   2.979   4.236   7.639  0.5286  0.1410 -0.3585
  137OSM    H9F14960   2.943   4.143   7.687 -0.4979  1.2829  1.1321
  137OSM   C10F14961   3.031   4.334   7.710 -0.7347  0.6927 -0.2741
  137OSM   H10F14962   3.067   4.302   7.809 -0.7729 -0.2293 -0.5492
  137OSM   C11F14963   3.071   4.471   7.668 -0.3669 -0.0562 -0.2367
  137OSM   H11F14964   3.002   4.510   7.590  1.0248  0.0143 -1.4537
  137OSM   H11G14965   3.175   4.460   7.630 -0.2410 -0.6921  0.2926
  137OSM   C12F14966   3.078   4.563   7.790 -0.3369 -0.0080 -0.7897
  137OSM   H12F14967   2.974   4.576   7.827  0.0940 -1.4005  0.9980
  137OSM   H12G14968   3.111   4.662   7.753  1.1124 -0.1713  0.0442
  137OSM   C13F14969   3.177   4.522   7.903 -0.1723 -0.1483  0.3023
  137OSM   H13F14970   3.269   4.469   7.870  1.0661  1.6320  0.8037
  137OSM   H13G14971   3.123   4.451   7.969 -0.3291 -0.0970  0.2280
  137OSM   C14F14972   3.214   4.649   7.985 -0.5352  0.6817 -0.5704
  137OSM   H14F14973   3.118   4.700   8.009 -1.0951 -0.7062  0.1764
  137OSM   H14G14974   3.262   4.719   7.914  0.7869 -1.2836 -1.6510
  137OSM   C15F14975   3.303   4.623   8.104 -0.7662  0.0563  0.0685
  137OSM   H15F14976   3.392   4.590   8.047 -0.4192  0.8618  0.1337
  137OSM   H15G14977   3.272   4.537   8.168 -0.9355 -1.2120 -1.6837
  137OSM   C16F14978   3.345   4.745   8.182  0.1093 -0.0168 -0.1924
  137OSM   H16F14979   3.254   4.790   8.227  0.2637 -1.4133  1.5589
  137OSM   H16G14980   3.388   4.823   8.116 -1.2934  0.7048 -0.2693
  137OSM   C17F14981   3.439   4.722   8.305 -0.2715 -0.0215  0.6108
  137OSM   H17F14982   3.531   4.674   8.266 -1.0514  0.2973 -1.7540
  137OSM   H17G14983   3.389   4.649   8.372  0.3643 -1.2137 -0.2036
  137OSM   C18F14984   3.471   4.850   8.378  0.5240 -0.0720 -0.0871
  137OSM   H18F14985   3.395   4.855   8.458  0.3223 -3.5044  0.0100
  137OSM   H18G14986   3.473   4.938   8.310  1.1938  0.0314  0.0590
  137OSM   H18H14987   3.573   4.854   8.421  0.5157  1.1567 -0.1671
  138OSM      N14988   3.411   5.161   6.202  0.0655 -0.2801 -0.8063
  138OSM    C1514989   3.401   5.041   6.113  0.0623 -0.2795  0.1294
  138OSM   H15A14990   3.413   5.071   6.010 -0.2922  2.0272  0.7473
  138OSM   H15B14991   3.302   4.998   6.121 -1.1253  2.6460  1.9377
  138OSM   H15C14992   3.469   4.968   6.154 -0.6752 -1.0044  0.0757
  138OSM    C1414993   3.379   5.108   6.338 -0.3164 -0.1006 -0.0295
  138OSM   H14A14994   3.291   5.046   6.348 -0.6512  0.5765  1.2962
  138OSM   H14B14995   3.358   5.182   6.413  0.8609  0.0117  0.1884
  138OSM   H14C14996   3.462   5.055   6.383 -0.8730 -2.6672 -1.8857
  138OSM    C1314997   3.549   5.219   6.202 -0.0544 -0.6819  0.0735
  138OSM   H13A14998   3.554   5.293   6.124  1.7060 -0.9376 -0.0658
  138OSM   H13B14999   3.625   5.144   6.188 -0.0136 -0.5611 -0.3369
  138OSM   H13C15000   3.572   5.269   6.296 -0.3334 -0.8910  0.2519
  138OSM    C1215001   3.312   5.266   6.163 -0.2891 -0.3434 -1.4872
  138OSM   H12A15002   3.220   5.218   6.134 -0.4282 -0.1997 -1.2896
  138OSM   H12B15003   3.354   5.317   6.078  5.2770 -1.9176  0.1190
  138OSM    C1115004   3.283   5.378   6.261  0.3762  0.3259 -0.2280
  138OSM   H11A15005   3.371   5.430   6.303 -0.1281  1.0802 -0.0888
  138OSM   H11B15006   3.223   5.350   6.350  2.6680  1.4515  1.7101
  138OSM      P15007   3.214   5.609   6.171 -0.4651 -0.4679 -0.0716
  138OSM    O1315008   3.348   5.641   6.118 -0.5649  0.1244  0.2636
  138OSM    O1415009   3.104   5.676   6.099  0.3180  0.0654  0.3977
  138OSM    O1115010   3.208   5.654   6.319 -0.2659 -0.2964 -0.0201
  138OSM    O1215011   3.196   5.457   6.183  0.2206  0.5092 -0.2796
  138OSM    C1S15012   3.116   5.600   6.412 -0.1825  0.4300  1.0312
  138OSM    H1S15013   3.160   5.508   6.457 -0.1292  0.9629  2.0777
  138OSM    H1T15014   3.018   5.586   6.361 -1.5325  1.7689  3.1964
  138OSM     NF15015   3.001   5.643   6.621 -1.0261  0.5132  0.2168
  138OSM    HNF15016   2.904   5.654   6.603 -0.6229  5.8956  0.6356
  138OSM    C2S15017   3.093   5.703   6.527  0.3364  0.2208 -0.6114
  138OSM    H2S15018   3.195   5.710   6.572  0.5023 -1.1015 -0.7743
  138OSM    C3S15019   3.046   5.848   6.476 -0.6427  0.9961  0.0154
  138OSM    H3S15020   2.945   5.843   6.430 -0.3737  2.1500 -0.7211
  138OSM     O315021   3.122   5.909   6.368 -0.6131 -0.4000  0.2066
  138OSM    HO315022   3.191   5.845   6.349 -0.5581 -0.1599 -0.4188
  138OSM    C4S15023   3.038   5.941   6.590  0.0111  0.2424 -0.5098
  138OSM    H4S15024   2.937   5.976   6.615  0.1446  1.1235 -1.2093
  138OSM    C5S15025   3.140   6.007   6.643  1.0271 -0.3248 -0.1371
  138OSM    H5S15026   3.242   6.000   6.601  0.4177  0.2791 -1.7746
  138OSM    C6S15027   3.139   6.100   6.759  0.0743 -0.0124 -0.0067
  138OSM    H6S15028   3.049   6.164   6.751  1.5101  2.0260 -0.2790
  138OSM    H6T15029   3.229   6.165   6.754 -0.8617  1.2831 -0.1091
  138OSM    C7S15030   3.158   6.024   6.895 -0.4288  0.3520 -0.7966
  138OSM    H7S15031   3.252   5.966   6.886  0.3518  1.7983 -2.0188
  138OSM    H7T15032   3.075   5.951   6.912 -1.0917  0.9778 -1.3307
  138OSM    C8S15033   3.170   6.126   7.010 -0.4245 -0.4141  0.3262
  138OSM    H8S15034   3.078   6.187   7.020 -1.3722 -1.5096 -1.3937
  138OSM    H8T15035   3.256   6.190   6.979 -0.1303 -0.8241  0.2925
  138OSM    C9S15036   3.212   6.054   7.134  0.2992  0.2398  0.9160
  138OSM    H9S15037   3.311   6.013   7.108  0.1830 -0.0606  0.9483
  138OSM    H9T15038   3.142   5.974   7.166  1.5791 -0.6618  1.4878
  138OSM   C10S15039   3.247   6.151   7.249 -0.5902  0.8668  0.1677
  138OSM   H10S15040   3.173   6.226   7.284  0.7526  1.0749  2.7277
  138OSM   H10T15041   3.332   6.210   7.208 -0.0524  0.7685  1.1357
  138OSM   C11S15042   3.293   6.074   7.375  0.1618 -0.5736  0.5137
  138OSM   H11S15043   3.378   6.014   7.336 -0.9327 -2.2398  0.6134
  138OSM   H11T15044   3.212   6.001   7.399 -1.3264  0.3863 -1.4723
  138OSM   C12S15045   3.326   6.170   7.489 -0.3270 -1.0042 -0.4311
  138OSM   H12S15046   3.249   6.246   7.515  0.9414 -0.5437  2.0913
  138OSM   H12T15047   3.415   6.221   7.446 -1.9425  2.3549 -0.0017
  138OSM   C13S15048   3.384   6.102   7.619  0.0281 -0.6219  0.1596
  138OSM   H13S15049   3.466   6.036   7.582 -0.8981 -0.2032 -2.7463
  138OSM   H13T15050   3.298   6.050   7.667 -0.9317  1.9992  1.3443
  138OSM   C14S15051   3.418   6.210   7.717 -0.4635 -0.4842 -1.1365
  138OSM   H14S15052   3.323   6.258   7.750 -1.3773 -1.0002 -2.9419
  138OSM   H14T15053   3.476   6.292   7.668 -0.4834 -0.3148 -0.8781
  138OSM   C15S15054   3.504   6.160   7.836  0.5699 -0.0269  0.1019
  138OSM   H15S15055   3.603   6.137   7.789  0.1949 -2.8534  0.6096
  138OSM   H15T15056   3.465   6.063   7.875 -2.2884  0.4995 -1.3182
  138OSM   C16S15057   3.513   6.266   7.944 -0.6228 -0.3643 -0.6459
  138OSM   H16S15058   3.576   6.347   7.902 -1.8456  2.1581  2.2597
  138OSM   H16T15059   3.572   6.215   8.024 -2.3563 -1.2574  0.0999
  138OSM   C17S15060   3.389   6.338   7.997 -0.3403 -1.0374 -0.5466
  138OSM   H17S15061   3.303   6.270   8.010 -0.4031 -0.5903  1.5234
  138OSM   H17T15062   3.360   6.410   7.918 -1.3213 -1.9209 -0.9965
  138OSM   C18S15063   3.423   6.409   8.129  0.1414 -0.5861 -0.5164
  138OSM   H18S15064   3.339   6.400   8.202 -2.0046 -0.5890 -2.9031
  138OSM   H18T15065   3.457   6.513   8.113  0.6489 -0.3478  1.9499
  138OSM   H18U15066   3.505   6.357   8.183  0.4470  0.2033 -0.2219
  138OSM    C1F15067   3.045   5.553   6.707  0.2930  0.1969 -0.5834
  138OSM     OF15068   3.149   5.489   6.701 -0.4470 -0.1145 -0.3315
  138OSM    C2F15069   2.944   5.528   6.811 -0.2037 -0.3981 -0.0245
  138OSM    H2F15070   2.904   5.425   6.806  1.8240 -1.1172 -3.3711
  138OSM    H2G15071   2.867   5.607   6.800 -0.6226 -1.0077 -1.6037
  138OSM    C3F15072   2.996   5.532   6.960 -0.3140 -0.1677  0.0733
  138OSM    H3F15073   3.078   5.459   6.974  0.9861  0.4786 -3.4945
  138OSM    H3G15074   2.913   5.499   7.025 -1.5294 -0.0897 -1.4224
  138OSM    C4F15075   3.042   5.665   7.012 -0.6026 -0.7665 -0.2577
  138OSM    H4F15076   2.955   5.734   7.015 -0.9999 -1.3234  1.4770
  138OSM    H4G15077   3.101   5.714   6.931  1.0574 -0.6307  1.0176
  138OSM    C5F15078   3.124   5.666   7.144 -0.6193 -0.4517  0.5878
  138OSM    H5F15079   3.175   5.762   7.164 -1.0698  0.0042 -0.4150
  138OSM    H5G15080   3.206   5.592   7.129  0.2199  1.1546 -3.2089
  138OSM    C6F15081   3.043   5.629   7.269  0.3072 -0.2041  0.3544
  138OSM    H6F15082   3.001   5.526   7.261 -1.5389  0.4966  0.7353
  138OSM    H6G15083   2.956   5.697   7.257  0.4132  0.4426  2.8958
  138OSM    C7F15084   3.116   5.659   7.398 -0.5735 -0.0269 -0.4210
  138OSM    H7F15085   3.178   5.751   7.395  1.2385 -1.2228 -0.2567
  138OSM    H7G15086   3.191   5.577   7.405 -0.1744  0.2021 -1.8092
  138OSM    C8F15087   3.029   5.652   7.527  0.1375 -0.3269  0.7180
  138OSM    H8F15088   3.107   5.642   7.606  1.2612 -1.5699 -0.5302
  138OSM    H8G15089   2.991   5.548   7.524 -1.4166  0.2284  0.4564
  138OSM    C9F15090   2.924   5.762   7.548 -0.9376  0.4495  0.7563
  138OSM    H9F15091   2.834   5.758   7.486  0.3040  0.0579 -1.0400
  138OSM   C10F15092   2.948   5.868   7.633  0.8987  0.7781  0.9265
  138OSM   H10F15093   2.869   5.944   7.642 -0.6006 -0.6564  0.1321
  138OSM   C11F15094   3.075   5.895   7.722 -0.1897  0.5413 -0.1345
  138OSM   H11F15095   3.097   6.003   7.732  1.2577  0.3055 -0.5572
  138OSM   H11G15096   3.163   5.856   7.665 -0.1886  0.6336 -0.1965
  138OSM   C12F15097   3.057   5.829   7.863  0.3321  0.2680  0.2313
  138OSM   H12F15098   3.054   5.718   7.856 -0.3258  0.3071 -0.1179
  138OSM   H12G15099   2.953   5.852   7.893  0.8651  2.3624  0.5344
  138OSM   C13F15100   3.162   5.855   7.976  0.1168  0.4925  0.2678
  138OSM   H13F15101   3.115   5.814   8.068 -2.9573  3.3531  0.0688
  138OSM   H13G15102   3.173   5.963   8.000 -2.3251  0.7794  0.1964
  138OSM   C14F15103   3.290   5.780   7.942  0.8389  0.0638  0.4898
  138OSM   H14F15104   3.336   5.818   7.848 -1.5800 -1.4064 -1.3515
  138OSM   H14G15105   3.279   5.672   7.915  0.4960  0.3225 -0.4459
  138OSM   C15F15106   3.399   5.799   8.054  0.0634 -0.6876 -0.1023
  138OSM   H15F15107   3.354   5.773   8.152  0.2028  1.4698  0.5738
  138OSM   H15G15108   3.422   5.908   8.053  0.0892 -0.6585  1.9573
  138OSM   C16F15109   3.529   5.719   8.022 -0.4462 -0.0147  0.5715
  138OSM   H16F15110   3.611   5.737   8.095  1.0873 -2.7250 -0.4238
  138OSM   H16G15111   3.569   5.749   7.923 -0.3027  0.5123  0.7852
  138OSM   C17F15112   3.516   5.563   8.029 -0.3277  0.0680 -0.4139
  138OSM   H17F15113   3.426   5.513   7.989  0.8555 -1.5848 -1.0864
  138OSM   H17G15114   3.519   5.540   8.138 -1.1764 -0.0908 -0.4220
  138OSM   C18F15115   3.645   5.506   7.955  0.3254 -0.1604 -0.2388
  138OSM   H18F15116   3.740   5.542   8.000  0.0911  0.6471 -0.3714
  138OSM   H18G15117   3.653   5.530   7.847  1.5531  2.8934  0.4819
  138OSM   H18H15118   3.630   5.398   7.976  1.8778 -0.8160 -2.3913
  139OSM      N15119   2.187   5.906   6.330  0.0277 -0.7533 -0.3350
  139OSM    C1515120   2.165   5.815   6.447 -0.1898  0.0913  0.2172
  139OSM   H15A15121   2.240   5.818   6.525 -0.0373  1.4967  0.0375
  139OSM   H15B15122   2.140   5.715   6.415 -0.3781  0.1559  0.1613
  139OSM   H15C15123   2.077   5.851   6.498 -0.8202 -0.1003 -0.7393
  139OSM    C1415124   2.205   6.047   6.373 -0.2043 -0.0752  0.0658
  139OSM   H14A15125   2.293   6.049   6.435  0.0932 -0.5355 -0.3372
  139OSM   H14B15126   2.112   6.093   6.403 -1.2789  0.1817 -3.3551
  139OSM   H14C15127   2.230   6.107   6.286  1.5502 -2.2147 -0.9583
  139OSM    C1315128   2.308   5.855   6.258  0.1730  0.7518 -0.1805
  139OSM   H13A15129   2.309   5.770   6.191  1.9382  1.5767 -1.2343
  139OSM   H13B15130   2.387   5.831   6.328  0.8473  0.3920 -1.0417
  139OSM   H13C15131   2.345   5.936   6.197 -1.4018  0.5122 -1.4869
  139OSM    C1215132   2.059   5.900   6.249  0.6570 -0.3512 -0.2224
  139OSM   H12A15133   1.969   5.901   6.308 -0.4864 -1.5544 -1.9019
  139OSM   H12B15134   2.053   5.807   6.193  1.6181 -0.6649  0.1898
  139OSM    C1115135   2.036   6.003   6.134 -0.0073  0.6249 -0.2640
  139OSM   H11A15136   1.972   5.952   6.058  0.0879 -0.2065  0.2048
  139OSM   H11B15137   2.132   6.001   6.079  1.0207 -2.1839  1.4815
  139OSM      P15138   1.891   6.197   6.249 -0.7451  0.2462 -0.1094
  139OSM    O1315139   1.814   6.287   6.165 -0.1662 -0.0158  0.1089
  139OSM    O1415140   1.825   6.088   6.313  0.2285  0.1882 -1.1766
  139OSM    O1115141   1.972   6.272   6.364  0.8459  0.3094 -0.4730
  139OSM    O1215142   2.021   6.143   6.165  0.4724  0.2719  0.2230
  139OSM    C1S15143   2.054   6.390   6.346 -0.3917  0.0352 -0.2956
  139OSM    H1S15144   2.026   6.446   6.254  0.8430 -1.2712 -1.4890
  139OSM    H1T15145   2.162   6.372   6.329 -0.8726 -1.6921 -1.7506
  139OSM     NF15146   2.069   6.630   6.421 -0.2686  0.6985 -0.5017
  139OSM    HNF15147   2.160   6.663   6.446  0.6246  0.6368 -3.4389
  139OSM    C2S15148   2.032   6.497   6.466  0.2590  0.0627  0.1818
  139OSM    H2S15149   1.922   6.489   6.479  0.3826  0.3096  1.4961
  139OSM    C3S15150   2.099   6.446   6.596 -0.5574 -0.3195  0.0616
  139OSM    H3S15151   2.209   6.457   6.588 -0.3826 -0.3930  2.1491
  139OSM     O315152   2.078   6.309   6.622  0.3521  0.5019 -0.6943
  139OSM    HO315153   2.006   6.298   6.560  0.6351  0.7681 -1.0791
  139OSM    C4S15154   2.066   6.532   6.717  0.5420  0.0668 -0.4904
  139OSM    H4S15155   1.959   6.557   6.721  0.7583  1.5119 -2.6895
  139OSM    C5S15156   2.151   6.601   6.801  0.0637 -0.0250 -1.0487
  139OSM    H5S15157   2.260   6.596   6.787  0.2974  3.1748 -0.7554
  139OSM    C6S15158   2.104   6.685   6.923 -0.0604 -0.2461  0.2970
  139OSM    H6S15159   1.995   6.706   6.923 -0.3830 -1.8032 -0.5821
  139OSM    H6T15160   2.154   6.784   6.915 -0.2431  0.0490  2.6354
  139OSM    C7S15161   2.138   6.619   7.056  0.6227 -0.0489  0.0296
  139OSM    H7S15162   2.248   6.608   7.066  0.6332 -0.7279 -0.8179
  139OSM    H7T15163   2.099   6.515   7.057  0.3646  0.0552  1.3963
  139OSM    C8S15164   2.086   6.687   7.185  0.3203 -0.6720 -0.2656
  139OSM    H8S15165   1.977   6.710   7.183  0.0759 -0.9567  3.9500
  139OSM    H8T15166   2.136   6.786   7.188 -0.7955 -0.1073 -0.0802
  139OSM    C9S15167   2.110   6.598   7.310  0.5676 -0.0633 -0.4729
  139OSM    H9S15168   2.213   6.559   7.327 -0.5067 -1.3077  3.8800
  139OSM    H9T15169   2.044   6.511   7.295 -1.1199  0.9057  1.1283
  139OSM   C10S15170   2.074   6.676   7.440 -0.7651 -0.3024  0.5327
  139OSM   H10S15171   1.972   6.720   7.436 -0.9080 -0.6057  0.7700
  139OSM   H10T15172   2.144   6.755   7.473 -3.0434  1.1074  2.1358
  139OSM   C11S15173   2.068   6.586   7.566  0.0405  0.2531 -0.8341
  139OSM   H11S15174   2.156   6.522   7.589 -0.1339  0.8822  1.7114
  139OSM   H11T15175   1.979   6.522   7.550  0.2937 -0.1693 -0.5826
  139OSM   C12S15176   2.062   6.676   7.692  0.2708  0.1867 -0.0585
  139OSM   H12S15177   1.978   6.746   7.677  0.9203  1.6330  2.7777
  139OSM   H12T15178   2.155   6.733   7.714  0.3400  0.1321 -0.2041
  139OSM   C13S15179   2.026   6.593   7.814  0.0035 -0.7524  0.2002
  139OSM   H13S15180   2.096   6.510   7.836  0.3271 -0.8184 -1.0738
  139OSM   H13T15181   1.925   6.548   7.802  0.2180 -1.4710  0.9564
  139OSM   C14S15182   2.016   6.678   7.942  0.1266  0.7548  0.2303
  139OSM   H14S15183   1.928   6.744   7.923  0.3509  0.7051 -1.0564
  139OSM   H14T15184   2.115   6.721   7.969  0.9431  0.3486 -2.0278
  139OSM   C15S15185   1.978   6.591   8.065  0.0760 -0.8002 -0.6516
  139OSM   H15S15186   2.052   6.510   8.081 -1.4258 -2.0236  0.3429
  139OSM   H15T15187   1.880   6.540   8.052 -0.9087  1.0287 -0.5907
  139OSM   C16S15188   1.972   6.678   8.196  0.3110 -0.4374 -0.3931
  139OSM   H16S15189   2.068   6.734   8.197  0.0855 -0.0213  2.5621
  139OSM   H16T15190   1.974   6.602   8.277  3.2259  1.0225  0.9945
  139OSM   C17S15191   1.847   6.771   8.218 -0.7828  1.0040 -0.1623
  139OSM   H17S15192   1.862   6.864   8.159 -0.1767  0.8760 -0.2064
  139OSM   H17T15193   1.838   6.795   8.326  1.1747  1.9495 -0.1884
  139OSM   C18S15194   1.720   6.698   8.180  0.4382  0.0854 -0.0960
  139OSM   H18S15195   1.720   6.602   8.235 -1.2128 -0.6800 -1.3597
  139OSM   H18T15196   1.712   6.679   8.070 -1.5856  1.5440 -0.2366
  139OSM   H18U15197   1.633   6.757   8.215  1.8678  1.1764  1.6540
  139OSM    C1F15198   1.995   6.706   6.348 -0.2280  0.0399 -0.1898
  139OSM     OF15199   1.878   6.679   6.327  0.0331  0.2154  0.1136
  139OSM    C2F15200   2.065   6.824   6.280 -0.0758 -0.1407 -0.6046
  139OSM    H2F15201   2.014   6.837   6.183  0.9377 -0.3775 -1.1697
  139OSM    H2G15202   2.172   6.797   6.265  0.1113 -0.2831  0.8819
  139OSM    C3F15203   2.051   6.964   6.352 -0.7611 -0.3391 -0.3427
  139OSM    H3F15204   1.947   6.987   6.382 -0.8409  0.0156 -0.9056
  139OSM    H3G15205   2.076   7.047   6.283 -3.2622  0.3031 -0.4960
  139OSM    C4F15206   2.136   6.971   6.488 -0.1787 -0.2980 -0.0466
  139OSM    H4F15207   2.231   6.914   6.478  0.0925  0.6597 -3.7492
  139OSM    H4G15208   2.092   6.912   6.571  0.6014  0.8896  1.2237
  139OSM    C5F15209   2.184   7.105   6.546 -0.0744 -0.0778  0.2344
  139OSM    H5F15210   2.100   7.164   6.589  0.9896  0.8579  1.0607
  139OSM    H5G15211   2.228   7.184   6.481 -1.7402  1.4043  0.8752
  139OSM    C6F15212   2.290   7.089   6.660 -0.0187  0.1088  0.1251
  139OSM    H6F15213   2.359   7.009   6.625  0.1108  1.2296 -2.2604
  139OSM    H6G15214   2.240   7.063   6.757  2.4340  0.1050  1.4356
  139OSM    C7F15215   2.378   7.213   6.670 -0.6303  0.8034  0.3482
  139OSM    H7F15216   2.305   7.297   6.679 -0.4214  0.8421  1.8694
  139OSM    H7G15217   2.438   7.210   6.577  0.1380 -2.0429  0.8966
  139OSM    C8F15218   2.479   7.207   6.793  0.2725 -0.6128 -0.3833
  139OSM    H8F15219   2.544   7.122   6.764  1.4380  0.3066 -0.4910
  139OSM    H8G15220   2.415   7.198   6.883 -0.7567  0.4103 -0.9915
  139OSM    C9F15221   2.560   7.336   6.794  0.3647  0.9687  0.1965
  139OSM    H9F15222   2.569   7.384   6.695  2.4320 -0.5486 -0.3767
  139OSM   C10F15223   2.639   7.383   6.887  0.2399  0.2875 -0.3008
  139OSM   H10F15224   2.690   7.477   6.864  4.4137 -1.6182  0.6030
  139OSM   C11F15225   2.665   7.328   7.019  0.2295  0.6873 -0.8171
  139OSM   H11F15226   2.771   7.295   7.027  0.3758  1.1251 -0.9128
  139OSM   H11G15227   2.611   7.232   7.033 -0.1846  0.9055 -0.9131
  139OSM   C12F15228   2.623   7.404   7.139 -0.1173  0.1480  1.1201
  139OSM   H12F15229   2.520   7.438   7.113  0.4537  0.3621 -0.9028
  139OSM   H12G15230   2.686   7.495   7.150  1.0914 -0.4521 -0.8073
  139OSM   C13F15231   2.614   7.333   7.273  0.1838  0.2986 -0.0503
  139OSM   H13F15232   2.714   7.294   7.300  0.3088  1.1291  0.7325
  139OSM   H13G15233   2.539   7.251   7.282 -0.4632  0.8225 -0.6236
  139OSM   C14F15234   2.577   7.441   7.375  0.1215  0.0350 -0.3797
  139OSM   H14F15235   2.478   7.479   7.342 -0.0800 -0.0003  0.1697
  139OSM   H14G15236   2.656   7.518   7.361 -1.8745  1.7944 -2.2144
  139OSM   C15F15237   2.563   7.390   7.517  0.0704  0.1758 -0.5266
  139OSM   H15F15238   2.666   7.361   7.546  0.6855  1.2654 -1.5595
  139OSM   H15G15239   2.495   7.303   7.526  0.2551  0.0529 -0.3049
  139OSM   C16F15240   2.505   7.507   7.601  0.2532  1.2835  0.1923
  139OSM   H16F15241   2.413   7.549   7.555 -0.6575  0.5393  1.3270
  139OSM   H16G15242   2.579   7.591   7.600  0.1150  1.4064  0.3741
  139OSM   C17F15243   2.461   7.461   7.742 -0.2486 -0.4534 -0.0868
  139OSM   H17F15244   2.516   7.365   7.752 -0.9562 -0.8967 -0.3861
  139OSM   H17G15245   2.351   7.446   7.746 -0.6294  2.5491  1.2466
  139OSM   C18F15246   2.497   7.548   7.857 -0.6410  0.1763  0.3717
  139OSM   H18F15247   2.441   7.515   7.947 -2.4199 -0.2055 -0.8300
  139OSM   H18G15248   2.457   7.647   7.823 -0.9894 -0.2556 -0.4887
  139OSM   H18H15249   2.606   7.544   7.876 -1.0248 -0.5665  2.5092
  140OSM      N15250   3.192   2.094   6.381 -0.6287  0.3464  0.2790
  140OSM    C1515251   3.324   2.055   6.451  0.0975 -0.2642  0.0376
  140OSM   H15A15252   3.304   1.978   6.524 -0.3064 -1.1801 -1.0418
  140OSM   H15B15253   3.368   2.138   6.506 -0.0727  2.3745 -3.6299
  140OSM   H15C15254   3.395   2.003   6.389 -0.5235 -1.3063  0.1888
  140OSM    C1415255   3.213   2.205   6.295 -0.2038 -0.4302  0.2297
  140OSM   H14A15256   3.278   2.281   6.334 -0.7639  0.4495 -0.5349
  140OSM   H14B15257   3.117   2.253   6.280  0.5972  0.7611 -1.1466
  140OSM   H14C15258   3.256   2.189   6.197 -0.2749  1.6109 -0.1508
  140OSM    C1315259   3.157   1.976   6.308  0.0505  0.3630  0.1155
  140OSM   H13A15260   3.234   1.951   6.237  0.4038  1.2932  0.1656
  140OSM   H13B15261   3.065   1.996   6.256  0.5092  1.1675 -0.4014
  140OSM   H13C15262   3.141   1.895   6.378 -0.3872  0.0705 -0.3247
  140OSM    C1215263   3.093   2.139   6.486  0.1113  0.4032 -0.6623
  140OSM   H12A15264   3.118   2.232   6.535 -1.1887  0.3601  0.1248
  140OSM   H12B15265   3.103   2.059   6.558  1.7857  2.4816  1.4864
  140OSM    C1115266   2.941   2.147   6.454 -0.1108  1.0678  0.0228
  140OSM   H11A15267   2.936   2.208   6.361 -4.9021 -0.2345 -0.6973
  140OSM   H11B15268   2.888   2.203   6.534  0.5985 -0.6650  1.7538
  140OSM      P15269   2.783   1.959   6.340 -0.2505  0.3590 -0.0304
  140OSM    O1315270   2.787   2.051   6.228 -0.4903  0.4951 -0.6642
  140OSM    O1415271   2.798   1.813   6.313 -0.5809 -0.0381 -0.0978
  140OSM    O1115272   2.642   1.963   6.415 -0.3870  0.2175 -0.1353
  140OSM    O1215273   2.887   2.013   6.450  0.3946 -0.2631  0.1031
  140OSM    C1S15274   2.633   1.882   6.531 -0.8872 -0.0713  0.5058
  140OSM    H1S15275   2.706   1.798   6.536  0.7295  0.8114 -4.7201
  140OSM    H1T15276   2.528   1.845   6.533 -1.4568  1.4927  0.2765
  140OSM     NF15277   2.621   1.885   6.781  0.0061 -0.9737  0.0379
  140OSM    HNF15278   2.534   1.895   6.829 -0.7800  0.4181 -1.6110
  140OSM    C2S15279   2.638   1.967   6.659 -0.1042  0.1130  0.1406
  140OSM    H2S15280   2.737   2.017   6.663 -1.3637  2.6656  0.2647
  140OSM    C3S15281   2.539   2.087   6.656 -0.3423  0.2632 -0.8672
  140OSM    H3S15282   2.438   2.041   6.663 -0.4240  0.2916 -1.8144
  140OSM     O315283   2.547   2.156   6.528 -0.7962  0.3539 -0.5413
  140OSM    HO315284   2.587   2.091   6.470 -0.1356 -0.4630  0.8085
  140OSM    C4S15285   2.552   2.176   6.775  0.2834  0.1565  0.1893
  140OSM    H4S15286   2.490   2.148   6.862  0.5265 -0.6467  0.1103
  140OSM    C5S15287   2.637   2.280   6.777  0.0052 -0.0355 -0.6117
  140OSM    H5S15288   2.692   2.305   6.685  0.6164  1.0519  0.0478
  140OSM    C6S15289   2.656   2.375   6.884 -0.5771 -0.3133  0.1891
  140OSM    H6S15290   2.649   2.481   6.851 -1.8934 -0.6059 -0.5053
  140OSM    H6T15291   2.751   2.354   6.936  0.7271  0.1406 -1.9412
  140OSM    C7S15292   2.562   2.361   7.006  0.2756  0.3192 -0.5140
  140OSM    H7S15293   2.573   2.253   7.030  0.4998  0.2134 -1.0755
  140OSM    H7T15294   2.454   2.366   6.980 -0.2725 -1.4278  1.3052
  140OSM    C8S15295   2.589   2.463   7.114  0.3270 -0.1424 -0.0458
  140OSM    H8S15296   2.579   2.567   7.075  2.8012  0.7095  1.4459
  140OSM    H8T15297   2.694   2.454   7.148 -0.4495 -0.8941  2.2314
  140OSM    C9S15298   2.505   2.447   7.241  0.8298  0.0196 -0.3703
  140OSM    H9S15299   2.522   2.341   7.268  0.3704  0.0342 -0.0205
  140OSM    H9T15300   2.397   2.449   7.212  1.2903 -2.6062 -2.4431
  140OSM   C10S15301   2.543   2.551   7.353 -0.6627  0.0931 -0.6580
  140OSM   H10S15302   2.517   2.655   7.325  0.7368  1.6392  3.4345
  140OSM   H10T15303   2.654   2.550   7.365 -0.8158 -0.8362  0.7975
  140OSM   C11S15304   2.476   2.521   7.490 -0.4138 -0.6731 -0.1154
  140OSM   H11S15305   2.496   2.415   7.515  0.0612 -0.0426  2.3839
  140OSM   H11T15306   2.367   2.534   7.474 -0.5065 -0.1497  0.8722
  140OSM   C12S15307   2.526   2.617   7.607 -0.2807  0.5123 -0.1380
  140OSM   H12S15308   2.493   2.721   7.585 -3.0380 -0.5746 -1.4447
  140OSM   H12T15309   2.634   2.609   7.629 -0.3933 -2.6883 -0.5831
  140OSM   C13S15310   2.444   2.584   7.735 -0.0321  0.0283 -0.0362
  140OSM   H13S15311   2.335   2.605   7.726  0.0108  1.1414  1.5870
  140OSM   H13T15312   2.493   2.645   7.815  0.1564  0.5150 -0.5202
  140OSM   C14S15313   2.465   2.438   7.778 -0.4318  0.5207 -0.3754
  140OSM   H14S15314   2.574   2.415   7.778 -0.5309  0.0657  0.2336
  140OSM   H14T15315   2.409   2.371   7.710 -0.5029  0.1849  0.0194
  140OSM   C15S15316   2.413   2.408   7.926 -0.4975  0.5244 -0.4247
  140OSM   H15S15317   2.441   2.302   7.945 -0.4516 -0.0225 -3.2230
  140OSM   H15T15318   2.304   2.426   7.920 -0.2259  1.9516 -1.3369
  140OSM   C16S15319   2.479   2.494   8.038  0.8798 -0.3888  0.0748
  140OSM   H16S15320   2.471   2.603   8.020  1.9701 -0.6061 -1.8337
  140OSM   H16T15321   2.589   2.479   8.040  0.9539  0.0140 -0.6866
  140OSM   C17S15322   2.423   2.464   8.182 -0.6091  0.7341  0.6745
  140OSM   H17S15323   2.500   2.477   8.261  0.3552 -1.0826  0.0624
  140OSM   H17T15324   2.385   2.360   8.187  1.0647  0.0569 -0.3075
  140OSM   C18S15325   2.305   2.562   8.201 -0.0192 -0.7039 -0.5416
  140OSM   H18S15326   2.254   2.514   8.288  1.9547 -0.7474  0.6369
  140OSM   H18T15327   2.242   2.581   8.112  0.5932  0.7797 -0.6749
  140OSM   H18U15328   2.337   2.661   8.241 -2.1162 -0.4288  0.5268
  140OSM    C1F15329   2.710   1.799   6.821  0.1879 -0.5429  0.1821
  140OSM     OF15330   2.813   1.784   6.758 -0.2008  0.2883  0.2722
  140OSM    C2F15331   2.675   1.736   6.954 -0.8057  0.7904  0.7634
  140OSM    H2F15332   2.564   1.745   6.961 -0.9919 -1.6684  1.2826
  140OSM    H2G15333   2.717   1.803   7.033  1.5034  1.4388 -0.9521
  140OSM    C3F15334   2.721   1.592   6.956  0.0357 -0.0553 -0.1942
  140OSM    H3F15335   2.830   1.580   6.943 -0.1444 -1.3491 -0.5688
  140OSM    H3G15336   2.676   1.519   6.884 -0.6600  0.0176  0.1591
  140OSM    C4F15337   2.682   1.526   7.091  0.0898 -0.5457  0.0909
  140OSM    H4F15338   2.694   1.417   7.073  2.9464 -0.0930 -0.9847
  140OSM    H4G15339   2.574   1.551   7.106  0.0671 -0.1544 -0.6995
  140OSM    C5F15340   2.762   1.583   7.209  0.1738 -0.2029 -0.7964
  140OSM    H5F15341   2.747   1.693   7.217 -1.6655 -0.3930 -1.4052
  140OSM    H5G15342   2.869   1.560   7.188  0.2502  1.2017 -2.0232
  140OSM    C6F15343   2.724   1.505   7.342 -0.7099  0.2611  0.5585
  140OSM    H6F15344   2.721   1.404   7.296  0.5907  0.3817  0.1934
  140OSM    H6G15345   2.625   1.535   7.382  0.6096  2.0952  2.5332
  140OSM    C7F15346   2.823   1.507   7.456 -0.3497 -0.3460 -0.1823
  140OSM    H7F15347   2.927   1.498   7.418 -0.0067 -0.2218  0.7162
  140OSM    H7G15348   2.801   1.415   7.514  1.8163 -1.5116 -1.1923
  140OSM    C8F15349   2.798   1.619   7.553  0.2435  0.1243  0.0402
  140OSM    H8F15350   2.688   1.633   7.563  0.2823  1.5682 -1.2389
  140OSM    H8G15351   2.820   1.712   7.496  0.2633  1.3182  1.9505
  140OSM    C9F15352   2.873   1.609   7.683 -0.0567  0.6305 -0.3333
  140OSM    H9F15353   2.983   1.615   7.676 -0.1490  0.9487 -1.5974
  140OSM   C10F15354   2.812   1.615   7.807 -0.5085  0.3578 -0.1054
  140OSM   H10F15355   2.876   1.615   7.896 -0.1691 -1.9827 -0.3035
  140OSM   C11F15356   2.660   1.627   7.834  0.7489 -0.0101  0.5128
  140OSM   H11F15357   2.609   1.597   7.740  2.6820 -0.5607 -0.3950
  140OSM   H11G15358   2.629   1.731   7.857  0.0056 -0.0302 -0.3707
  140OSM   C12F15359   2.605   1.543   7.948 -0.2792  0.1893 -0.0076
  140OSM   H12F15360   2.629   1.438   7.921 -0.7564 -0.9587  3.7245
  140OSM   H12G15361   2.495   1.555   7.959 -0.2240 -0.0540  0.8501
  140OSM   C13F15362   2.678   1.570   8.081 -0.4668  0.6222  0.0496
  140OSM   H13F15363   2.669   1.678   8.105  2.2673  1.1339 -1.0567
  140OSM   H13G15364   2.785   1.546   8.062 -0.5806 -1.1698  1.5259
  140OSM   C14F15365   2.620   1.483   8.183  1.6465 -0.2721  0.7984
  140OSM   H14F15366   2.596   1.384   8.140  1.2823 -0.9244  2.4574
  140OSM   H14G15367   2.520   1.521   8.211  1.1638  0.0944 -1.3373
  140OSM   C15F15368   2.701   1.448   8.306  0.3182 -0.3673 -0.2479
  140OSM   H15F15369   2.636   1.401   8.383 -0.2193 -0.4123 -0.7211
  140OSM   H15G15370   2.754   1.535   8.349 -1.5219  0.2788  0.7451
  140OSM   C16F15371   2.815   1.345   8.275 -0.3112 -0.7840 -0.0618
  140OSM   H16F15372   2.895   1.393   8.213  0.8702  0.3824  2.3018
  140OSM   H16G15373   2.762   1.265   8.219  3.4865 -1.6193 -2.7193
  140OSM   C17F15374   2.884   1.282   8.394  0.2780 -0.6894  0.7073
  140OSM   H17F15375   2.943   1.199   8.350  0.2780 -0.9807  1.2536
  140OSM   H17G15376   2.818   1.235   8.470 -1.3764  3.5135  2.0373
  140OSM   C18F15377   2.975   1.381   8.474  0.1697  0.3896  0.5571
  140OSM   H18F15378   2.923   1.479   8.471 -1.9433 -0.7091 -0.3795
  140OSM   H18G15379   3.073   1.390   8.423  0.4943 -0.1045  1.0736
  140OSM   H18H15380   2.989   1.345   8.579  1.8628 -3.4704 -0.8878
  141OSM      N15381   2.007   4.150   6.301 -0.3784  0.1128  0.5212
  141OSM    C1515382   2.079   4.147   6.170 -0.1634 -0.2137  0.3607
  141OSM   H15A15383   2.064   4.239   6.115  1.1419 -0.9571 -1.3040
  141OSM   H15B15384   2.058   4.060   6.109  0.1676 -0.1936  0.2133
  141OSM   H15C15385   2.185   4.137   6.191 -0.4484  3.3935  4.3120
  141OSM    C1415386   2.069   4.260   6.387 -0.2903  0.3241 -0.0110
  141OSM   H14A15387   2.064   4.350   6.327 -0.2685  0.1647 -0.2503
  141OSM   H14B15388   2.172   4.242   6.413  0.0473  1.7376 -0.3274
  141OSM   H14C15389   2.016   4.263   6.481 -1.2128  1.1092 -0.5391
  141OSM    C1315390   1.863   4.187   6.281  0.0155 -0.4809  0.3321
  141OSM   H13A15391   1.854   4.287   6.242  0.4617 -0.0456  1.3166
  141OSM   H13B15392   1.799   4.183   6.368 -1.8748 -1.3803 -1.0610
  141OSM   H13C15393   1.810   4.124   6.211  0.8565 -0.6630 -0.1529
  141OSM    C1215394   2.014   4.017   6.381  0.6178  0.2990  0.0537
  141OSM   H12A15395   1.947   4.036   6.463  1.6413  3.6517  0.1826
  141OSM   H12B15396   2.116   3.996   6.411 -0.0713 -1.0747  1.4495
  141OSM    C1115397   1.967   3.889   6.316  0.3955  0.0476  0.4833
  141OSM   H11A15398   1.881   3.909   6.248  0.2333 -1.8745  0.0868
  141OSM   H11B15399   1.926   3.828   6.399  0.0324 -0.0399  0.2422
  141OSM      P15400   2.174   3.729   6.302  0.2854 -0.3147  0.3615
  141OSM    O1315401   2.129   3.594   6.286  0.0184  0.4024  1.1651
  141OSM    O1415402   2.301   3.767   6.235 -0.7072  0.2858  0.0044
  141OSM    O1115403   2.162   3.764   6.452  0.0477  0.2209  0.0042
  141OSM    O1215404   2.070   3.824   6.244 -0.0932 -0.2266 -0.0134
  141OSM    C1S15405   2.251   3.723   6.555 -0.2111 -0.6613  0.2356
  141OSM    H1S15406   2.353   3.757   6.528 -0.6226 -0.6596 -1.3343
  141OSM    H1T15407   2.266   3.613   6.558 -0.4433 -0.6625  1.8636
  141OSM     NF15408   2.300   3.757   6.799  0.2541 -0.4243 -0.4391
  141OSM    HNF15409   2.298   3.675   6.855 -0.8537  1.0772  1.8082
  141OSM    C2S15410   2.191   3.768   6.695  0.0552  0.4552 -0.6061
  141OSM    H2S15411   2.152   3.872   6.701 -1.1604 -0.0563  0.7842
  141OSM    C3S15412   2.062   3.675   6.718 -0.1812 -0.3502  0.3247
  141OSM    H3S15413   2.093   3.569   6.712 -0.5292 -0.5391  1.8080
  141OSM     O315414   1.959   3.691   6.617 -0.2392 -0.4528  0.0022
  141OSM    HO315415   2.015   3.736   6.554 -0.9334  2.0544  1.1298
  141OSM    C4S15416   2.012   3.691   6.865 -1.0256  0.0381  0.8716
  141OSM    H4S15417   2.069   3.635   6.941 -0.0922  1.5536  1.3075
  141OSM    C5S15418   1.897   3.752   6.900 -0.6095 -1.0476 -0.2963
  141OSM    H5S15419   1.831   3.797   6.824  0.2984 -0.3420 -0.6761
  141OSM    C6S15420   1.845   3.762   7.043 -0.5163 -0.1327 -0.0724
  141OSM    H6S15421   1.738   3.735   7.051  0.1706 -2.5521  1.3085
  141OSM    H6T15422   1.855   3.870   7.068  1.3717  0.4936 -3.2135
  141OSM    C7S15423   1.939   3.696   7.154 -0.6122  0.4832  0.2120
  141OSM    H7S15424   2.033   3.753   7.165 -0.8434  0.7142  0.9914
  141OSM    H7T15425   1.959   3.590   7.126 -1.0138  0.5972 -0.5415
  141OSM    C8S15426   1.877   3.693   7.296  0.4157  0.2686  0.2889
  141OSM    H8S15427   1.782   3.636   7.287 -0.5254  1.8705 -0.0686
  141OSM    H8T15428   1.872   3.799   7.329  2.0427  0.2284  0.7141
  141OSM    C9S15429   1.967   3.610   7.396  0.2475  0.0991  0.2329
  141OSM    H9S15430   2.063   3.657   7.424  1.7446 -1.7071 -1.7630
  141OSM    H9T15431   1.984   3.509   7.354  2.3077  1.2498 -1.7184
  141OSM   C10S15432   1.893   3.581   7.528  0.2701 -0.4116  0.4382
  141OSM   H10S15433   1.811   3.508   7.515 -0.1726  0.2557 -0.5513
  141OSM   H10T15434   1.854   3.679   7.564  2.6246  1.3194 -1.5563
  141OSM   C11S15435   1.978   3.516   7.634 -0.4585 -0.5470  0.2230
  141OSM   H11S15436   2.072   3.575   7.644 -1.1484  0.6472 -0.1647
  141OSM   H11T15437   2.001   3.412   7.603  1.8716  0.3310 -1.1021
  141OSM   C12S15438   1.905   3.499   7.776 -0.1633  0.6320  0.9419
  141OSM   H12S15439   1.818   3.432   7.759  0.9342  0.1648 -3.6810
  141OSM   H12T15440   1.875   3.600   7.810 -0.5646  0.1524  2.0373
  141OSM   C13S15441   1.977   3.425   7.891  0.3550  0.3254 -0.3978
  141OSM   H13S15442   2.057   3.497   7.922 -1.9718  3.4239 -1.3009
  141OSM   H13T15443   2.017   3.327   7.857  3.5968  1.6311 -0.5478
  141OSM   C14S15444   1.886   3.405   8.010 -0.8721  0.4309 -0.5814
  141OSM   H14S15445   1.959   3.372   8.087  0.5099  0.6203 -1.7927
  141OSM   H14T15446   1.808   3.328   7.989 -1.1457 -0.2013  2.3941
  141OSM   C15S15447   1.828   3.532   8.070  0.4363  0.0444 -0.4924
  141OSM   H15S15448   1.740   3.566   8.010 -2.0205 -1.7553  1.9717
  141OSM   H15T15449   1.903   3.614   8.059  1.3414 -0.6414  0.4967
  141OSM   C16S15450   1.776   3.517   8.212 -0.8821  0.3968 -0.1336
  141OSM   H16S15451   1.858   3.482   8.277 -0.3663  0.4519 -0.7507
  141OSM   H16T15452   1.707   3.430   8.219 -1.5930  0.9992  0.4466
  141OSM   C17S15453   1.715   3.648   8.271  0.6364 -0.4891 -0.5297
  141OSM   H17S15454   1.622   3.674   8.217 -0.8976 -1.3106  1.6175
  141OSM   H17T15455   1.786   3.730   8.249  0.7795 -0.5129 -0.1726
  141OSM   C18S15456   1.690   3.643   8.419  0.3324 -0.0976  0.0409
  141OSM   H18S15457   1.611   3.566   8.424 -0.0198  0.1291 -1.5427
  141OSM   H18T15458   1.649   3.742   8.448 -2.8277 -0.5990 -2.4512
  141OSM   H18U15459   1.782   3.615   8.474  0.2546 -0.0954  0.1705
  141OSM    C1F15460   2.401   3.836   6.816 -0.3835 -0.6034 -0.4577
  141OSM     OF15461   2.406   3.951   6.767 -0.2379 -0.0962 -0.3684
  141OSM    C2F15462   2.514   3.784   6.907 -0.2795 -0.1687  0.1227
  141OSM    H2F15463   2.580   3.705   6.865 -0.5914  0.7640 -2.1826
  141OSM    H2G15464   2.473   3.737   6.999 -3.0948  0.5048 -0.7347
  141OSM    C3F15465   2.607   3.892   6.960 -0.3477  0.4882 -0.3793
  141OSM    H3F15466   2.542   3.979   6.982 -0.6488  0.4224 -1.0084
  141OSM    H3G15467   2.673   3.918   6.875 -1.2242 -1.6719 -1.7794
  141OSM    C4F15468   2.696   3.865   7.085 -0.3033  0.6782  0.3633
  141OSM    H4F15469   2.780   3.937   7.073  0.2686 -0.4029 -2.8547
  141OSM    H4G15470   2.737   3.763   7.068 -2.3063  0.2125 -1.9134
  141OSM    C5F15471   2.624   3.886   7.216 -0.0100  0.1929 -0.6437
  141OSM    H5F15472   2.552   3.803   7.231  0.3535  0.2030  1.4058
  141OSM    H5G15473   2.569   3.983   7.216  1.7059  1.2046 -0.4309
  141OSM    C6F15474   2.736   3.889   7.323  0.6545  0.3529 -1.2093
  141OSM    H6F15475   2.819   3.958   7.299  1.1845  0.2753  0.3586
  141OSM    H6G15476   2.771   3.785   7.344 -0.2446  0.1092 -0.8858
  141OSM    C7F15477   2.674   3.932   7.453 -0.0600  0.0543 -0.2473
  141OSM    H7F15478   2.585   3.876   7.491  0.5796  0.7962  2.4749
  141OSM    H7G15479   2.656   4.041   7.443 -1.3534  0.1108  2.1159
  141OSM    C8F15480   2.766   3.922   7.576 -0.3488  0.4444 -0.1292
  141OSM    H8F15481   2.721   3.970   7.665 -1.6543  0.3496 -0.7233
  141OSM    H8G15482   2.860   3.977   7.555  0.5007 -0.5568  0.9811
  141OSM    C9F15483   2.797   3.776   7.612 -0.6533  0.3634  0.8274
  141OSM    H9F15484   2.857   3.718   7.540 -0.8260  2.2406 -0.8636
  141OSM   C10F15485   2.783   3.716   7.732  0.1729 -0.2775 -0.1122
  141OSM   H10F15486   2.809   3.610   7.738  0.1355 -0.2535  0.4450
  141OSM   C11F15487   2.727   3.771   7.864  0.8940  0.2967  0.0860
  141OSM   H11F15488   2.676   3.866   7.840 -1.9623 -1.1758  0.0736
  141OSM   H11G15489   2.804   3.793   7.941 -1.3908  0.9293  2.2325
  141OSM   C12F15490   2.624   3.669   7.915  0.1261  0.5104 -0.2106
  141OSM   H12F15491   2.560   3.642   7.828 -0.9363  1.4132  0.2853
  141OSM   H12G15492   2.555   3.719   7.986  0.8842  0.7301  0.3776
  141OSM   C13F15493   2.687   3.539   7.985 -0.1059  0.5191  0.9163
  141OSM   H13F15494   2.732   3.480   7.902  0.3187  2.0443  0.0458
  141OSM   H13G15495   2.610   3.478   8.037 -0.6846 -0.9822 -1.6151
  141OSM   C14F15496   2.804   3.572   8.075 -0.1418  0.2957 -0.7661
  141OSM   H14F15497   2.886   3.618   8.015  2.0472 -0.9831  1.1563
  141OSM   H14G15498   2.852   3.481   8.116  3.0382  1.1849 -2.3580
  141OSM   C15F15499   2.771   3.663   8.197  0.7997  0.7935 -0.1798
  141OSM   H15F15500   2.684   3.622   8.254 -0.1857 -1.0307 -2.8769
  141OSM   H15G15501   2.763   3.771   8.171  1.0729  0.7907 -0.2727
  141OSM   C16F15502   2.884   3.647   8.304 -0.0568  0.8421 -0.7170
  141OSM   H16F15503   2.981   3.692   8.273  0.7541 -1.1104 -1.0871
  141OSM   H16G15504   2.913   3.541   8.319 -0.5991  1.2054  3.4081
  141OSM   C17F15505   2.841   3.711   8.439  1.0882 -0.1264 -0.8599
  141OSM   H17F15506   2.740   3.687   8.478  1.6783  1.9682  2.0158
  141OSM   H17G15507   2.822   3.818   8.416 -1.7166 -0.7991 -2.0085
  141OSM   C18F15508   2.951   3.689   8.544  0.1652 -0.5840  0.1599
  141OSM   H18F15509   3.058   3.717   8.531  0.5636 -1.7087  0.8495
  141OSM   H18G15510   2.950   3.580   8.567 -3.5502 -0.6307 -0.0276
  141OSM   H18H15511   2.916   3.738   8.637 -0.4054  0.8086 -0.7735
  142OSM      N15512   2.037   4.965   6.231 -0.3487 -0.5384  0.4873
  142OSM    C1515513   1.889   4.943   6.248 -0.7085  0.5966  0.2052
  142OSM   H15A15514   1.849   5.013   6.320  0.5634  1.1523  0.3965
  142OSM   H15B15515   1.872   4.839   6.269 -1.0284  0.6904  0.4144
  142OSM   H15C15516   1.845   4.962   6.152  0.2098 -0.7091 -0.4860
  142OSM    C1415517   2.100   4.853   6.158  0.0210 -0.2231  0.5629
  142OSM   H14A15518   2.205   4.870   6.140  0.0513  0.8643  1.6966
  142OSM   H14B15519   2.045   4.849   6.066 -0.1468  1.5927  0.5635
  142OSM   H14C15520   2.115   4.762   6.215 -0.0579 -0.2370  0.5619
  142OSM    C1315521   2.060   5.085   6.156  0.2480 -0.2011  0.1696
  142OSM   H13A15522   2.165   5.111   6.154 -0.3423  2.4600  0.9853
  142OSM   H13B15523   2.008   5.161   6.213 -0.1210 -0.0166 -0.4181
  142OSM   H13C15524   2.018   5.079   6.057  2.1049 -1.3292 -0.5691
  142OSM    C1215525   2.107   4.986   6.372 -0.2886  0.2741 -0.1923
  142OSM   H12A15526   2.203   5.034   6.357 -0.0652  0.5149  1.9449
  142OSM   H12B15527   2.134   4.887   6.405  0.0428  0.5168  0.2650
  142OSM    C1115528   2.037   5.065   6.485 -0.5931  0.4963 -0.0106
  142OSM   H11A15529   2.105   5.087   6.570 -1.3235  1.6022  0.2906
  142OSM   H11B15530   1.960   5.003   6.536 -0.0374  0.2386  0.5347
  142OSM      P15531   1.851   5.231   6.487 -0.0217  0.0399 -0.0380
  142OSM    O1315532   1.814   5.349   6.409  0.7200  0.3321  0.3995
  142OSM    O1415533   1.743   5.127   6.488 -0.2678  0.1226 -0.5909
  142OSM    O1115534   1.885   5.275   6.637  0.1927 -0.2000 -0.0267
  142OSM    O1215535   1.984   5.177   6.425 -0.8074 -0.0032 -0.2606
  142OSM    C1S15536   1.997   5.367   6.666  0.2973 -0.1610  0.1950
  142OSM    H1S15537   1.983   5.456   6.601  2.6480 -1.1235 -1.7004
  142OSM    H1T15538   2.100   5.332   6.643  1.0965  1.5322  1.0942
  142OSM     NF15539   2.129   5.489   6.838 -0.0178  0.1110 -0.1243
  142OSM    HNF15540   2.221   5.455   6.856 -0.2958  0.6995  2.6990
  142OSM    C2S15541   2.021   5.395   6.824 -0.5191  0.0711 -0.2229
  142OSM    H2S15542   1.929   5.434   6.873 -0.8990 -0.8032 -0.2256
  142OSM    C3S15543   2.065   5.262   6.894 -0.5902  0.6487 -0.4180
  142OSM    H3S15544   2.165   5.243   6.850 -0.5687 -0.4820  0.0759
  142OSM     O315545   1.977   5.156   6.862 -0.1550  0.0251 -0.3445
  142OSM    HO315546   1.910   5.192   6.803 -0.5165  2.4269  1.4343
  142OSM    C4S15547   2.078   5.281   7.045  0.1219  0.7869  0.8159
  142OSM    H4S15548   2.180   5.298   7.083 -0.0738  0.0207  1.7139
  142OSM    C5S15549   1.986   5.279   7.143 -0.1177  0.2150 -0.7761
  142OSM    H5S15550   1.878   5.259   7.137 -0.1344 -0.5635  1.7128
  142OSM    C6S15551   2.030   5.292   7.289 -0.2434  0.3443  0.1818
  142OSM    H6S15552   2.005   5.194   7.334 -0.4804  0.2166 -0.2222
  142OSM    H6T15553   1.963   5.354   7.352 -0.2738 -0.8681  1.3658
  142OSM    C7S15554   2.176   5.338   7.326  0.2170  0.1600 -0.3064
  142OSM    H7S15555   2.198   5.423   7.257 -0.3403  0.0680 -0.6030
  142OSM    H7T15556   2.230   5.245   7.299 -1.7237 -0.4851 -2.0891
  142OSM    C8S15557   2.186   5.379   7.476  0.1875  0.3450  0.1040
  142OSM    H8S15558   2.105   5.454   7.490 -1.1329 -1.0117 -0.1233
  142OSM    H8T15559   2.282   5.431   7.495 -0.2750  0.7757  1.3393
  142OSM    C9S15560   2.160   5.267   7.587 -0.3165 -0.0550 -0.0194
  142OSM    H9S15561   2.251   5.203   7.598 -0.6099 -0.6522 -1.0132
  142OSM    H9T15562   2.076   5.204   7.550  0.1791  1.4078 -3.9348
  142OSM   C10S15563   2.142   5.323   7.727 -0.8172  0.3605 -0.1095
  142OSM   H10S15564   2.044   5.375   7.731 -2.0922 -1.9620  0.1895
  142OSM   H10T15565   2.224   5.397   7.737 -1.1914  1.5338 -4.6684
  142OSM   C11S15566   2.162   5.228   7.845 -0.1356 -0.0295 -0.0952
  142OSM   H11S15567   2.245   5.156   7.830  0.6900  0.9380 -0.2090
  142OSM   H11T15568   2.067   5.179   7.875 -0.3740  0.2934 -0.3233
  142OSM   C12S15569   2.204   5.307   7.977  0.1476  0.2016 -0.3844
  142OSM   H12S15570   2.120   5.370   8.012 -1.4796 -1.1320 -1.7816
  142OSM   H12T15571   2.288   5.375   7.952 -0.2375  0.9133  0.2523
  142OSM   C13S15572   2.249   5.199   8.084  0.1988 -0.4454 -0.2173
  142OSM   H13S15573   2.319   5.126   8.038  2.2228  0.3956  1.4389
  142OSM   H13T15574   2.160   5.137   8.110 -0.2457  0.6550  0.9253
  142OSM   C14S15575   2.318   5.254   8.211  0.4103  0.3616 -0.1685
  142OSM   H14S15576   2.397   5.325   8.180 -0.1256  1.6407  1.3731
  142OSM   H14T15577   2.372   5.177   8.271 -0.2137  0.8088  0.9771
  142OSM   C15S15578   2.225   5.331   8.310 -0.1516 -0.3492  0.4511
  142OSM   H15S15579   2.171   5.254   8.369 -1.1824 -0.5015 -0.6727
  142OSM   H15T15580   2.158   5.392   8.247 -2.6404 -0.1736  3.1555
  142OSM   C16S15581   2.301   5.431   8.404  0.5756 -0.7685 -0.2933
  142OSM   H16S15582   2.352   5.515   8.351  0.9532  0.5577  2.0940
  142OSM   H16T15583   2.390   5.378   8.443  1.4628  0.2703 -0.8697
  142OSM   C17S15584   2.218   5.492   8.517 -0.3459 -0.3270 -0.8331
  142OSM   H17S15585   2.173   5.406   8.570  0.8720 -0.7194 -0.4172
  142OSM   H17T15586   2.141   5.559   8.473  0.8849  0.4938 -1.7443
  142OSM   C18S15587   2.316   5.565   8.618 -0.5164 -0.0464 -0.2658
  142OSM   H18S15588   2.402   5.510   8.661  0.0347  0.0605 -1.2338
  142OSM   H18T15589   2.254   5.601   8.703 -1.5875 -0.9025 -0.6677
  142OSM   H18U15590   2.363   5.656   8.575  0.1400 -0.2103  0.1016
  142OSM    C1F15591   2.120   5.620   6.824  0.3034 -0.3650 -0.3926
  142OSM     OF15592   2.019   5.667   6.774  0.2185 -0.2145  0.4186
  142OSM    C2F15593   2.236   5.701   6.862  0.0505  0.4670 -0.4065
  142OSM    H2F15594   2.285   5.738   6.770  1.3644 -0.4657 -0.1008
  142OSM    H2G15595   2.316   5.635   6.903  1.1232  2.2804  0.4525
  142OSM    C3F15596   2.197   5.827   6.934 -0.1013  0.2806 -0.1683
  142OSM    H3F15597   2.160   5.907   6.866  2.1091 -0.1429 -1.9308
  142OSM    H3G15598   2.291   5.865   6.980 -1.0803 -1.9178  3.9167
  142OSM    C4F15599   2.094   5.804   7.052 -0.0168  0.3863 -0.2718
  142OSM    H4F15600   1.996   5.765   7.017 -0.4546 -1.5932  2.9143
  142OSM    H4G15601   2.079   5.908   7.089  0.2343  0.1783  0.4429
  142OSM    C5F15602   2.154   5.720   7.168 -0.2703 -0.4411  0.0912
  142OSM    H5F15603   2.182   5.623   7.121  2.2129  0.4432 -0.2973
  142OSM    H5G15604   2.080   5.701   7.249  2.3267  0.4869  2.7696
  142OSM    C6F15605   2.278   5.779   7.243  1.2099 -0.3522  0.7172
  142OSM    H6F15606   2.253   5.883   7.271  2.2428  1.3176 -4.0900
  142OSM    H6G15607   2.351   5.788   7.160 -3.8561 -0.1218 -3.9767
  142OSM    C7F15608   2.321   5.701   7.367  0.6783  0.3129  0.1747
  142OSM    H7F15609   2.343   5.596   7.341  1.5110  0.0215  2.0283
  142OSM    H7G15610   2.240   5.688   7.442  0.8846 -1.4183  0.0989
  142OSM    C8F15611   2.439   5.760   7.441  0.1956 -0.1405  0.5389
  142OSM    H8F15612   2.420   5.869   7.455 -0.9642  0.1433 -2.6505
  142OSM    H8G15613   2.518   5.758   7.363 -0.1839 -1.8082  0.1764
  142OSM    C9F15614   2.497   5.681   7.561  0.3560  0.4206 -0.2721
  142OSM    H9F15615   2.577   5.608   7.543  0.0914  0.3512 -1.1986
  142OSM   C10F15616   2.430   5.673   7.680 -0.5281 -0.0937 -0.0446
  142OSM   H10F15617   2.472   5.602   7.753 -1.3501  0.3035  0.8295
  142OSM   C11F15618   2.294   5.730   7.716 -0.1352  0.0188  0.5692
  142OSM   H11F15619   2.212   5.656   7.708 -0.0710 -0.0124  0.2077
  142OSM   H11G15620   2.263   5.812   7.648 -1.5830  0.9866  2.3455
  142OSM   C12F15621   2.308   5.772   7.861 -0.1118  0.1790 -0.2333
  142OSM   H12F15622   2.406   5.814   7.893  1.1127 -2.6618 -0.1460
  142OSM   H12G15623   2.293   5.689   7.932  0.5272  2.2440  2.4031
  142OSM   C13F15624   2.210   5.889   7.899 -0.2090  0.2373  1.1360
  142OSM   H13F15625   2.108   5.880   7.855 -0.9270 -1.7478  3.1124
  142OSM   H13G15626   2.235   5.980   7.840 -1.1591 -0.4911 -0.4439
  142OSM   C14F15627   2.186   5.906   8.045  0.3238  0.3145 -0.0295
  142OSM   H14F15628   2.287   5.926   8.087  0.6379 -0.1585 -0.5536
  142OSM   H14G15629   2.149   5.817   8.100  1.3157 -0.3540 -0.4299
  142OSM   C15F15630   2.109   6.033   8.080  0.5610 -0.2082  0.1794
  142OSM   H15F15631   1.998   6.023   8.074  0.4523  0.6618  0.5761
  142OSM   H15G15632   2.138   6.109   8.005 -1.9463  0.1490 -0.4824
  142OSM   C16F15633   2.138   6.089   8.213  0.0127  0.6159  0.3638
  142OSM   H16F15634   2.247   6.111   8.215 -0.2429  2.2448 -1.6301
  142OSM   H16G15635   2.113   6.019   8.295 -0.0992 -0.0026 -0.1956
  142OSM   C17F15636   2.056   6.218   8.225 -0.0668  0.0225  0.4880
  142OSM   H17F15637   1.951   6.182   8.216  0.6219 -1.7952 -0.4645
  142OSM   H17G15638   2.073   6.286   8.139  1.3167 -0.1246  0.6243
  142OSM   C18F15639   2.086   6.290   8.355  1.1979  0.2716 -0.1194
  142OSM   H18F15640   2.062   6.227   8.443 -0.6018  1.6781  0.4356
  142OSM   H18G15641   2.029   6.386   8.351  0.2710 -0.2033  1.2773
  142OSM   H18H15642   2.192   6.324   8.362  0.3358  2.9509  0.5175
  143OSM      N15643   4.188   0.237   6.076 -0.2769  0.5924  0.3618
  143OSM    C1515644   4.193   0.352   6.175  0.5470  0.1595 -0.8307
  143OSM   H15A15645   4.166   0.451   6.140 -0.3417  0.5397  0.8861
  143OSM   H15B15646   4.294   0.372   6.206  0.5756  0.8619 -1.3591
  143OSM   H15C15647   4.134   0.323   6.261 -0.5181 -0.4334 -1.7424
  143OSM    C1415648   4.291   0.265   5.966 -0.5889  0.0813  0.1958
  143OSM   H14A15649   4.298   0.187   5.891  1.1717  1.0821 -0.7122
  143OSM   H14B15650   4.388   0.263   6.013  0.2526  0.0400 -1.4986
  143OSM   H14C15651   4.272   0.360   5.920  0.6510 -0.0584 -0.6335
  143OSM    C1315652   4.246   0.112   6.151 -0.2826 -0.0166  0.5287
  143OSM   H13A15653   4.339   0.147   6.192 -0.4171  0.9311  0.0590
  143OSM   H13B15654   4.263   0.029   6.085  0.9186  1.1864 -0.7077
  143OSM   H13C15655   4.178   0.085   6.230  1.0265  0.1654  1.7256
  143OSM    C1215656   4.051   0.204   6.013 -1.1347 -0.0306 -0.0055
  143OSM   H12A15657   4.006   0.130   6.078  0.8656 -1.1724  0.1234
  143OSM   H12B15658   4.060   0.147   5.922 -0.7811 -1.0430  0.6516
  143OSM    C1115659   3.951   0.320   5.986  0.2044 -0.4038  0.7809
  143OSM   H11A15660   3.868   0.298   5.915  1.6702  0.5128 -1.2895
  143OSM   H11B15661   4.010   0.392   5.924 -0.5614  0.4689  1.0631
  143OSM      P15662   3.831   0.297   6.222 -0.2127 -0.3009  0.0750
  143OSM    O1315663   3.746   0.400   6.298  0.1656  0.1469 -0.5229
  143OSM    O1415664   3.752   0.184   6.166  0.4049  0.5597  0.5118
  143OSM    O1115665   3.945   0.239   6.314  0.6179  0.0538 -0.0840
  143OSM    O1215666   3.898   0.378   6.101 -0.5214  0.1727 -0.1448
  143OSM    C1S15667   3.960   0.276   6.448 -0.5122 -0.5733  0.6118
  143OSM    H1S15668   3.959   0.387   6.458  1.1158 -0.3078 -1.6932
  143OSM    H1T15669   4.060   0.242   6.482 -0.6833 -0.3432  1.3421
  143OSM     NF15670   3.888   0.279   6.676 -0.1906  0.0387 -0.8046
  143OSM    HNF15671   3.947   0.231   6.741 -0.6617  0.4897 -0.0301
  143OSM    C2S15672   3.864   0.219   6.549  0.8865  0.9124  0.2079
  143OSM    H2S15673   3.759   0.235   6.516 -0.1003 -0.6598  2.4363
  143OSM    C3S15674   3.882   0.060   6.547  0.6090  0.2233 -0.5555
  143OSM    H3S15675   3.991   0.043   6.563  0.2236  0.1838  2.1645
  143OSM     O315676   3.848  -0.013   6.430 -0.9865 -0.1140  0.2940
  143OSM    HO315677   3.803   0.047   6.371 -1.4313  1.6134  2.3459
  143OSM    C4S15678   3.794   0.003   6.650  0.1541 -1.1093 -0.4833
  143OSM    H4S15679   3.694   0.047   6.647 -0.5703 -2.6148  1.0335
  143OSM    C5S15680   3.833  -0.084   6.745 -0.2989 -0.1423 -0.4449
  143OSM    H5S15681   3.932  -0.131   6.750  1.5158  3.5668  0.7057
  143OSM    C6S15682   3.732  -0.137   6.843  0.1415  0.1599  0.4729
  143OSM    H6S15683   3.776  -0.231   6.881 -0.8482  0.3826  2.2485
  143OSM    H6T15684   3.634  -0.161   6.798  0.5503 -2.2788  0.8464
  143OSM    C7S15685   3.710  -0.041   6.952 -0.1719  0.2988 -0.1236
  143OSM    H7S15686   3.697   0.062   6.913 -1.2200 -0.0120 -0.5997
  143OSM    H7T15687   3.802  -0.039   7.015 -0.8181  0.5988  0.8271
  143OSM    C8S15688   3.594  -0.084   7.048  0.2594  0.0527 -0.2594
  143OSM    H8S15689   3.619  -0.180   7.099 -0.4944  0.9649  1.8591
  143OSM    H8T15690   3.498  -0.094   6.992 -0.9878 -0.7214  1.9747
  143OSM    C9S15691   3.556   0.017   7.154 -0.2717  0.0356  0.4696
  143OSM    H9S15692   3.474  -0.025   7.216  0.0368 -0.2800  0.6627
  143OSM    H9T15693   3.518   0.114   7.114  2.3222  1.7380  1.9470
  143OSM   C10S15694   3.676   0.051   7.245  0.3303 -0.2522 -0.1432
  143OSM   H10S15695   3.738   0.117   7.181 -1.6877  2.2368  0.3780
  143OSM   H10T15696   3.739  -0.040   7.258 -2.7642 -2.1143  2.5703
  143OSM   C11S15697   3.634   0.113   7.379  0.3168  0.3957  0.0222
  143OSM   H11S15698   3.584   0.027   7.430  1.9699 -0.0290  0.9480
  143OSM   H11T15699   3.556   0.191   7.365 -0.5476 -0.2601  1.0787
  143OSM   C12S15700   3.750   0.172   7.457 -0.2727 -0.5679 -1.0004
  143OSM   H12S15701   3.794   0.263   7.409  0.1201  0.4526  1.2076
  143OSM   H12T15702   3.832   0.097   7.455  1.0132  0.5555  3.6849
  143OSM   C13S15703   3.716   0.185   7.605 -0.7935 -1.0346  0.2022
  143OSM   H13S15704   3.706   0.087   7.657 -1.6155 -1.9426 -1.6244
  143OSM   H13T15705   3.618   0.234   7.623  1.6219  3.5228  1.6856
  143OSM   C14S15706   3.826   0.252   7.685 -0.3719  0.2186 -0.1867
  143OSM   H14S15707   3.851   0.345   7.630  0.8255  1.3711  2.2232
  143OSM   H14T15708   3.915   0.186   7.678 -0.5538 -0.2947  1.9915
  143OSM   C15S15709   3.775   0.265   7.828  0.4229  0.0160 -1.2563
  143OSM   H15S15710   3.718   0.177   7.867 -1.3457  1.1988 -1.1316
  143OSM   H15T15711   3.701   0.347   7.831  1.5724  1.0180  0.7007
  143OSM   C16S15712   3.898   0.296   7.917  0.1761 -0.8121  0.4303
  143OSM   H16S15713   3.987   0.334   7.863 -0.4604  0.6358  0.3753
  143OSM   H16T15714   3.938   0.204   7.963 -1.5022 -1.8270 -0.1152
  143OSM   C17S15715   3.867   0.392   8.030 -0.2267 -0.7053 -0.1030
  143OSM   H17S15716   3.782   0.345   8.084  0.4009  0.4642  1.9510
  143OSM   H17T15717   3.827   0.490   7.993 -0.9319 -0.6458  0.7913
  143OSM   C18S15718   3.978   0.405   8.133  0.0880  0.2623  0.0140
  143OSM   H18S15719   3.997   0.307   8.182  2.5470 -0.8968 -3.0323
  143OSM   H18T15720   3.941   0.478   8.208 -2.2669  0.2993 -1.1510
  143OSM   H18U15721   4.070   0.439   8.080  0.0684  3.1872  1.7783
  143OSM    C1F15722   3.841   0.401   6.709  0.0254  0.1883  0.2949
  143OSM     OF15723   3.800   0.475   6.623 -0.3773 -0.0678  0.8635
  143OSM    C2F15724   3.837   0.444   6.851 -0.8380  0.3132 -0.0594
  143OSM    H2F15725   3.904   0.377   6.910 -0.1536  1.6571  0.7196
  143OSM    H2G15726   3.743   0.420   6.904 -0.0139  0.4237  1.5068
  143OSM    C3F15727   3.838   0.595   6.887  0.0053  0.5976  0.7466
  143OSM    H3F15728   3.761   0.642   6.823 -1.0218 -0.3616  1.2637
  143OSM    H3G15729   3.938   0.632   6.855 -0.0849 -0.9044 -1.4021
  143OSM    C4F15730   3.802   0.625   7.030  0.5397 -1.0166 -1.1064
  143OSM    H4F15731   3.728   0.560   7.081 -0.6405  0.8129 -0.4428
  143OSM    H4G15732   3.769   0.731   7.033  0.1260 -1.1638 -0.1830
  143OSM    C5F15733   3.924   0.636   7.119  0.1812  0.3770  0.5321
  143OSM    H5F15734   3.993   0.705   7.066  1.1598 -0.9145  0.0804
  143OSM    H5G15735   3.967   0.534   7.127  0.8811  0.6578  0.3464
  143OSM    C6F15736   3.895   0.692   7.263  0.5386 -0.8509 -0.1518
  143OSM    H6F15737   3.803   0.640   7.299  1.3131 -0.7878  1.9680
  143OSM    H6G15738   3.871   0.801   7.261 -0.7706 -1.1525 -2.3182
  143OSM    C7F15739   4.004   0.650   7.367  0.9743  0.3394  0.0979
  143OSM    H7F15740   4.102   0.693   7.338  0.5618  1.0855 -0.1999
  143OSM    H7G15741   4.014   0.540   7.358  0.0814  0.3659 -1.5343
  143OSM    C8F15742   3.965   0.677   7.508  0.0962  0.2009 -0.7303
  143OSM    H8F15743   3.861   0.646   7.531 -0.6318  1.7202 -1.9132
  143OSM    H8G15744   3.961   0.788   7.515 -2.1929  0.0361  1.2314
  143OSM    C9F15745   4.058   0.619   7.611 -0.2936 -0.6893  0.5261
  143OSM    H9F15746   4.072   0.510   7.606 -1.2785 -1.0741  4.1829
  143OSM   C10F15747   4.116   0.688   7.707 -0.1013 -0.9021  0.2852
  143OSM   H10F15748   4.161   0.632   7.791  1.1091  0.8214  0.8284
  143OSM   C11F15749   4.122   0.836   7.732 -0.3019 -0.3241  0.7305
  143OSM   H11F15750   4.080   0.890   7.645  1.6469  2.8154  1.6364
  143OSM   H11G15751   4.228   0.869   7.742  0.0416 -0.2549 -2.5868
  143OSM   C12F15752   4.033   0.894   7.848  0.5343 -0.0680  0.6704
  143OSM   H12F15753   3.925   0.867   7.843  0.8506 -1.0928 -1.0121
  143OSM   H12G15754   4.038   1.004   7.833  0.1137 -0.1539 -0.1713
  143OSM   C13F15755   4.087   0.869   7.988  0.1447  0.6752 -0.0926
  143OSM   H13F15756   4.191   0.907   7.986  0.7983 -0.8905  2.1273
  143OSM   H13G15757   4.089   0.760   8.009  2.3701  0.6359 -0.3616
  143OSM   C14F15758   4.025   0.944   8.115 -0.2427  0.1219 -0.2248
  143OSM   H14F15759   3.917   0.919   8.104  0.5497 -2.6046 -2.0527
  143OSM   H14G15760   4.028   1.055   8.107  0.1414  0.0649 -0.8951
  143OSM   C15F15761   4.096   0.901   8.248 -0.2155 -0.2328 -0.5752
  143OSM   H15F15762   4.115   0.793   8.232  0.8113  0.1807 -2.2840
  143OSM   H15G15763   4.036   0.899   8.341 -2.5937 -0.8949 -2.0917
  143OSM   C16F15764   4.224   0.989   8.278 -0.2931  0.7520 -0.2012
  143OSM   H16F15765   4.200   1.087   8.327 -3.0258  0.6748 -1.3213
  143OSM   H16G15766   4.268   1.000   8.177  0.3523 -1.6840 -0.2024
  143OSM   C17F15767   4.328   0.921   8.367 -0.4735 -0.8597 -0.2560
  143OSM   H17F15768   4.352   0.827   8.312  1.6661  0.2170 -1.2329
  143OSM   H17G15769   4.278   0.889   8.461 -0.8698  0.1748 -0.1181
  143OSM   C18F15770   4.459   0.999   8.401  0.4179  0.0317 -0.1147
  143OSM   H18F15771   4.537   0.928   8.436  1.2840  1.7011  1.4341
  143OSM   H18G15772   4.445   1.079   8.476 -0.8240 -2.7749  2.7569
  143OSM   H18H15773   4.502   1.047   8.310 -2.7900  1.3361 -0.9989
  144OSM      N15774   2.582   0.227   5.701  0.2448  0.6225  0.7904
  144OSM    C1515775   2.696   0.319   5.656  0.1888  0.0479  0.2735
  144OSM   H15A15776   2.665   0.421   5.677 -0.3451  0.0447 -0.4531
  144OSM   H15B15777   2.726   0.306   5.553  3.4964  2.6214  0.8493
  144OSM   H15C15778   2.785   0.297   5.711 -0.7738 -2.1153  1.0106
  144OSM    C1415779   2.459   0.274   5.616 -0.2341  0.1070  0.4952
  144OSM   H14A15780   2.494   0.299   5.517 -1.6060 -0.4650 -0.1390
  144OSM   H14B15781   2.429   0.367   5.661  1.6307  0.5605  0.8322
  144OSM   H14C15782   2.379   0.201   5.616  0.5229 -0.7276  0.1185
  144OSM    C1315783   2.615   0.088   5.656 -0.4171  0.0316  0.8145
  144OSM   H13A15784   2.721   0.076   5.675 -0.1514  0.4942 -0.3783
  144OSM   H13B15785   2.597   0.063   5.553  2.7316 -1.5977  0.6025
  144OSM   H13C15786   2.571   0.019   5.727  3.0069 -2.0084  1.0666
  144OSM    C1215787   2.562   0.234   5.852 -0.6799  0.3213 -0.0334
  144OSM   H12A15788   2.651   0.192   5.898 -0.2606  1.4717  0.2124
  144OSM   H12B15789   2.495   0.156   5.887  0.1884 -0.8166 -0.8756
  144OSM    C1115790   2.550   0.378   5.909  0.0480 -0.6275 -0.0070
  144OSM   H11A15791   2.446   0.415   5.900  1.1304  2.4296 -0.6539
  144OSM   H11B15792   2.606   0.458   5.855 -2.4071  0.9295 -0.3356
  144OSM      P15793   2.736   0.377   6.090 -0.1639 -0.4799  0.2181
  144OSM    O1315794   2.773   0.240   6.065 -0.2343 -0.2436  0.5562
  144OSM    O1415795   2.820   0.485   6.025  0.0004  0.2538 -0.5381
  144OSM    O1115796   2.734   0.407   6.253  0.1597  0.0528  0.5060
  144OSM    O1215797   2.588   0.396   6.044  0.5350 -0.1878  0.4406
  144OSM    C1S15798   2.798   0.529   6.301  0.3462 -0.3817 -0.0901
  144OSM    H1S15799   2.752   0.620   6.258 -1.1032 -0.7484  0.6458
  144OSM    H1T15800   2.904   0.535   6.269  0.6657  1.1357  1.1883
  144OSM     NF15801   2.859   0.658   6.492 -0.1221 -0.2064 -1.2502
  144OSM    HNF15802   2.958   0.669   6.495 -0.4280  2.3665  0.4147
  144OSM    C2S15803   2.812   0.528   6.455  0.2113  0.5612 -0.1455
  144OSM    H2S15804   2.714   0.525   6.508  1.3438 -0.7576  1.9250
  144OSM    C3S15805   2.909   0.413   6.512 -0.4045 -0.2723  0.2601
  144OSM    H3S15806   3.001   0.440   6.457 -0.1574 -2.5261 -0.4861
  144OSM     O315807   2.858   0.287   6.477 -0.8820 -0.7128  0.5175
  144OSM    HO315808   2.789   0.296   6.411  0.1003  0.2656 -0.3803
  144OSM    C4S15809   2.936   0.404   6.660 -0.0040 -0.5146  0.4675
  144OSM    H4S15810   2.839   0.409   6.711 -0.2301 -1.7374  0.1794
  144OSM    C5S15811   3.046   0.422   6.736 -0.0008 -0.3208 -0.5241
  144OSM    H5S15812   3.143   0.446   6.690  0.1309 -1.0746 -0.6460
  144OSM    C6S15813   3.043   0.393   6.886 -0.8214 -0.1893 -0.2857
  144OSM    H6S15814   2.964   0.460   6.926 -0.6386  0.7490 -1.4458
  144OSM    H6T15815   3.137   0.415   6.941 -1.6457  1.6094  0.4386
  144OSM    C7S15816   3.011   0.243   6.928 -0.2390 -0.5866 -0.3569
  144OSM    H7S15817   3.083   0.173   6.880  1.3599  0.0967  0.9994
  144OSM    H7T15818   2.913   0.210   6.887 -0.4042  0.2282 -0.6304
  144OSM    C8S15819   3.000   0.204   7.079  0.1989 -0.3608  0.3887
  144OSM    H8S15820   2.949   0.106   7.077  0.2915 -0.4032 -2.8694
  144OSM    H8T15821   2.940   0.275   7.139 -2.9825 -2.1814 -0.5583
  144OSM    C9S15822   3.131   0.172   7.155 -0.1647 -0.6460  0.1256
  144OSM    H9S15823   3.214   0.240   7.124 -1.1917  1.8224  2.5922
  144OSM    H9T15824   3.167   0.075   7.114 -1.0495 -1.6314  1.6328
  144OSM   C10S15825   3.115   0.151   7.312 -0.1700  0.2559 -0.9610
  144OSM   H10S15826   3.041   0.073   7.340  0.5653 -0.0105  0.2722
  144OSM   H10T15827   3.072   0.248   7.347  0.3190  0.6774 -1.5119
  144OSM   C11S15828   3.247   0.117   7.382 -0.5980 -0.5466  0.4225
  144OSM   H11S15829   3.332   0.185   7.357 -1.3240  0.7257  1.3863
  144OSM   H11T15830   3.294   0.020   7.354 -0.3038  0.1289 -1.5476
  144OSM   C12S15831   3.239   0.108   7.540 -0.5228  0.1501 -0.0500
  144OSM   H12S15832   3.321   0.046   7.583 -0.2189  0.0762 -0.7181
  144OSM   H12T15833   3.143   0.053   7.551  0.7853 -2.6057 -1.8226
  144OSM   C13S15834   3.241   0.245   7.614  0.0761 -0.0366  0.0984
  144OSM   H13S15835   3.189   0.312   7.543 -0.8047  1.7634  2.3862
  144OSM   H13T15836   3.342   0.282   7.644  0.0980  0.9083 -1.1135
  144OSM   C14S15837   3.158   0.248   7.738  0.0327 -0.4565  0.1890
  144OSM   H14S15838   3.054   0.240   7.701 -0.5606 -2.5961  2.1968
  144OSM   H14T15839   3.161   0.345   7.792  1.6038 -0.5640  0.3276
  144OSM   C15S15840   3.181   0.130   7.834  0.0595 -0.3245  0.0174
  144OSM   H15S15841   3.155   0.043   7.770  0.6849 -0.8853  0.5209
  144OSM   H15T15842   3.102   0.139   7.911  1.3530  1.6801  1.1607
  144OSM   C16S15843   3.323   0.129   7.889  0.0869  0.5218  0.1490
  144OSM   H16S15844   3.399   0.150   7.811 -0.0108  1.8598  0.3946
  144OSM   H16T15845   3.339   0.027   7.929 -0.2514  0.6443  0.6071
  144OSM   C17S15846   3.328   0.216   8.009  0.4452 -0.9638 -0.3155
  144OSM   H17S15847   3.248   0.190   8.081  1.1176  0.3261  0.9196
  144OSM   H17T15848   3.310   0.318   7.969  0.8232 -1.6975 -2.4262
  144OSM   C18S15849   3.460   0.209   8.082  0.1974  0.1787  0.1084
  144OSM   H18S15850   3.489   0.102   8.095  0.0163 -0.0338 -1.1567
  144OSM   H18T15851   3.465   0.267   8.177  0.1528 -1.2197  0.9838
  144OSM   H18U15852   3.544   0.237   8.016 -0.9429  3.0079 -0.2117
  144OSM    C1F15853   2.777   0.764   6.497  0.2118 -0.5141  0.2725
  144OSM     OF15854   2.657   0.749   6.479 -0.1686 -0.3547  0.6820
  144OSM    C2F15855   2.832   0.900   6.514  0.6569 -0.1308  0.0076
  144OSM    H2F15856   2.771   0.951   6.436  2.8673  0.8388 -1.1296
  144OSM    H2G15857   2.940   0.917   6.495  0.2568  1.9444 -0.4803
  144OSM    C3F15858   2.807   0.965   6.653  0.0535 -0.1045 -0.1224
  144OSM    H3F15859   2.698   0.952   6.669 -0.2872  1.0674 -1.3911
  144OSM    H3G15860   2.836   1.071   6.634  1.0038 -0.5288 -1.1404
  144OSM    C4F15861   2.885   0.900   6.766 -0.9236 -0.4964 -0.5034
  144OSM    H4F15862   2.988   0.943   6.766 -1.0033 -0.2199  1.8502
  144OSM    H4G15863   2.895   0.790   6.751 -1.4576 -0.5237 -0.6681
  144OSM    C5F15864   2.842   0.918   6.904  0.1910 -0.1625  0.1662
  144OSM    H5F15865   2.738   0.880   6.915  0.3348 -0.2603  1.3179
  144OSM    H5G15866   2.832   1.025   6.934 -0.3129 -0.9830  3.1775
  144OSM    C6F15867   2.919   0.833   7.010 -0.4988 -0.4669  0.7669
  144OSM    H6F15868   2.901   0.725   6.992  0.1395 -0.3484 -0.6351
  144OSM    H6G15869   2.888   0.859   7.113  2.4013  2.9042  0.8667
  144OSM    C7F15870   3.073   0.863   7.017  0.0902  0.7460  0.1663
  144OSM    H7F15871   3.095   0.972   7.022  2.2343  0.3964 -0.8218
  144OSM    H7G15872   3.122   0.819   6.927 -0.1455  1.3113 -0.2444
  144OSM    C8F15873   3.132   0.808   7.154  0.1873  0.0284  1.2851
  144OSM    H8F15874   3.101   0.870   7.241  3.1612  1.0055  1.7058
  144OSM    H8G15875   3.242   0.819   7.154  0.1038  0.9488 -0.3847
  144OSM    C9F15876   3.091   0.665   7.195  0.1694  0.2819 -0.0883
  144OSM    H9F15877   3.096   0.592   7.113 -1.7727 -0.5603  0.5347
  144OSM   C10F15878   3.035   0.622   7.311  0.7409 -0.4774 -0.8557
  144OSM   H10F15879   2.999   0.518   7.313  1.9976 -0.9045  1.2586
  144OSM   C11F15880   3.011   0.708   7.430  0.5794  0.5807 -0.0026
  144OSM   H11F15881   2.918   0.769   7.424  0.0595 -0.3547 -1.8996
  144OSM   H11G15882   3.097   0.775   7.449  0.6439  1.1345 -2.1413
  144OSM   C12F15883   2.986   0.614   7.549  0.1278  0.5993 -0.2780
  144OSM   H12F15884   3.076   0.555   7.573 -0.7582 -0.9585 -0.7348
  144OSM   H12G15885   2.899   0.547   7.537  0.4113  0.1849  0.0035
  144OSM   C13F15886   2.936   0.709   7.660  0.1622 -0.0267 -0.2331
  144OSM   H13F15887   2.830   0.740   7.650  0.4919  0.5069 -2.2646
  144OSM   H13G15888   2.998   0.800   7.646  0.3329 -0.2499 -0.9508
  144OSM   C14F15889   2.977   0.666   7.802 -0.2168  0.5744 -0.9486
  144OSM   H14F15890   2.924   0.744   7.862 -0.7765  0.7075 -1.6062
  144OSM   H14G15891   3.086   0.684   7.813 -0.3576  0.4338  0.7812
  144OSM   C15F15892   2.933   0.524   7.833 -0.2419 -0.1391 -0.1195
  144OSM   H15F15893   2.973   0.460   7.751 -1.4599 -0.3702 -0.5314
  144OSM   H15G15894   2.823   0.512   7.827 -0.3986  0.8592  0.6634
  144OSM   C16F15895   2.982   0.476   7.968  0.7541 -0.3995  0.6892
  144OSM   H16F15896   2.950   0.558   8.034 -1.7047 -0.5818 -0.2437
  144OSM   H16G15897   3.092   0.460   7.960  0.6942  0.5505 -2.6896
  144OSM   C17F15898   2.919   0.340   8.008  0.3133 -0.4612 -0.2072
  144OSM   H17F15899   2.974   0.304   8.098  0.3125 -1.7144 -0.6923
  144OSM   H17G15900   2.935   0.265   7.927  0.1609 -0.0558 -0.6155
  144OSM   C18F15901   2.771   0.344   8.048 -0.0267 -0.7882  0.2420
  144OSM   H18F15902   2.752   0.434   8.111 -0.8414 -0.2695 -0.7249
  144OSM   H18G15903   2.739   0.254   8.105  0.4390 -0.6942  0.6524
  144OSM   H18H15904   2.702   0.351   7.961  0.1556 -1.9037  0.0020
  145SAPE     N15905   2.120   1.713  10.868 -0.0831 -0.1776 -0.3691
  145SAPE   HN115906   2.155   1.619  10.843 -0.5401  0.3275 -3.0909
  145SAPE   HN215907   2.154   1.791  10.807 -0.3258 -1.6281 -2.3882
  145SAPE   HN315908   2.145   1.727  10.968 -1.7658 -2.0929  0.3351
  145SAPE   C1215909   1.970   1.709  10.857 -0.1903  0.3622  0.3338
  145SAPE  H12A15910   1.939   1.809  10.822  0.4246  0.7565  0.8991
  145SAPE  H12B15911   1.926   1.681  10.955  0.9070 -2.9448 -0.0478
  145SAPE   C1115912   1.932   1.594  10.763  0.6580  0.2091  0.3684
  145SAPE  H11A15913   1.963   1.634  10.665  0.4100 -0.5294 -0.0176
  145SAPE  H11B15914   1.821   1.587  10.755  0.6586 -0.1193  0.5825
  145SAPE     P15915   1.936   1.329  10.728  0.4591  0.4269 -0.0902
  145SAPE   O1315916   2.008   1.212  10.785 -0.6143  0.4408 -0.0003
  145SAPE   O1415917   1.792   1.319  10.743  0.2276  1.0341 -0.4415
  145SAPE   O1215918   1.988   1.461  10.797 -0.1190  0.3832 -0.3168
  145SAPE   O1115919   1.976   1.343  10.572  0.2465  0.0818 -0.2240
  145SAPE    C115920   2.115   1.372  10.544  0.3359 -0.0050 -0.1963
  145SAPE    HA15921   2.143   1.467  10.594 -0.1059  0.1438 -0.2257
  145SAPE    HB15922   2.187   1.294  10.578  0.5990  0.4698  0.3477
  145SAPE    C215923   2.141   1.403  10.395  0.1744 -0.1143 -0.1532
  145SAPE    HS15924   2.235   1.461  10.382  0.0584 -0.0370 -0.6678
  145SAPE   O2115925   2.038   1.485  10.350  0.2965 -0.1262  0.3081
  145SAPE   C2115926   2.035   1.615  10.393 -0.8347 -0.8700 -0.1646
  145SAPE   O2215927   2.121   1.666  10.468 -0.1890  0.7738  0.4962
  145SAPE   C2215928   1.911   1.693  10.347  0.0684  0.2765 -0.1561
  145SAPE   H2R15929   1.831   1.648  10.410 -0.8232  1.8115 -0.1574
  145SAPE   H2S15930   1.928   1.802  10.364 -0.9332  0.3463  0.4245
  145SAPE    C315931   2.149   1.269  10.315 -0.7790 -0.3174  0.3905
  145SAPE    HX15932   2.056   1.211  10.330  0.6846 -1.9165  4.1648
  145SAPE    HY15933   2.219   1.199  10.365 -0.8026 -1.1219 -0.6923
  145SAPE   O3115934   2.194   1.296  10.180 -0.1726  0.2217 -0.5012
  145SAPE   C3115935   2.090   1.304  10.088 -0.4676  0.2954 -0.1001
  145SAPE   O3215936   1.974   1.313  10.117 -0.1175 -0.2314 -0.6385
  145SAPE   C3215937   2.151   1.301   9.945  0.1953  0.1559 -0.2665
  145SAPE   H2X15938   2.183   1.196   9.929  0.4551  0.3636 -1.1693
  145SAPE   H2Y15939   2.245   1.359   9.949  0.6464 -0.4599 -1.7264
  145SAPE   C2315940   1.876   1.687  10.195  1.2454 -0.1450 -0.9557
  145SAPE   H3R15941   1.775   1.731  10.182  0.7094 -1.7484 -2.3094
  145SAPE   H3S15942   1.858   1.585  10.157 -0.4442 -0.5039  0.7487
  145SAPE   C2415943   1.964   1.767  10.100  0.4268  0.0592  0.7091
  145SAPE   H4R15944   2.011   1.857  10.145  1.8670 -1.0088  1.4103
  145SAPE   H4S15945   1.908   1.790  10.007 -0.3597  1.4785  1.5367
  145SAPE   C2515946   2.092   1.704  10.056 -0.4886  0.6369 -0.1129
  145SAPE   H5R15947   2.133   1.634  10.130 -1.9661  0.1727  0.2627
  145SAPE   C2615948   2.154   1.739   9.940  0.1359 -0.2562  0.6855
  145SAPE   H6R15949   2.245   1.683   9.914 -1.4497 -2.9727  0.8124
  145SAPE   C2715950   2.108   1.854   9.853 -0.8774  0.0100  0.8751
  145SAPE   H7R15951   2.056   1.935   9.908 -2.2097  0.0046 -0.3520
  145SAPE   H7S15952   2.031   1.812   9.786  0.3936 -0.7345 -0.1474
  145SAPE   C2815953   2.224   1.908   9.777 -0.0013  0.4929 -0.1203
  145SAPE   H8R15954   2.310   1.945   9.835  0.8988 -2.3998  0.5017
  145SAPE   C2915955   2.242   1.915   9.641 -0.0585  0.4212  0.0894
  145SAPE   H9R15956   2.331   1.964   9.599 -1.0922  0.6193 -1.9382
  145SAPE  C21015957   2.153   1.866   9.526 -0.3540 -0.1331  0.3129
  145SAPE  H10R15958   2.048   1.883   9.558 -0.0209 -0.2803  1.5033
  145SAPE  H10S15959   2.171   1.756   9.524  1.8715  0.2331 -0.4541
  145SAPE  C21115960   2.184   1.949   9.401 -0.1446 -0.2354 -1.1902
  145SAPE  H11R15961   2.142   2.050   9.411 -3.5421 -1.8458  1.8274
  145SAPE  C21215962   2.224   1.906   9.278  0.5348  0.6814  0.9313
  145SAPE  H12R15963   2.250   1.990   9.212  0.6250 -1.6399 -2.1264
  145SAPE  C21315964   2.260   1.767   9.238  0.4635 -0.3727 -0.3588
  145SAPE  H13R15965   2.233   1.688   9.311 -0.8577 -1.7638 -2.3163
  145SAPE  H13S15966   2.369   1.777   9.258 -0.0453 -0.2183  2.5307
  145SAPE  C21415967   2.222   1.746   9.096 -0.3400  0.0744 -0.0667
  145SAPE  H14R15968   2.122   1.702   9.084 -0.2082 -0.3054  0.2070
  145SAPE  C21515969   2.300   1.763   8.983  0.2984  0.3642 -0.5406
  145SAPE  H15R15970   2.261   1.742   8.883 -2.4066  2.6627 -0.0561
  145SAPE  C21615971   2.441   1.823   8.985 -0.1746  0.4422 -0.1707
  145SAPE  H16R15972   2.463   1.887   9.073  1.7571 -0.8146  0.2924
  145SAPE  H16S15973   2.449   1.889   8.897  3.0029 -0.8920 -0.9441
  145SAPE  C21715974   2.538   1.707   8.972  0.1727 -0.7145  0.0667
  145SAPE  H17R15975   2.531   1.629   9.051 -1.7601  1.4473  2.0947
  145SAPE  H17S15976   2.643   1.734   8.994  0.8032 -2.7151 -0.3413
  145SAPE  C21815977   2.549   1.629   8.840  0.4518  0.4899 -0.2055
  145SAPE  H18R15978   2.549   1.696   8.751 -0.4154  2.3549  1.1565
  145SAPE  H18S15979   2.467   1.554   8.833 -0.3369  1.4771 -1.9222
  145SAPE  C21915980   2.679   1.549   8.818  0.7239 -0.5759  0.1893
  145SAPE  H19R15981   2.717   1.513   8.916 -0.6888 -0.3672  0.8228
  145SAPE  H19S15982   2.751   1.621   8.774 -0.1754  0.4750  0.4160
  145SAPE  C22015983   2.667   1.432   8.715  0.0706  0.3543 -0.1273
  145SAPE  H20R15984   2.761   1.373   8.709  0.8173  1.7318 -2.3822
  145SAPE  H20S15985   2.638   1.472   8.616  0.7561 -1.5503 -1.1239
  145SAPE  H20T15986   2.583   1.368   8.752  1.0491 -0.0629  1.4520
  145SAPE   C3315987   2.051   1.351   9.834 -0.2506 -0.1835 -0.1331
  145SAPE   H3X15988   2.009   1.450   9.861 -0.1110 -0.1467 -0.0529
  145SAPE   H3Y15989   1.968   1.279   9.818  0.9155 -1.8726  1.2071
  145SAPE   C3415990   2.120   1.374   9.700  0.0306 -0.0922  0.5408
  145SAPE   H4X15991   2.111   1.276   9.648 -3.6998  0.2038  0.4735
  145SAPE   H4Y15992   2.228   1.401   9.701 -0.0859  0.3975  0.1336
  145SAPE   C3515993   2.047   1.475   9.621 -0.3336 -0.4411 -0.1367
  145SAPE   H5X15994   2.040   1.573   9.671  0.4400 -0.6521  0.3862
  145SAPE   H5Y15995   1.941   1.442   9.612 -0.0257 -1.0514 -1.7490
  145SAPE   C3615996   2.107   1.492   9.483  0.0518  0.2303  0.4360
  145SAPE   H6X15997   2.202   1.548   9.499  0.2366 -0.3046  1.1786
  145SAPE   H6Y15998   2.048   1.560   9.418 -0.2357 -0.1890  0.2575
  145SAPE   C3715999   2.127   1.361   9.390  0.2721 -0.2100  0.1534
  145SAPE   H7X16000   2.201   1.296   9.442  0.9617  0.1680 -0.3561
  145SAPE   H7Y16001   2.181   1.399   9.301 -0.3106  1.3309  0.4437
  145SAPE   C3816002   1.991   1.307   9.347  0.2207  0.5074  0.5036
  145SAPE   H8X16003   1.934   1.400   9.327  0.3074  0.5390  0.3989
  145SAPE   H8Y16004   1.954   1.253   9.437 -1.6896 -0.6778 -0.9480
  145SAPE   C3916005   2.000   1.218   9.227 -0.4606 -0.1348 -0.3675
  145SAPE   H9X16006   2.079   1.140   9.228 -1.0583 -0.7776  2.8909
  145SAPE   H9Y16007   2.010   1.273   9.131  2.1432  0.4567  0.1919
  145SAPE  C31016008   1.865   1.151   9.207 -0.4499  0.0648  0.6000
  145SAPE  H10X16009   1.789   1.223   9.169 -0.0408  0.7204  1.0241
  145SAPE  H10Y16010   1.812   1.112   9.297 -1.9575 -1.5934 -0.9552
  145SAPE  C31116011   1.875   1.023   9.124 -0.1592 -0.2019  0.2252
  145SAPE  H11X16012   1.922   0.934   9.172  1.0367  0.2271 -0.1548
  145SAPE  H11Y16013   1.940   1.030   9.034 -0.2137 -1.1714  0.0984
  145SAPE  C31216014   1.728   0.977   9.089 -0.4374  0.0834 -0.5213
  145SAPE  H12X16015   1.672   1.063   9.047 -0.0210  0.0530 -1.1524
  145SAPE  H12Y16016   1.680   0.950   9.185 -0.0756 -0.0451 -0.3744
  145SAPE  C31316017   1.739   0.863   8.990 -0.2101  0.0986 -0.3062
  145SAPE  H13X16018   1.645   0.804   8.995  0.0740 -0.2622  0.9851
  145SAPE  H13Y16019   1.825   0.797   9.015  1.7587  3.2078  1.4542
  145SAPE  C31416020   1.749   0.909   8.845  0.0326  0.2106  0.2356
  145SAPE  H14X16021   1.843   0.965   8.828  0.1512 -0.6809 -2.3504
  145SAPE  H14Y16022   1.660   0.965   8.809 -1.0551 -1.3383  0.4495
  145SAPE  C31516023   1.781   0.791   8.743  0.0182  0.3785 -0.0314
  145SAPE  H15X16024   1.712   0.704   8.752 -0.1330  0.4330 -0.6350
  145SAPE  H15Y16025   1.873   0.738   8.775 -0.2792 -0.0313  0.1537
  145SAPE  C31616026   1.780   0.839   8.601  0.7647 -1.0051 -1.0112
  145SAPE  H16X16027   1.844   0.929   8.583 -2.6069  1.6013 -0.4299
  145SAPE  H16Y16028   1.686   0.886   8.567  0.7763 -0.0641  0.2319
  145SAPE  C31716029   1.825   0.721   8.505  0.2162 -0.0678  0.5314
  145SAPE  H17X16030   1.840   0.767   8.405  0.1220 -1.2074 -0.0125
  145SAPE  H17Y16031   1.744   0.647   8.490 -0.7097  1.1629 -0.6459
  145SAPE  C31816032   1.954   0.647   8.544 -0.9368  0.0476  0.7011
  145SAPE  H18X16033   1.975   0.575   8.462 -1.8003  0.1643  0.3772
  145SAPE  H18Y16034   1.960   0.595   8.642  1.4460  0.9938  1.0880
  145SAPE  H18Z16035   2.045   0.710   8.534  0.0734 -1.4875  0.0107
  146SAPE     N16036   1.637   2.390  10.518 -0.1501  0.0081 -0.5978
  146SAPE   HN116037   1.718   2.344  10.472 -1.2383  0.3087 -2.8442
  146SAPE   HN216038   1.615   2.332  10.602 -0.2002  0.5814 -0.2113
  146SAPE   HN316039   1.556   2.369  10.456 -0.4779  0.0822 -0.2029
  146SAPE   C1216040   1.643   2.540  10.535  0.6640 -0.5216  0.4958
  146SAPE  H12A16041   1.653   2.576  10.430  1.3758 -1.3963  0.2626
  146SAPE  H12B16042   1.735   2.572  10.588  0.4779 -1.1006  1.1691
  146SAPE   C1116043   1.521   2.596  10.607 -0.1807  0.1428  0.6759
  146SAPE  H11A16044   1.517   2.705  10.588  1.0783 -0.0289 -0.6198
  146SAPE  H11B16045   1.538   2.578  10.716  3.2112  0.4463  0.2271
  146SAPE     P16046   1.268   2.560  10.617  0.4830  0.0046 -0.2686
  146SAPE   O1316047   1.211   2.430  10.651  0.3313 -0.3891 -0.3666
  146SAPE   O1416048   1.291   2.657  10.728  1.0329 -0.1415  0.2896
  146SAPE   O1216049   1.406   2.532  10.553 -0.0732  0.6192 -0.5183
  146SAPE   O1116050   1.186   2.643  10.505  0.0780  0.1604  0.2058
  146SAPE    C116051   1.238   2.727  10.408 -0.1955 -0.6340 -0.1327
  146SAPE    HA16052   1.297   2.809  10.453 -0.3925  0.1392 -1.2569
  146SAPE    HB16053   1.299   2.668  10.336  2.6627  0.2037  1.4805
  146SAPE    C216054   1.121   2.799  10.336 -0.1693 -0.7220  0.3144
  146SAPE    HS16055   1.054   2.841  10.414  1.4561 -0.1883  1.4709
  146SAPE   O2116056   1.050   2.712  10.248 -0.0355 -0.3960 -0.0708
  146SAPE   C2116057   0.918   2.731  10.247 -0.0477 -0.0549  0.1823
  146SAPE   O2216058   0.858   2.807  10.319 -0.2659  0.0131 -0.0683
  146SAPE   C2216059   0.858   2.646  10.129  0.2446  0.4427 -0.4615
  146SAPE   H2R16060   0.911   2.549  10.123  0.2964  0.3764  0.7846
  146SAPE   H2S16061   0.750   2.633  10.155  0.3984 -0.0422 -0.0473
  146SAPE    C316062   1.165   2.928  10.259 -0.3551  0.1919  0.0563
  146SAPE    HX16063   1.203   2.995  10.339 -0.1506  0.9583 -0.6741
  146SAPE    HY16064   1.070   2.977  10.228 -1.1784 -0.8827  0.8620
  146SAPE   O3116065   1.255   2.912  10.144  0.1814  0.2510  0.4945
  146SAPE   C3116066   1.386   2.914  10.158 -0.6228  0.1928  0.3974
  146SAPE   O3216067   1.446   2.963  10.251 -0.8322  0.2207  0.3689
  146SAPE   C3216068   1.444   2.885  10.015  0.6322  0.0758  0.6774
  146SAPE   H2X16069   1.365   2.860   9.940  0.7320 -2.1643  1.2606
  146SAPE   H2Y16070   1.491   2.785  10.028 -0.5131 -0.2832  2.2233
  146SAPE   C2316071   0.872   2.711   9.994 -0.3268 -0.1806 -1.0564
  146SAPE   H3R16072   0.837   2.816  10.002 -3.8606 -1.2776 -1.2709
  146SAPE   H3S16073   0.797   2.665   9.926 -2.6524 -0.4984  1.6250
  146SAPE   C2416074   1.017   2.704   9.945 -0.0433  0.3384  0.1357
  146SAPE   H4R16075   1.055   2.602   9.967  0.6546  0.1005 -2.0654
  146SAPE   H4S16076   1.077   2.769  10.013  0.2573 -1.1765  1.3595
  146SAPE   C2516077   1.029   2.754   9.803 -0.0442 -0.4822 -0.1379
  146SAPE   H5R16078   0.969   2.844   9.781  0.1507 -0.5484 -0.9447
  146SAPE   C2616079   1.104   2.695   9.708  0.4045 -0.1086  0.3778
  146SAPE   H6R16080   1.091   2.732   9.606  2.4911 -2.1842 -0.6578
  146SAPE   C2716081   1.190   2.565   9.714 -0.3055  0.7011 -0.3881
  146SAPE   H7R16082   1.212   2.523   9.614  0.6104 -0.3280  0.2265
  146SAPE   H7S16083   1.132   2.490   9.772  0.5486  0.0988 -0.3027
  146SAPE   C2816084   1.309   2.587   9.802 -0.1407  0.0513 -0.2183
  146SAPE   H8R16085   1.286   2.639   9.896 -1.0896  2.3779 -1.6795
  146SAPE   C2916086   1.437   2.545   9.786  0.5164  0.0354 -0.0237
  146SAPE   H9R16087   1.517   2.558   9.862  0.0616  1.0763  0.2842
  146SAPE  C21016088   1.490   2.471   9.668 -0.4501  0.0858 -0.8920
  146SAPE  H10R16089   1.457   2.526   9.577 -0.0406 -0.1696 -1.1935
  146SAPE  H10S16090   1.450   2.368   9.660 -1.1987 -0.0484  3.4373
  146SAPE  C21116091   1.642   2.458   9.664  0.2619  0.2481 -0.2756
  146SAPE  H11R16092   1.683   2.456   9.766  0.3291  1.6436 -0.2585
  146SAPE  C21216093   1.717   2.447   9.550  0.2387  0.0286 -0.2513
  146SAPE  H12R16094   1.826   2.435   9.561  0.3399  1.8984  1.0338
  146SAPE  C21316095   1.659   2.449   9.410 -0.4192  0.6512  0.0068
  146SAPE  H13R16096   1.560   2.398   9.415 -0.5433  0.8029 -0.8050
  146SAPE  H13S16097   1.726   2.382   9.351 -1.4061 -0.1671 -0.2108
  146SAPE  C21416098   1.648   2.593   9.350 -0.5528  0.2416 -0.2354
  146SAPE  H14R16099   1.752   2.631   9.350 -0.0779 -1.0225 -0.0624
  146SAPE  C21516100   1.537   2.659   9.297 -0.9134 -0.1391 -0.4715
  146SAPE  H15R16101   1.537   2.764   9.265  0.0161 -0.0712 -0.2681
  146SAPE  C21616102   1.399   2.599   9.285  0.3028  0.0328  0.4572
  146SAPE  H16R16103   1.331   2.634   9.366 -0.3383  0.7315 -0.3794
  146SAPE  H16S16104   1.395   2.490   9.304 -1.6024  0.0726  0.4136
  146SAPE  C21716105   1.342   2.606   9.145 -0.5629  0.2821 -0.4867
  146SAPE  H17R16106   1.333   2.708   9.102 -0.4154  0.1823 -0.7560
  146SAPE  H17S16107   1.238   2.568   9.145  0.3251 -2.2730 -0.3953
  146SAPE  C21816108   1.418   2.517   9.042  0.4549  0.4653 -0.5887
  146SAPE  H18R16109   1.432   2.421   9.096  0.8402  0.9852  0.2444
  146SAPE  H18S16110   1.517   2.560   9.018 -0.5767  1.6758 -2.8062
  146SAPE  C21916111   1.347   2.480   8.904 -0.3375 -0.3485 -0.0335
  146SAPE  H19R16112   1.262   2.412   8.928 -1.4316  0.9686 -0.0708
  146SAPE  H19S16113   1.426   2.440   8.837  0.4585 -0.7762  1.1610
  146SAPE  C22016114   1.294   2.598   8.827  0.0379 -0.3406  0.5892
  146SAPE  H20R16115   1.379   2.657   8.787  0.0390 -2.4397 -2.6747
  146SAPE  H20S16116   1.241   2.673   8.889  0.8942 -0.1958  1.1677
  146SAPE  H20T16117   1.237   2.565   8.738 -0.5226 -0.5465  1.0211
  146SAPE   C3316118   1.542   2.990   9.963 -0.7444 -0.1307 -0.1264
  146SAPE   H3X16119   1.627   2.997  10.035 -2.1755  1.3005  1.4591
  146SAPE   H3Y16120   1.492   3.087   9.983 -0.1788 -0.3362  2.4716
  146SAPE   C3416121   1.586   2.969   9.822  0.0825 -0.2134  0.2269
  146SAPE   H4X16122   1.624   2.867   9.803  1.0092  0.6582 -2.8445
  146SAPE   H4Y16123   1.671   3.039   9.811 -0.1660 -0.0463 -0.6398
  146SAPE   C3516124   1.475   2.999   9.714  0.3313 -0.2565  0.4379
  146SAPE   H5X16125   1.449   3.107   9.724  2.4648  0.2182  1.2248
  146SAPE   H5Y16126   1.392   2.929   9.736 -0.1769 -0.0192 -0.7112
  146SAPE   C3616127   1.527   2.971   9.569  0.2027  0.0597  0.3830
  146SAPE   H6X16128   1.442   2.994   9.500  0.1646  2.1886  1.0882
  146SAPE   H6Y16129   1.545   2.862   9.561 -2.5583 -0.2199 -3.1575
  146SAPE   C3716130   1.658   3.044   9.539  0.5446 -0.0694 -0.7263
  146SAPE   H7X16131   1.739   2.988   9.589 -0.1762  0.2823  0.8673
  146SAPE   H7Y16132   1.641   3.151   9.566 -1.8331 -0.3801 -0.8384
  146SAPE   C3816133   1.693   3.044   9.387  0.1649 -1.2575  1.1541
  146SAPE   H8X16134   1.690   2.939   9.351 -0.5467 -1.0366  0.5505
  146SAPE   H8Y16135   1.798   3.078   9.370 -0.4490 -1.0710 -2.7977
  146SAPE   C3916136   1.598   3.137   9.299 -0.4081  0.0100 -0.0051
  146SAPE   H9X16137   1.595   3.233   9.356  0.4019 -0.5363  0.9634
  146SAPE   H9Y16138   1.494   3.100   9.310 -0.9822  1.5302 -0.1159
  146SAPE  C31016139   1.628   3.152   9.154  0.2304 -0.2684  0.4314
  146SAPE  H10X16140   1.731   3.194   9.147 -0.5123  1.4775 -0.0854
  146SAPE  H10Y16141   1.554   3.219   9.106  0.3713 -1.9423 -2.2533
  146SAPE  C31116142   1.635   3.016   9.086 -0.0973  0.0998 -0.1285
  146SAPE  H11X16143   1.554   2.948   9.120  0.6612  0.3280  2.1915
  146SAPE  H11Y16144   1.727   2.968   9.123  0.5604  0.0151 -1.8140
  146SAPE  C31216145   1.642   3.017   8.934 -0.8192  0.6818  0.0896
  146SAPE  H12X16146   1.719   3.092   8.906  0.8134 -1.0089 -0.0513
  146SAPE  H12Y16147   1.539   3.043   8.901  0.0091  2.1338 -1.4851
  146SAPE  C31316148   1.678   2.884   8.868 -0.2079 -0.9615  0.7619
  146SAPE  H13X16149   1.605   2.807   8.902  0.7277 -1.7122  1.0950
  146SAPE  H13Y16150   1.780   2.854   8.901  2.0410  0.7905 -4.0990
  146SAPE  C31416151   1.702   2.910   8.718 -0.9735  0.0132  0.0871
  146SAPE  H14X16152   1.753   3.008   8.703  0.8700 -0.7357  1.2686
  146SAPE  H14Y16153   1.602   2.911   8.669 -0.2442  3.8718 -1.5284
  146SAPE  C31516154   1.779   2.784   8.664  0.2816 -0.1997  0.4465
  146SAPE  H15X16155   1.719   2.694   8.687  0.2739 -0.6153 -1.1350
  146SAPE  H15Y16156   1.880   2.768   8.710 -0.1651 -0.6486  1.2893
  146SAPE  C31616157   1.798   2.781   8.511  0.0391  0.5103 -0.0648
  146SAPE  H16X16158   1.852   2.876   8.490  0.0117  0.5453  0.0249
  146SAPE  H16Y16159   1.698   2.776   8.461 -0.4599 -0.9608  1.0477
  146SAPE  C31716160   1.888   2.668   8.465 -0.4489  0.2851  0.0590
  146SAPE  H17X16161   1.853   2.567   8.494  0.6192 -0.3235 -0.7229
  146SAPE  H17Y16162   1.980   2.670   8.527  0.2022 -0.8586 -0.8483
  146SAPE  C31816163   1.932   2.673   8.323  0.0988 -0.1592 -0.9377
  146SAPE  H18X16164   1.845   2.683   8.255 -1.1520 -1.0712  0.5016
  146SAPE  H18Y16165   1.984   2.582   8.286  0.1963 -0.4253 -0.1573
  146SAPE  H18Z16166   2.000   2.759   8.308  0.4655 -0.2573  0.1074
  147SAPE     N16167   1.818   5.189  10.799  0.2276 -0.0273 -0.3352
  147SAPE   HN116168   1.843   5.164  10.701  3.1697 -0.9339  0.5924
  147SAPE   HN216169   1.767   5.279  10.790  1.3598  0.8191  1.4572
  147SAPE   HN316170   1.904   5.210  10.853 -1.9779  0.7339  3.0114
  147SAPE   C1216171   1.734   5.079  10.855  0.3271 -0.3369  0.4422
  147SAPE  H12A16172   1.639   5.078  10.797  0.5517 -0.6293  0.0785
  147SAPE  H12B16173   1.722   5.086  10.965 -0.6528  0.6172  0.2821
  147SAPE   C1116174   1.802   4.942  10.821 -0.6602 -0.2128 -0.3259
  147SAPE  H11A16175   1.822   4.941  10.711  2.4720 -0.3088  0.2060
  147SAPE  H11B16176   1.736   4.862  10.861  0.6998 -0.8786  0.5932
  147SAPE     P16177   2.046   4.845  10.860  0.4786  0.0994  0.0942
  147SAPE   O1316178   2.174   4.915  10.888  0.6775 -0.1914 -0.0634
  147SAPE   O1416179   2.028   4.721  10.933 -0.4281 -0.7563  0.0604
  147SAPE   O1216180   1.918   4.932  10.898 -0.5593 -0.1969 -0.9894
  147SAPE   O1116181   2.027   4.811  10.708  0.3039  0.1132  0.0098
  147SAPE    C116182   2.088   4.693  10.652 -1.0643  0.2857 -0.8830
  147SAPE    HA16183   2.071   4.593  10.697  0.4058  0.4013 -0.0254
  147SAPE    HB16184   2.054   4.693  10.546  1.6968  1.6017 -1.8210
  147SAPE    C216185   2.248   4.693  10.642 -0.5424  0.4413 -0.5163
  147SAPE    HS16186   2.293   4.703  10.743 -1.4343  0.9130 -0.1567
  147SAPE   O2116187   2.293   4.798  10.560  0.2279 -0.4120  0.4194
  147SAPE   C2116188   2.420   4.823  10.555  0.3109  0.6675 -0.3255
  147SAPE   O2216189   2.500   4.769  10.631 -0.1607  0.1027  0.1976
  147SAPE   C2216190   2.449   4.938  10.464 -0.4522 -0.3970  0.2880
  147SAPE   H2R16191   2.492   4.892  10.372 -1.8355  3.1121 -2.2026
  147SAPE   H2S16192   2.350   4.983  10.446  0.9981  2.2560 -1.4254
  147SAPE    C316193   2.292   4.547  10.591  0.1594 -0.0335  0.3951
  147SAPE    HX16194   2.259   4.472  10.665  1.1908 -0.6279  0.2662
  147SAPE    HY16195   2.403   4.542  10.597  0.3655  0.2988 -2.3085
  147SAPE   O3116196   2.245   4.497  10.461  0.2919  0.0729 -0.2327
  147SAPE   C3116197   2.317   4.539  10.362 -0.2841 -0.6295 -0.2718
  147SAPE   O3216198   2.411   4.613  10.373 -0.0480  0.0921 -0.0166
  147SAPE   C3216199   2.264   4.471  10.235 -0.1828  0.1510  0.4066
  147SAPE   H2X16200   2.159   4.506  10.226 -0.8453 -2.2027 -1.7678
  147SAPE   H2Y16201   2.279   4.361  10.247  0.2315  0.1085 -0.5096
  147SAPE   C2316202   2.548   5.050  10.524  0.0294  0.0249  0.2941
  147SAPE   H3R16203   2.645   4.997  10.534  0.2977  0.4196 -0.1519
  147SAPE   H3S16204   2.512   5.073  10.626 -0.7685  1.6929 -0.3392
  147SAPE   C2416205   2.546   5.175  10.433  0.4304  0.5098 -0.1229
  147SAPE   H4R16206   2.636   5.226  10.472 -0.6015  1.3460  1.2084
  147SAPE   H4S16207   2.460   5.236  10.467 -0.7184  0.1350 -2.2061
  147SAPE   C2516208   2.550   5.148  10.286  0.8888  0.4924 -0.7202
  147SAPE   H5R16209   2.456   5.134  10.231  1.8008 -2.0433 -1.7370
  147SAPE   C2616210   2.660   5.145  10.209  0.8047  0.1239 -0.9065
  147SAPE   H6R16211   2.650   5.111  10.105  2.0306  0.0256 -0.9993
  147SAPE   C2716212   2.804   5.153  10.248 -0.5263 -0.7061  0.3560
  147SAPE   H7R16213   2.865   5.120  10.161 -1.5855  1.8032 -1.4219
  147SAPE   H7S16214   2.814   5.079  10.330 -2.1426  1.0900  2.2160
  147SAPE   C2816215   2.851   5.292  10.291  0.3905  0.2011  0.1783
  147SAPE   H8R16216   2.823   5.308  10.396 -0.2153 -0.4281  0.1221
  147SAPE   C2916217   2.904   5.388  10.219 -0.6974 -0.3621  0.9766
  147SAPE   H9R16218   2.917   5.483  10.273  0.2851  0.0325  0.0449
  147SAPE  C21016219   2.942   5.391  10.071 -0.5577 -0.5822  0.4329
  147SAPE  H10R16220   2.931   5.292  10.023 -3.1407 -0.7363  1.2629
  147SAPE  H10S16221   3.047   5.427  10.062  0.0827 -2.1453  1.5105
  147SAPE  C21116222   2.854   5.486   9.991 -0.1285 -0.1634 -0.8562
  147SAPE  H11R16223   2.852   5.592  10.021  1.6665  0.3501 -2.4423
  147SAPE  C21216224   2.791   5.452   9.872 -0.2454 -0.4217  0.2902
  147SAPE  H12R16225   2.711   5.523   9.844 -0.4702  0.5214  3.1779
  147SAPE  C21316226   2.793   5.320   9.797  0.1959 -0.1667  0.5055
  147SAPE  H13R16227   2.874   5.251   9.828  0.6530 -0.2367 -0.8137
  147SAPE  H13S16228   2.813   5.330   9.688 -0.2837  1.5349  0.5708
  147SAPE  C21416229   2.658   5.240   9.810 -0.1023 -0.5627 -0.4363
  147SAPE  H14R16230   2.646   5.202   9.913 -0.2954  1.2365  0.2317
  147SAPE  C21516231   2.559   5.216   9.727  0.6117 -0.6195  0.4190
  147SAPE  H15R16232   2.478   5.147   9.757  0.1068  0.4794  1.6280
  147SAPE  C21616233   2.536   5.260   9.582 -0.0184  0.3913 -0.8129
  147SAPE  H16R16234   2.443   5.216   9.541  0.9177 -1.7876 -0.6555
  147SAPE  H16S16235   2.614   5.217   9.516  0.4393  1.3850 -0.9360
  147SAPE  C21716236   2.534   5.410   9.569  0.4439  0.3117 -0.0995
  147SAPE  H17R16237   2.637   5.448   9.586 -0.0540  1.3938  0.5771
  147SAPE  H17S16238   2.473   5.461   9.647 -2.8744 -0.4963 -2.0556
  147SAPE  C21816239   2.512   5.458   9.421  0.5944  0.3280 -0.5061
  147SAPE  H18R16240   2.560   5.380   9.357 -0.9230 -0.0171 -1.2386
  147SAPE  H18S16241   2.563   5.556   9.409 -1.6637  1.6628  0.6749
  147SAPE  C21916242   2.363   5.480   9.373 -0.1972 -0.3079 -0.4541
  147SAPE  H19R16243   2.325   5.572   9.423  0.5336  0.3582 -1.0980
  147SAPE  H19S16244   2.305   5.391   9.407 -1.3216 -0.0825 -1.7308
  147SAPE  C22016245   2.357   5.519   9.226 -0.5479 -0.1305 -0.0331
  147SAPE  H20R16246   2.388   5.620   9.192 -1.7486  0.8488  1.6868
  147SAPE  H20S16247   2.255   5.494   9.188 -0.8715 -1.3762  1.5878
  147SAPE  H20T16248   2.427   5.447   9.178  0.5598  1.2963 -0.5620
  147SAPE   C3316249   2.353   4.509  10.117 -0.2665  0.1864  0.1370
  147SAPE   H3X16250   2.460   4.482  10.134  0.5470  1.8493 -2.0637
  147SAPE   H3Y16251   2.346   4.619  10.102 -1.2932 -0.0259 -1.0505
  147SAPE   C3416252   2.297   4.446   9.988  0.2434  0.3746 -0.0763
  147SAPE   H4X16253   2.189   4.474   9.978  0.0044 -0.2968  0.5961
  147SAPE   H4Y16254   2.283   4.336   9.989 -4.1708  0.8413  0.2344
  147SAPE   C3516255   2.382   4.496   9.874  0.2344 -0.0866 -0.3479
  147SAPE   H5X16256   2.491   4.479   9.890  0.2903 -0.1692 -0.7939
  147SAPE   H5Y16257   2.371   4.607   9.872 -0.7511 -0.1528  1.0798
  147SAPE   C3616258   2.334   4.446   9.740 -0.3063  0.0929 -0.6382
  147SAPE   H6X16259   2.226   4.470   9.736  0.0419  1.6079 -1.6478
  147SAPE   H6Y16260   2.350   4.336   9.734 -0.0100  0.2042 -2.1433
  147SAPE   C3716261   2.406   4.509   9.620  0.4967  0.1489 -0.3768
  147SAPE   H7X16262   2.509   4.468   9.633  0.4043  0.3983  1.2195
  147SAPE   H7Y16263   2.410   4.619   9.632  0.7704  0.0668  0.3311
  147SAPE   C3816264   2.351   4.479   9.485  0.7491  0.2530 -0.4304
  147SAPE   H8X16265   2.253   4.531   9.483 -0.0048 -1.1367 -0.9588
  147SAPE   H8Y16266   2.335   4.369   9.485  0.1013  0.3062  2.5562
  147SAPE   C3916267   2.448   4.514   9.372 -0.4888 -0.0136  1.1906
  147SAPE   H9X16268   2.541   4.453   9.368 -0.1464  0.6295 -1.6025
  147SAPE   H9Y16269   2.483   4.619   9.382 -1.8195  0.5747 -0.1027
  147SAPE  C31016270   2.391   4.498   9.230  0.3399 -0.2132 -0.5327
  147SAPE  H10X16271   2.296   4.556   9.220  0.6892  0.1441 -1.9117
  147SAPE  H10Y16272   2.363   4.391   9.225 -1.9220  0.4069 -1.8071
  147SAPE  C31116273   2.499   4.536   9.125 -0.1083 -0.3172 -0.3380
  147SAPE  H11X16274   2.576   4.606   9.163 -1.5985  0.5186  1.1927
  147SAPE  H11Y16275   2.443   4.592   9.047  0.8131 -1.1318 -1.6178
  147SAPE  C31216276   2.562   4.412   9.053  0.2190 -0.5370 -0.1006
  147SAPE  H12X16277   2.486   4.333   9.039 -0.7228  0.5947 -1.5020
  147SAPE  H12Y16278   2.633   4.366   9.125 -0.3386  1.2484  1.6641
  147SAPE  C31316279   2.618   4.440   8.915 -0.9520  0.0882 -0.4077
  147SAPE  H13X16280   2.667   4.538   8.897  0.1536 -0.0240  1.8633
  147SAPE  H13Y16281   2.527   4.447   8.852 -1.7810  1.7706  0.9360
  147SAPE  C31416282   2.716   4.334   8.859 -0.2062 -0.0267 -0.4307
  147SAPE  H14X16283   2.687   4.229   8.882 -1.5208  0.9743  2.7650
  147SAPE  H14Y16284   2.816   4.340   8.908 -0.7709  1.1635  0.6148
  147SAPE  C31516285   2.738   4.345   8.706  0.0546  0.1222 -0.1555
  147SAPE  H15X16286   2.779   4.445   8.682  0.6980 -0.4620 -1.5512
  147SAPE  H15Y16287   2.638   4.334   8.659  0.6272 -0.2471 -1.3123
  147SAPE  C31616288   2.850   4.240   8.654  0.0011 -0.3442  0.3522
  147SAPE  H16X16289   2.827   4.144   8.706 -1.7054  0.8553  1.8924
  147SAPE  H16Y16290   2.949   4.264   8.700 -0.2578  2.2073 -0.3773
  147SAPE  C31716291   2.848   4.219   8.503 -0.0213  0.1911 -0.6366
  147SAPE  H17X16292   2.939   4.162   8.474  1.3458  2.8991 -1.8695
  147SAPE  H17Y16293   2.859   4.320   8.457  0.7046  0.8697  0.9870
  147SAPE  C31816294   2.723   4.148   8.450  0.2289  0.0759 -0.0095
  147SAPE  H18X16295   2.631   4.209   8.464  0.4756  0.5832 -0.5501
  147SAPE  H18Y16296   2.711   4.048   8.497  0.6491  0.7720  1.6321
  147SAPE  H18Z16297   2.723   4.136   8.340  0.7319 -2.3789  0.2330
  148SAPE     N16298   4.383   0.552  10.635 -0.1590 -0.4098  0.0747
  148SAPE   HN116299   4.432   0.501  10.559  0.5719  1.1221 -0.4967
  148SAPE   HN216300   4.456   0.614  10.676 -1.5648  2.5527 -1.6817
  148SAPE   HN316301   4.351   0.496  10.716 -0.0017  0.1356  0.5216
  148SAPE   C1216302   4.268   0.622  10.573 -0.4487  0.1228 -0.1373
  148SAPE  H12A16303   4.300   0.713  10.519 -1.4714  1.2780  1.1775
  148SAPE  H12B16304   4.201   0.657  10.654 -0.9051 -2.7042  0.7836
  148SAPE   C1116305   4.192   0.523  10.476 -0.3122 -0.3228  0.4575
  148SAPE  H11A16306   4.265   0.498  10.397  1.6179  1.2243  1.6946
  148SAPE  H11B16307   4.102   0.577  10.438  1.1102  1.5948 -0.2791
  148SAPE     P16308   4.028   0.351  10.601  0.2725 -0.1883 -0.3764
  148SAPE   O1316309   4.046   0.208  10.630  0.2033  0.1467  0.3788
  148SAPE   O1416310   4.004   0.438  10.718 -0.0438 -0.2650 -0.4471
  148SAPE   O1216311   4.170   0.395  10.542 -0.2857  0.2217  0.1468
  148SAPE   O1116312   3.922   0.375  10.487  0.2850  0.4348  0.3594
  148SAPE    C116313   3.903   0.281  10.385  0.3059 -0.8183 -0.3862
  148SAPE    HA16314   3.986   0.209  10.367 -1.6856 -2.6884 -2.4984
  148SAPE    HB16315   3.812   0.223  10.413  0.0091 -0.5212 -0.7302
  148SAPE    C216316   3.856   0.349  10.254 -0.2916 -0.4832 -0.4141
  148SAPE    HS16317   3.805   0.277  10.187 -0.3010 -1.0803  0.2246
  148SAPE   O2116318   3.966   0.411  10.178 -0.5673 -0.0633  0.1632
  148SAPE   C2116319   4.044   0.331  10.100  1.0959 -0.3451  0.4934
  148SAPE   O2216320   4.023   0.207  10.086  0.6422  0.5092  0.0022
  148SAPE   C2216321   4.137   0.408  10.007  0.1999  1.3240 -1.1507
  148SAPE   H2R16322   4.075   0.488   9.962 -1.0295  0.1915 -1.4908
  148SAPE   H2S16323   4.230   0.440  10.060 -0.5859 -2.1018  2.5788
  148SAPE    C316324   3.745   0.453  10.283  0.1063  0.1505  0.0670
  148SAPE    HX16325   3.790   0.536  10.342  1.3573  0.3616 -1.1532
  148SAPE    HY16326   3.665   0.405  10.343  1.2458 -0.7204  0.9372
  148SAPE   O3116327   3.696   0.508  10.163  0.3720  0.0092 -0.1194
  148SAPE   C3116328   3.610   0.425  10.097  0.2131 -1.3590 -0.9297
  148SAPE   O3216329   3.585   0.313  10.130  0.0610  0.1571  0.2387
  148SAPE   C3216330   3.546   0.501   9.983  0.1053 -0.2946 -0.0798
  148SAPE   H2X16331   3.468   0.569  10.023 -2.1685 -2.9280  0.1798
  148SAPE   H2Y16332   3.480   0.429   9.930  1.9513 -2.9504  1.1036
  148SAPE   C2316333   4.179   0.317   9.885  0.2705  0.3771 -0.0562
  148SAPE   H3R16334   4.088   0.270   9.841  0.4340 -1.0334  1.0731
  148SAPE   H3S16335   4.237   0.232   9.927 -2.0680 -0.6809  1.1646
  148SAPE   C2416336   4.254   0.401   9.788  0.4227 -0.1515  0.4917
  148SAPE   H4R16337   4.353   0.438   9.824 -0.3069  1.2341  1.1098
  148SAPE   H4S16338   4.195   0.493   9.767  2.2626  1.5844  2.6879
  148SAPE   C2516339   4.263   0.332   9.655 -0.1656 -0.1329  0.0993
  148SAPE   H5R16340   4.162   0.303   9.621  0.1860  0.0058 -1.0713
  148SAPE   C2616341   4.374   0.295   9.585  0.2135  0.0630 -0.0129
  148SAPE   H6R16342   4.373   0.219   9.506 -0.4172 -0.5771  0.5983
  148SAPE   C2716343   4.516   0.319   9.628 -0.5455  0.2746 -0.5727
  148SAPE   H7R16344   4.525   0.342   9.736  2.1623  0.8868 -0.8958
  148SAPE   H7S16345   4.556   0.408   9.576  0.1769  0.0362 -0.4349
  148SAPE   C2816346   4.614   0.199   9.608  0.5482  0.1584  0.1622
  148SAPE   H8R16347   4.653   0.141   9.693  0.8008 -0.8921 -0.6608
  148SAPE   C2916348   4.671   0.172   9.489  1.0726  0.6760 -0.2204
  148SAPE   H9R16349   4.748   0.094   9.483 -0.8787 -1.3861  0.6823
  148SAPE  C21016350   4.648   0.243   9.357 -0.5588 -0.6949 -0.3693
  148SAPE  H10R16351   4.740   0.259   9.297 -0.8054 -0.7756 -0.7782
  148SAPE  H10S16352   4.610   0.346   9.374 -2.2763 -1.0510 -1.7438
  148SAPE  C21116353   4.547   0.161   9.273  0.3211 -0.0308 -1.1137
  148SAPE  H11R16354   4.547   0.054   9.297 -0.2118  0.3709  0.7909
  148SAPE  C21216355   4.479   0.207   9.174 -0.4591 -0.5081  0.6010
  148SAPE  H12R16356   4.408   0.134   9.134 -0.1738 -1.1452  1.2555
  148SAPE  C21316357   4.486   0.347   9.123 -0.0974 -0.2675  0.0734
  148SAPE  H13R16358   4.585   0.387   9.154 -0.5085 -0.6365  1.9171
  148SAPE  H13S16359   4.412   0.424   9.153 -0.9789 -0.6974 -0.9376
  148SAPE  C21416360   4.503   0.353   8.975  0.0885 -0.2602 -0.8808
  148SAPE  H14R16361   4.608   0.344   8.945 -0.0322  1.3760 -1.8604
  148SAPE  C21516362   4.419   0.358   8.873  0.3477  0.5654  0.1265
  148SAPE  H15R16363   4.466   0.345   8.775  0.0507 -2.1275  0.3049
  148SAPE  C21616364   4.265   0.376   8.872  0.0972 -0.5679 -0.8435
  148SAPE  H16R16365   4.241   0.399   8.978 -1.6384  2.8412 -1.8911
  148SAPE  H16S16366   4.218   0.286   8.827  0.0845 -1.5920  1.1883
  148SAPE  C21716367   4.223   0.491   8.787 -0.7456 -0.3831  0.0812
  148SAPE  H17R16368   4.256   0.585   8.837  2.6786 -1.2858 -0.4013
  148SAPE  H17S16369   4.112   0.485   8.779 -0.7286 -1.1662  0.3486
  148SAPE  C21816370   4.270   0.484   8.638  0.3434 -0.4558  0.7857
  148SAPE  H18R16371   4.271   0.377   8.607 -0.2362 -0.4167  0.6218
  148SAPE  H18S16372   4.369   0.532   8.617 -0.6061  1.3184  0.2780
  148SAPE  C21916373   4.186   0.569   8.529  0.5250 -0.6341 -0.7930
  148SAPE  H19R16374   4.240   0.556   8.433  1.6927  1.1858 -0.4150
  148SAPE  H19S16375   4.191   0.677   8.553 -1.1494 -1.1207  2.0351
  148SAPE  C22016376   4.041   0.524   8.515  0.9059 -0.5533  0.4182
  148SAPE  H20R16377   3.981   0.558   8.603  0.5540  0.7368 -0.2950
  148SAPE  H20S16378   4.043   0.413   8.511 -0.3517 -0.5483 -0.6851
  148SAPE  H20T16379   3.995   0.567   8.423 -1.1900 -1.2829  1.0929
  148SAPE   C3316380   3.638   0.571   9.871  0.4310 -0.6162  0.4930
  148SAPE   H3X16381   3.688   0.663   9.907 -1.0172 -1.3129  4.5827
  148SAPE   H3Y16382   3.560   0.608   9.801 -1.1006  0.4243  2.6590
  148SAPE   C3416383   3.731   0.468   9.803  0.1971  0.1414 -0.6727
  148SAPE   H4X16384   3.678   0.370   9.790  0.9163 -0.3125 -0.2070
  148SAPE   H4Y16385   3.822   0.437   9.858 -1.2826 -0.4674  1.5104
  148SAPE   C3516386   3.791   0.510   9.663 -0.9218  0.4434 -1.0751
  148SAPE   H5X16387   3.851   0.421   9.632  1.4262  1.3222  0.7679
  148SAPE   H5Y16388   3.864   0.591   9.682 -0.2549 -0.6063  1.0424
  148SAPE   C3616389   3.681   0.539   9.563 -0.1877 -0.1241  0.2689
  148SAPE   H6X16390   3.611   0.615   9.605  0.0766  1.0849 -1.4495
  148SAPE   H6Y16391   3.624   0.448   9.531  0.3110 -0.0482 -0.8538
  148SAPE   C3716392   3.738   0.598   9.429 -0.7861 -0.2066  0.2262
  148SAPE   H7X16393   3.794   0.687   9.463  0.2631 -0.7604 -0.0202
  148SAPE   H7Y16394   3.651   0.641   9.375 -0.5452 -0.2803 -0.2260
  148SAPE   C3816395   3.832   0.510   9.348 -0.1482  0.0004  0.1140
  148SAPE   H8X16396   3.786   0.408   9.355 -3.1055  1.2246 -0.4972
  148SAPE   H8Y16397   3.930   0.498   9.398  0.2501  4.3193  0.5495
  148SAPE   C3916398   3.846   0.557   9.203  0.1473 -0.0916 -0.4553
  148SAPE   H9X16399   3.935   0.499   9.170  1.3117  0.9227  0.8627
  148SAPE   H9Y16400   3.877   0.663   9.194 -1.0054  0.4279  1.3812
  148SAPE  C31016401   3.729   0.544   9.117 -0.1943 -0.4481 -0.4767
  148SAPE  H10X16402   3.644   0.604   9.154 -0.5694 -1.2814  0.0096
  148SAPE  H10Y16403   3.707   0.435   9.112 -0.1729 -0.5044  0.5247
  148SAPE  C31116404   3.762   0.566   8.964 -0.6227 -0.6697 -0.1546
  148SAPE  H11X16405   3.835   0.500   8.913  0.7806  3.5749 -3.9271
  148SAPE  H11Y16406   3.799   0.670   8.962 -3.5313  0.4004  0.0649
  148SAPE  C31216407   3.637   0.550   8.884 -0.0094  0.6633 -0.2832
  148SAPE  H12X16408   3.560   0.627   8.903 -0.9932 -0.5262  0.6623
  148SAPE  H12Y16409   3.597   0.447   8.897 -1.2219  0.9647 -1.4835
  148SAPE  C31316410   3.655   0.558   8.727  0.0828 -0.7593  0.7500
  148SAPE  H13X16411   3.557   0.525   8.688  0.8906 -0.4351 -1.6402
  148SAPE  H13Y16412   3.722   0.487   8.673 -0.6244 -1.4714  0.8031
  148SAPE  C31416413   3.670   0.698   8.658 -0.4909  0.1947 -0.7125
  148SAPE  H14X16414   3.750   0.762   8.702 -1.0651  1.1127 -1.0081
  148SAPE  H14Y16415   3.575   0.751   8.674  0.4654  1.6400  0.2832
  148SAPE  C31516416   3.707   0.675   8.516  0.0651 -0.0154  0.2313
  148SAPE  H15X16417   3.616   0.643   8.460 -0.0397  0.6680  0.0028
  148SAPE  H15Y16418   3.775   0.588   8.508  0.3355  0.2457 -0.3815
  148SAPE  C31616419   3.766   0.795   8.438 -0.0112  0.2090 -0.0858
  148SAPE  H16X16420   3.780   0.751   8.336  1.4028  0.6157 -0.0771
  148SAPE  H16Y16421   3.864   0.827   8.480 -0.6520  2.1999 -0.0683
  148SAPE  C31716422   3.677   0.918   8.438  0.2819 -0.2601  0.5086
  148SAPE  H17X16423   3.666   0.954   8.543 -1.1021  1.4089 -0.1772
  148SAPE  H17Y16424   3.578   0.887   8.399  0.9272 -1.3173 -0.3007
  148SAPE  C31816425   3.728   1.035   8.354  0.6318  0.8810 -0.3829
  148SAPE  H18X16426   3.652   1.115   8.348  0.4447  0.6704 -0.8569
  148SAPE  H18Y16427   3.768   0.992   8.259  2.1682 -1.0921  1.1150
  148SAPE  H18Z16428   3.812   1.082   8.410  0.3933  0.3244  0.4460
  149SAPE     N16429   6.722   2.803  10.976  0.2554  0.3034 -0.6393
  149SAPE   HN116430   6.756   2.787  10.879 -0.2958 -1.7978 -0.4895
  149SAPE   HN216431   6.799   2.788  11.044  0.8696  0.2952 -1.3260
  149SAPE   HN316432   6.647   2.735  10.997  1.1423 -0.2564  0.8084
  149SAPE   C1216433   6.661   2.940  10.995 -0.0629 -0.6577  0.2986
  149SAPE  H12A16434   6.751   2.998  10.963  0.0995 -0.6269  0.7972
  149SAPE  H12B16435   6.647   2.952  11.105 -0.7890 -1.1375  0.2595
  149SAPE   C1116436   6.537   2.961  10.914 -0.3471 -0.1906 -0.1535
  149SAPE  H11A16437   6.556   2.957  10.804  0.0720  0.5515 -0.1106
  149SAPE  H11B16438   6.501   3.061  10.946  0.1717 -0.6838  2.0605
  149SAPE     P16439   6.300   2.842  10.913  0.2380 -0.2259 -0.0031
  149SAPE   O1316440   6.236   2.745  11.003  0.2456  0.6262 -0.4281
  149SAPE   O1416441   6.232   2.977  10.899 -0.0956  0.2981  0.4457
  149SAPE   O1216442   6.451   2.855  10.957 -0.3188  0.9740 -0.3012
  149SAPE   O1116443   6.311   2.778  10.766  0.4703  0.2262 -0.0944
  149SAPE    C116444   6.399   2.670  10.736  0.3971 -0.4698 -1.2978
  149SAPE    HA16445   6.502   2.694  10.769 -0.2168  0.1572  0.2148
  149SAPE    HB16446   6.369   2.586  10.802 -4.0234  0.9239 -1.3019
  149SAPE    C216447   6.407   2.636  10.585 -0.2168  0.3433  0.4130
  149SAPE    HS16448   6.440   2.735  10.546  0.6902 -1.0184 -2.3979
  149SAPE   O2116449   6.280   2.597  10.527 -0.3666 -0.5308  0.8245
  149SAPE   C2116450   6.247   2.671  10.422 -0.0204 -0.1495  0.3521
  149SAPE   O2216451   6.317   2.751  10.361 -0.1291 -0.1290 -0.1759
  149SAPE   C2216452   6.113   2.635  10.363  0.1289  0.0826 -0.1202
  149SAPE   H2R16453   6.055   2.648  10.457  0.1748 -1.0200  0.0659
  149SAPE   H2S16454   6.079   2.711  10.289 -1.8235  0.0289  0.6775
  149SAPE    C316455   6.520   2.533  10.549  0.6323  0.6176 -0.3132
  149SAPE    HX16456   6.495   2.437  10.599 -1.2083  1.1170 -0.2067
  149SAPE    HY16457   6.609   2.574  10.601  0.9242 -0.6981  0.2243
  149SAPE   O3116458   6.544   2.522  10.409 -0.0037 -0.0842  0.3187
  149SAPE   C3116459   6.621   2.616  10.351 -0.8090 -0.1436  0.0374
  149SAPE   O3216460   6.687   2.699  10.411 -1.0303  0.1809 -0.3427
  149SAPE   C3216461   6.607   2.611  10.202  0.5766 -0.6322 -0.0672
  149SAPE   H2X16462   6.649   2.704  10.159  2.7724 -0.4909  2.2393
  149SAPE   H2Y16463   6.503   2.620  10.166  0.3168 -1.8650  0.3340
  149SAPE   C2316464   6.112   2.494  10.316 -0.1120  0.0764 -0.1393
  149SAPE   H3R16465   6.012   2.445  10.321  0.1942 -0.6944 -1.3048
  149SAPE   H3S16466   6.171   2.431  10.386  0.1513 -1.0853 -1.3800
  149SAPE   C2416467   6.165   2.468  10.175  0.2891 -0.2889 -0.7348
  149SAPE   H4R16468   6.187   2.359  10.173  0.0876 -0.3375 -0.3505
  149SAPE   H4S16469   6.262   2.522  10.168 -0.8264  1.5421 -2.1003
  149SAPE   C2516470   6.071   2.504  10.064 -0.1558  0.3275  0.4604
  149SAPE   H5R16471   5.970   2.542  10.085 -0.1681  1.0857 -0.9465
  149SAPE   C2616472   6.112   2.494   9.933 -0.5321 -0.6052 -0.0082
  149SAPE   H6R16473   6.035   2.513   9.856 -0.9337 -2.3614 -0.0508
  149SAPE   C2716474   6.245   2.435   9.871 -0.4249 -0.1444 -0.1922
  149SAPE   H7R16475   6.322   2.402   9.944 -0.1267  0.8241 -0.0643
  149SAPE   H7S16476   6.285   2.522   9.815 -0.5675 -1.3507 -2.2114
  149SAPE   C2816477   6.207   2.309   9.804  0.0412  0.4749  0.2149
  149SAPE   H8R16478   6.195   2.224   9.873 -0.9039  0.4199 -0.0118
  149SAPE   C2916479   6.176   2.289   9.676 -0.4196 -0.0447 -0.0725
  149SAPE   H9R16480   6.138   2.193   9.638  0.9716 -1.2733  1.5883
  149SAPE  C21016481   6.198   2.388   9.562 -0.3323  0.1262  0.2541
  149SAPE  H10R16482   6.261   2.334   9.488  0.2472  0.8115  0.2427
  149SAPE  H10S16483   6.264   2.470   9.597  0.1953 -0.1472 -0.0849
  149SAPE  C21116484   6.075   2.444   9.502  0.2305 -0.7744  0.0449
  149SAPE  H11R16485   5.988   2.422   9.565 -1.6625  3.2483 -0.9815
  149SAPE  C21216486   6.054   2.511   9.388 -0.3171  0.3012 -0.2329
  149SAPE  H12R16487   5.954   2.540   9.354 -0.8402  0.4986  1.4430
  149SAPE  C21316488   6.157   2.559   9.290 -0.3729 -1.0789  0.4153
  149SAPE  H13R16489   6.247   2.587   9.348 -0.2258  0.1146 -0.3660
  149SAPE  H13S16490   6.121   2.649   9.236 -4.3510 -1.4115  2.2802
  149SAPE  C21416491   6.193   2.455   9.191  0.5759  0.0628 -0.3198
  149SAPE  H14R16492   6.233   2.360   9.231 -3.3960 -1.4874  0.2882
  149SAPE  C21516493   6.175   2.467   9.060  0.4729  0.2651  0.6596
  149SAPE  H15R16494   6.220   2.392   8.993  3.2583  2.7799 -0.4373
  149SAPE  C21616495   6.122   2.587   8.982  0.1034  0.0301  0.5343
  149SAPE  H16R16496   6.068   2.661   9.044 -0.9138  0.2490 -0.6086
  149SAPE  H16S16497   6.049   2.553   8.905  1.5485  0.5116 -1.0575
  149SAPE  C21716498   6.228   2.666   8.900  0.1642  0.2246  0.6021
  149SAPE  H17R16499   6.176   2.750   8.848  1.0956  0.9388  0.8133
  149SAPE  H17S16500   6.264   2.595   8.823 -0.1654  0.8524 -0.1484
  149SAPE  C21816501   6.356   2.710   8.969  0.0822  0.5490 -0.6225
  149SAPE  H18R16502   6.391   2.635   9.043  1.5805  1.8426 -0.0028
  149SAPE  H18S16503   6.340   2.803   9.027 -1.6670 -0.7705  1.0674
  149SAPE  C21916504   6.472   2.737   8.870 -0.0180 -0.3480 -0.1996
  149SAPE  H19R16505   6.433   2.799   8.786 -1.4597 -0.3007  0.4847
  149SAPE  H19S16506   6.496   2.641   8.819 -1.4201 -0.8726  0.0854
  149SAPE  C22016507   6.598   2.779   8.945  0.5661 -0.0985  0.3011
  149SAPE  H20R16508   6.584   2.873   9.003 -0.1988 -0.1734  0.2384
  149SAPE  H20S16509   6.682   2.806   8.877  0.6035  1.1137  0.8088
  149SAPE  H20T16510   6.637   2.703   9.016  0.2244  0.2747  0.8918
  149SAPE   C3316511   6.668   2.486  10.127  0.1531  0.5239  0.8988
  149SAPE   H3X16512   6.647   2.390  10.179 -1.7340 -0.1877 -1.1333
  149SAPE   H3Y16513   6.779   2.486  10.139  0.3758 -1.0990 -0.9675
  149SAPE   C3416514   6.630   2.475   9.977 -0.4889 -0.0403  0.1928
  149SAPE   H4X16515   6.636   2.572   9.923 -2.3666 -1.2656 -2.3493
  149SAPE   H4Y16516   6.527   2.437   9.962  0.0246 -1.5584  0.3514
  149SAPE   C3516517   6.718   2.377   9.905  0.1395 -0.3531 -0.3641
  149SAPE   H5X16518   6.727   2.285   9.967  0.7312  1.1390  1.8107
  149SAPE   H5Y16519   6.819   2.419   9.885 -0.1110  0.3543 -0.1560
  149SAPE   C3616520   6.662   2.320   9.773  0.7426  0.3781  0.1899
  149SAPE   H6X16521   6.582   2.246   9.793 -1.5928  2.0814 -2.5286
  149SAPE   H6Y16522   6.742   2.262   9.722 -0.0793 -0.3772 -0.2649
  149SAPE   C3716523   6.601   2.420   9.671  0.2891  0.1447 -0.1407
  149SAPE   H7X16524   6.672   2.503   9.653 -1.5714  1.5457 -1.1680
  149SAPE   H7Y16525   6.512   2.457   9.727  0.3643 -0.7714  0.5996
  149SAPE   C3816526   6.550   2.359   9.540  0.1137 -0.2476  1.3185
  149SAPE   H8X16527   6.483   2.437   9.497 -1.9413 -2.4661  0.3763
  149SAPE   H8Y16528   6.482   2.273   9.557  0.0962  0.0143  2.6213
  149SAPE   C3916529   6.656   2.331   9.429  0.2693 -0.1302  0.1252
  149SAPE   H9X16530   6.715   2.239   9.446  0.9032  0.4468  1.1407
  149SAPE   H9Y16531   6.731   2.413   9.426  1.0292 -0.8491 -0.6063
  149SAPE  C31016532   6.583   2.326   9.297 -0.1192 -0.2608 -0.1604
  149SAPE  H10X16533   6.510   2.408   9.280 -1.9748 -2.1090 -1.4441
  149SAPE  H10Y16534   6.525   2.231   9.296 -1.2878  0.4267  0.6975
  149SAPE  C31116535   6.687   2.327   9.177  0.6725  0.0622 -0.0895
  149SAPE  H11X16536   6.703   2.221   9.148  1.0206  0.4715 -1.4373
  149SAPE  H11Y16537   6.786   2.367   9.208 -0.0449 -0.8225  3.5861
  149SAPE  C31216538   6.646   2.424   9.066 -0.3999  0.0001  0.1390
  149SAPE  H12X16539   6.739   2.438   9.006 -0.2227 -1.5299  0.0269
  149SAPE  H12Y16540   6.603   2.520   9.101 -2.8113 -0.8164 -0.4336
  149SAPE  C31316541   6.544   2.351   8.972  0.0865  0.1193  0.4989
  149SAPE  H13X16542   6.462   2.420   8.944  0.6744  0.9738  0.8373
  149SAPE  H13Y16543   6.498   2.273   9.036  0.8781  0.5473  1.6135
  149SAPE  C31416544   6.621   2.286   8.864  0.0074 -0.4749 -0.1617
  149SAPE  H14X16545   6.696   2.215   8.905  0.7071  1.4024  1.9020
  149SAPE  H14Y16546   6.683   2.355   8.803  0.9150  0.6461  1.9833
  149SAPE  C31516547   6.518   2.197   8.776 -0.3262  0.1713 -0.3884
  149SAPE  H15X16548   6.452   2.150   8.852  1.6117 -0.3677  1.0212
  149SAPE  H15Y16549   6.563   2.111   8.721  1.1805  1.1118 -0.6665
  149SAPE  C31616550   6.434   2.272   8.675  0.7019  0.2585 -0.2496
  149SAPE  H16X16551   6.482   2.274   8.575  1.8956 -2.6328  0.2060
  149SAPE  H16Y16552   6.437   2.378   8.708 -1.0550  0.9134 -2.1085
  149SAPE  C31716553   6.294   2.210   8.672 -0.0237 -0.4086 -0.2828
  149SAPE  H17X16554   6.244   2.212   8.772  3.7058  0.3291  1.6547
  149SAPE  H17Y16555   6.294   2.107   8.630  4.4247  0.9004 -3.8684
  149SAPE  C31816556   6.213   2.296   8.575  0.0484  0.0943 -0.0365
  149SAPE  H18X16557   6.219   2.402   8.606  0.3600 -0.8093  3.2167
  149SAPE  H18Y16558   6.110   2.255   8.566  0.7946 -1.1363 -4.0521
  149SAPE  H18Z16559   6.253   2.295   8.472  1.8315  0.0206  0.6384
  150SAPE     N16560   1.090   2.187  10.687  0.7192  0.3238 -0.0241
  150SAPE   HN116561   1.183   2.140  10.694 -0.8163 -2.7803  0.7546
  150SAPE   HN216562   1.107   2.285  10.659 -1.0626  1.0173  1.2076
  150SAPE   HN316563   1.050   2.195  10.783 -1.0887  0.0109 -0.7285
  150SAPE   C1216564   1.000   2.114  10.595 -0.3222  0.5070 -0.5554
  150SAPE  H12A16565   1.029   2.130  10.489  1.1755 -0.7844 -0.3558
  150SAPE  H12B16566   0.898   2.159  10.602 -0.7945 -0.8010  1.2677
  150SAPE   C1116567   0.996   1.970  10.619 -0.2410  1.1654 -0.4942
  150SAPE  H11A16568   1.093   1.918  10.603 -0.6407 -0.2354  1.4756
  150SAPE  H11B16569   0.924   1.921  10.551 -0.5866  1.0166 -0.0170
  150SAPE     P16570   0.995   1.831  10.838 -0.1537 -0.1347 -0.2443
  150SAPE   O1316571   1.143   1.849  10.846 -0.3061 -0.0654 -0.1294
  150SAPE   O1416572   0.918   1.832  10.963 -0.2848  0.4107 -0.6492
  150SAPE   O1216573   0.939   1.948  10.749 -0.9300  0.0454 -0.1060
  150SAPE   O1116574   0.964   1.699  10.760  0.0521  0.0032 -0.3589
  150SAPE    C116575   1.070   1.607  10.738  0.5704 -0.0282 -0.4301
  150SAPE    HA16576   1.155   1.613  10.809 -2.2429 -1.6834  3.2402
  150SAPE    HB16577   1.026   1.506  10.751 -2.4004  1.3463  0.5961
  150SAPE    C216578   1.125   1.621  10.589 -0.0640  0.2687  0.4080
  150SAPE    HS16579   1.190   1.711  10.587  2.3934 -1.4920 -0.3320
  150SAPE   O2116580   1.016   1.625  10.491 -0.0096  1.0170  1.0140
  150SAPE   C2116581   1.038   1.708  10.396 -0.3001 -0.5386  0.3243
  150SAPE   O2216582   1.127   1.792  10.385 -0.5060  0.5074  0.1401
  150SAPE   C2216583   0.923   1.681  10.288  0.4624 -1.6148  0.2875
  150SAPE   H2R16584   0.966   1.618  10.207  1.1838 -0.6512 -0.0850
  150SAPE   H2S16585   0.833   1.636  10.335 -1.7484  1.1673 -1.1442
  150SAPE    C316586   1.226   1.507  10.561  0.4766  0.7346 -0.0631
  150SAPE    HX16587   1.186   1.403  10.553 -0.3133  1.1059 -0.9155
  150SAPE    HY16588   1.284   1.508  10.656  1.8000 -0.7774 -0.8268
  150SAPE   O3116589   1.311   1.540  10.450  0.1409 -0.4306 -0.3410
  150SAPE   C3116590   1.421   1.608  10.465 -0.8983 -0.3903  1.1803
  150SAPE   O3216591   1.460   1.651  10.573  0.3932 -0.4679 -0.2098
  150SAPE   C3216592   1.488   1.619  10.331 -0.2300 -0.5137  0.8756
  150SAPE   H2X16593   1.587   1.571  10.347  1.2636  1.1832 -2.8522
  150SAPE   H2Y16594   1.507   1.726  10.309 -0.0188 -1.2377 -2.7593
  150SAPE   C2316595   0.874   1.817  10.235 -0.0293 -0.1420 -0.0786
  150SAPE   H3R16596   0.958   1.861  10.178  0.5849  0.8941  1.5985
  150SAPE   H3S16597   0.844   1.888  10.315  0.5173 -0.0525  0.0480
  150SAPE   C2416598   0.751   1.814  10.143 -0.5276 -0.1807 -0.8931
  150SAPE   H4R16599   0.699   1.909  10.121  0.5153  1.0551  1.8164
  150SAPE   H4S16600   0.682   1.744  10.196 -1.0472 -0.1086 -1.4587
  150SAPE   C2516601   0.784   1.742  10.012  0.0284  0.6425  0.2281
  150SAPE   H5R16602   0.865   1.670  10.030  0.2900  1.0445  0.7193
  150SAPE   C2616603   0.719   1.757   9.893 -0.2808 -0.4850 -0.2703
  150SAPE   H6R16604   0.753   1.699   9.805 -0.7928  1.7072 -1.9475
  150SAPE   C2716605   0.603   1.847   9.858 -0.3612 -0.5488 -1.0300
  150SAPE   H7R16606   0.633   1.921   9.780  2.2234  0.2573  0.6673
  150SAPE   H7S16607   0.581   1.918   9.941  2.0864 -1.9561  0.9208
  150SAPE   C2816608   0.481   1.773   9.821 -0.4720  0.4021 -0.0662
  150SAPE   H8R16609   0.426   1.725   9.903  1.4497 -1.4655  0.2067
  150SAPE   C2916610   0.420   1.770   9.706  0.9251  0.0037  0.7070
  150SAPE   H9R16611   0.349   1.687   9.688  0.8725  0.6267 -2.3442
  150SAPE  C21016612   0.484   1.831   9.580 -0.9330  0.6967 -0.0927
  150SAPE  H10R16613   0.516   1.936   9.597  0.6788  0.0217  1.2293
  150SAPE  H10S16614   0.409   1.853   9.502 -0.9704  0.2247 -0.1895
  150SAPE  C21116615   0.596   1.752   9.512 -0.6175 -0.0420 -0.0586
  150SAPE  H11R16616   0.620   1.649   9.544  0.8430  0.3845  0.2429
  150SAPE  C21216617   0.662   1.801   9.408  0.9683 -0.1299  0.0405
  150SAPE  H12R16618   0.733   1.736   9.353 -0.4133 -3.6702  2.3363
  150SAPE  C21316619   0.643   1.947   9.358  0.8777  0.1003 -0.1851
  150SAPE  H13R16620   0.548   1.995   9.388 -0.6278 -0.8774 -3.2344
  150SAPE  H13S16621   0.650   1.955   9.248 -2.7385  2.1744 -0.3269
  150SAPE  C21416622   0.764   2.023   9.403  0.4771 -0.4028 -0.3220
  150SAPE  H14R16623   0.786   2.027   9.511 -0.1299  0.3205 -0.2219
  150SAPE  C21516624   0.849   2.092   9.327  0.1789  0.2026 -0.9302
  150SAPE  H15R16625   0.936   2.138   9.376 -0.7486  2.4604 -1.3598
  150SAPE  C21616626   0.849   2.098   9.177  0.5281 -0.6563 -0.0672
  150SAPE  H16R16627   0.907   2.179   9.128  0.1454 -0.6191 -0.4693
  150SAPE  H16S16628   0.744   2.114   9.144  1.2466  0.1589 -2.0651
  150SAPE  C21716629   0.907   1.964   9.118  0.2708  0.4373 -0.0344
  150SAPE  H17R16630   0.831   1.885   9.136  0.2007  0.1223 -1.6260
  150SAPE  H17S16631   1.004   1.932   9.161 -0.7306  0.5522  2.3957
  150SAPE  C21816632   0.923   1.976   8.968 -0.5075  0.1986  0.2669
  150SAPE  H18R16633   1.020   2.027   8.951  0.6602 -2.3337 -0.9723
  150SAPE  H18S16634   0.844   2.037   8.918 -1.7644 -0.8707  0.9201
  150SAPE  C21916635   0.915   1.840   8.897 -0.7640 -0.3346  0.2161
  150SAPE  H19R16636   0.819   1.793   8.924 -1.9100  1.8498  0.0198
  150SAPE  H19S16637   1.004   1.790   8.941 -0.6348  2.4069  3.2272
  150SAPE  C22016638   0.922   1.850   8.743 -0.0289  0.0765 -0.0925
  150SAPE  H20R16639   0.996   1.922   8.704 -0.4915  0.1449 -0.8591
  150SAPE  H20S16640   0.831   1.894   8.697  0.2590  1.7938  0.9577
  150SAPE  H20T16641   0.910   1.747   8.702 -2.3428 -0.2082  1.1941
  150SAPE   C3316642   1.426   1.555  10.209 -0.4992  0.0002  0.6272
  150SAPE   H3X16643   1.394   1.450  10.224  1.0155 -0.3989  1.1417
  150SAPE   H3Y16644   1.511   1.552  10.138 -0.2243 -0.3181  0.9690
  150SAPE   C3416645   1.313   1.641  10.142  0.2104  0.3195  0.3030
  150SAPE   H4X16646   1.324   1.744  10.182 -2.7160  1.8306 -2.5984
  150SAPE   H4Y16647   1.218   1.589  10.165 -0.7976  1.4850 -1.1253
  150SAPE   C3516648   1.329   1.654   9.988 -0.1548 -0.2576 -0.1283
  150SAPE   H5X16649   1.327   1.552   9.944 -0.5651  0.3193 -1.4513
  150SAPE   H5Y16650   1.427   1.701   9.965  0.5041 -1.4079  0.2346
  150SAPE   C3616651   1.222   1.739   9.922 -0.1799  0.0413  0.6791
  150SAPE   H6X16652   1.230   1.846   9.948 -2.0631 -0.2544  2.6102
  150SAPE   H6Y16653   1.124   1.697   9.956  0.0731 -0.2015  1.1186
  150SAPE   C3716654   1.208   1.731   9.771  0.2680  0.3015  0.5675
  150SAPE   H7X16655   1.212   1.627   9.731 -1.5202  0.3787  0.1498
  150SAPE   H7Y16656   1.284   1.798   9.725 -0.3135 -0.3207 -1.3479
  150SAPE   C3816657   1.071   1.779   9.728 -0.4077  0.4341 -0.5338
  150SAPE   H8X16658   1.033   1.868   9.782  0.9310  0.0284  1.0933
  150SAPE   H8Y16659   1.000   1.703   9.765 -1.0287  1.3398  0.1755
  150SAPE   C3916660   1.054   1.794   9.578  0.0969 -0.3512 -0.0204
  150SAPE   H9X16661   1.131   1.860   9.533  0.7224  0.6179  2.4049
  150SAPE   H9Y16662   0.956   1.845   9.568  0.1937  0.2114  1.7174
  150SAPE  C31016663   1.061   1.661   9.500  0.2759 -0.4407 -0.0549
  150SAPE  H10X16664   0.968   1.607   9.528  0.0756  0.8680  1.9436
  150SAPE  H10Y16665   1.147   1.601   9.536 -0.3797 -3.1122 -2.6983
  150SAPE  C31116666   1.065   1.688   9.344 -0.1907 -0.1412 -0.0354
  150SAPE  H11X16667   1.157   1.746   9.320 -2.4634  2.4595 -2.7636
  150SAPE  H11Y16668   0.972   1.726   9.297 -0.2821 -0.5050 -0.1522
  150SAPE  C31216669   1.078   1.550   9.274  0.0053 -0.1222  0.5227
  150SAPE  H12X16670   0.977   1.511   9.300 -0.2489  0.7869  0.9047
  150SAPE  H12Y16671   1.155   1.484   9.319  0.5252  1.2942  1.7150
  150SAPE  C31316672   1.105   1.565   9.125  0.6399 -0.4474  0.0201
  150SAPE  H13X16673   1.164   1.658   9.112 -1.8423  1.1163 -0.1953
  150SAPE  H13Y16674   1.010   1.573   9.068  0.2680  0.8827  0.8334
  150SAPE  C31416675   1.195   1.447   9.071  0.0371 -0.2266  0.6151
  150SAPE  H14X16676   1.132   1.356   9.080 -2.7082  1.5410 -0.0518
  150SAPE  H14Y16677   1.279   1.435   9.142 -0.0883  3.4641  1.4591
  150SAPE  C31516678   1.227   1.467   8.926 -0.0019  0.3381  0.1559
  150SAPE  H15X16679   1.266   1.571   8.928 -1.3491  0.8376  2.9756
  150SAPE  H15Y16680   1.136   1.461   8.863  1.0748 -0.9578 -1.3302
  150SAPE  C31616681   1.336   1.376   8.875 -0.4158 -0.3839 -0.5594
  150SAPE  H16X16682   1.294   1.273   8.879 -2.0684  0.2922  0.0778
  150SAPE  H16Y16683   1.417   1.386   8.950 -0.3669 -2.4161 -0.2989
  150SAPE  C31716684   1.376   1.410   8.735 -0.0267  0.4145 -0.2836
  150SAPE  H17X16685   1.376   1.521   8.741 -2.7133  0.5435 -2.1010
  150SAPE  H17Y16686   1.306   1.369   8.659 -2.1158  0.7253  1.4208
  150SAPE  C31816687   1.514   1.348   8.701 -0.1446 -0.2972  0.3495
  150SAPE  H18X16688   1.517   1.300   8.600  0.3851 -2.3637  1.3246
  150SAPE  H18Y16689   1.525   1.266   8.775 -1.2030 -1.5619 -0.8511
  150SAPE  H18Z16690   1.597   1.418   8.723 -2.5918  3.1137 -0.8735
  151SAPE     N16691   5.008   6.090  10.560  0.1978 -0.6159 -0.3510
  151SAPE   HN116692   4.993   5.987  10.552 -3.5546 -0.1223 -0.2214
  151SAPE   HN216693   5.095   6.115  10.611  0.2661  2.1670 -1.7455
  151SAPE   HN316694   4.924   6.124  10.609 -0.0436 -1.8890  0.1459
  151SAPE   C1216695   5.005   6.110  10.413  0.2624  0.0387  0.1074
  151SAPE  H12A16696   5.023   6.220  10.409 -1.0376  0.5189  4.7398
  151SAPE  H12B16697   4.898   6.101  10.386 -0.2422  1.6868  1.4704
  151SAPE   C1116698   5.084   6.010  10.335  0.3316  0.7351  0.0353
  151SAPE  H11A16699   5.193   6.031  10.339  0.3771  0.5544 -0.2324
  151SAPE  H11B16700   5.039   6.018  10.233  2.8081 -0.0222 -1.1769
  151SAPE     P16701   4.966   5.772  10.327 -0.2541  0.1032 -0.1532
  151SAPE   O1316702   4.982   5.658  10.418 -0.4827  0.7622  0.6541
  151SAPE   O1416703   4.832   5.827  10.302  0.2694  0.2989  0.2391
  151SAPE   O1216704   5.060   5.883  10.391  0.6808  0.2909  0.4819
  151SAPE   O1116705   5.034   5.742  10.187  0.0537  0.0915  0.2914
  151SAPE    C116706   4.977   5.649  10.104 -0.5317 -0.2093  0.2292
  151SAPE    HA16707   4.887   5.593  10.138 -0.8954  0.0128 -0.3485
  151SAPE    HB16708   4.947   5.697  10.008  0.9984 -0.5679 -0.4329
  151SAPE    C216709   5.095   5.562  10.053  0.0503  0.0007  0.3981
  151SAPE    HS16710   5.145   5.539  10.150 -1.7860 -0.1765  1.3296
  151SAPE   O2116711   5.177   5.635   9.962 -1.0807  0.4973 -0.9027
  151SAPE   C2116712   5.300   5.594   9.947 -0.3427  0.3713 -0.3092
  151SAPE   O2216713   5.358   5.510  10.017  0.0509 -0.0631 -0.9245
  151SAPE   C2216714   5.372   5.684   9.850 -0.2471  0.2177  0.2919
  151SAPE   H2R16715   5.304   5.764   9.814  0.0213  1.0487  1.5776
  151SAPE   H2S16716   5.452   5.735   9.908 -0.7420  0.7990  0.4790
  151SAPE    C316717   5.048   5.422  10.011 -0.1440 -0.3420 -0.8529
  151SAPE    HX16718   5.005   5.376  10.102  1.7182 -3.3517 -1.4378
  151SAPE    HY16719   5.147   5.376   9.992  0.7925  1.1301  0.3466
  151SAPE   O3116720   4.947   5.438   9.903  0.2312 -0.2367 -0.9345
  151SAPE   C3116721   5.003   5.433   9.782 -0.5833 -0.0828 -0.0111
  151SAPE   O3216722   5.120   5.421   9.756 -0.1295  0.3165 -0.0652
  151SAPE   C3216723   4.886   5.456   9.677 -0.7852 -0.3186  0.5797
  151SAPE   H2X16724   4.841   5.555   9.703  0.5228  0.0291  1.6024
  151SAPE   H2Y16725   4.816   5.374   9.704  0.1794 -1.0028  1.0387
  151SAPE   C2316726   5.421   5.607   9.729 -1.1952  0.2231  0.0692
  151SAPE   H3R16727   5.326   5.577   9.679 -1.1055  0.0838 -0.0183
  151SAPE   H3S16728   5.470   5.510   9.753 -1.3757 -0.1123 -0.8903
  151SAPE   C2416729   5.505   5.694   9.632 -0.4400 -0.4299  0.4335
  151SAPE   H4R16730   5.556   5.622   9.564 -1.1396  1.2947 -2.0186
  151SAPE   H4S16731   5.590   5.732   9.692 -0.7426  0.0840  0.5438
  151SAPE   C2516732   5.418   5.800   9.567 -0.7170 -0.4436 -0.6356
  151SAPE   H5R16733   5.415   5.898   9.616 -0.6237 -0.4705 -0.5774
  151SAPE   C2616734   5.345   5.790   9.457 -0.0810 -0.6197  0.5407
  151SAPE   H6R16735   5.312   5.883   9.408  0.5649 -1.0885 -0.8215
  151SAPE   C2716736   5.329   5.667   9.365 -0.1200 -0.3206 -0.3565
  151SAPE   H7R16737   5.225   5.656   9.329 -0.5745 -0.3005  0.9201
  151SAPE   H7S16738   5.341   5.579   9.432 -1.1934  1.0682  1.7326
  151SAPE   C2816739   5.424   5.661   9.254  0.6876  0.3157  0.0943
  151SAPE   H8R16740   5.531   5.665   9.280  0.4516 -2.2802  1.6881
  151SAPE   C2916741   5.377   5.622   9.131  0.5019  0.2005 -0.7229
  151SAPE   H9R16742   5.436   5.618   9.039  0.4974 -1.7321 -0.6656
  151SAPE  C21016743   5.233   5.597   9.100 -0.1719  1.0008 -0.0004
  151SAPE  H10R16744   5.161   5.673   9.138 -1.4216 -0.4954  0.7073
  151SAPE  H10S16745   5.198   5.505   9.153 -1.4411  0.6323 -1.4158
  151SAPE  C21116746   5.208   5.571   8.949 -0.6778 -0.2756  0.3509
  151SAPE  H11R16747   5.243   5.473   8.917  0.5762  0.1613  0.3757
  151SAPE  C21216748   5.146   5.652   8.863  0.5611 -0.2649  0.2383
  151SAPE  H12R16749   5.134   5.620   8.759 -1.4283 -0.0473  0.3670
  151SAPE  C21316750   5.085   5.792   8.895 -0.0588  0.2199  0.6902
  151SAPE  H13R16751   5.073   5.808   9.004 -0.3074  0.8813  0.5634
  151SAPE  H13S16752   4.978   5.783   8.867  0.2205 -2.4081  0.2835
  151SAPE  C21416753   5.152   5.911   8.835 -0.1066  0.4649  0.0735
  151SAPE  H14R16754   5.233   5.960   8.893  0.0883  0.8491 -0.5170
  151SAPE  C21516755   5.138   5.961   8.709  0.5250 -0.5596 -0.0127
  151SAPE  H15R16756   5.186   6.058   8.693  1.2358 -1.0002 -0.5975
  151SAPE  C21616757   5.054   5.908   8.594  0.7690 -0.8187  0.2861
  151SAPE  H16R16758   4.975   5.980   8.564  0.0960 -0.9994  1.6251
  151SAPE  H16S16759   4.986   5.823   8.618 -0.3508  0.4902  1.7912
  151SAPE  C21716760   5.140   5.887   8.477  0.3938 -0.1407  0.2328
  151SAPE  H17R16761   5.196   5.978   8.447 -1.8501  1.2107  0.0691
  151SAPE  H17S16762   5.076   5.850   8.394  1.2092 -1.5647  0.2149
  151SAPE  C21816763   5.248   5.776   8.499 -0.5680  0.0637  0.1409
  151SAPE  H18R16764   5.197   5.688   8.544 -2.7282  1.4870  0.5670
  151SAPE  H18S16765   5.320   5.824   8.568  0.7606 -0.3954 -0.9153
  151SAPE  C21916766   5.317   5.744   8.369  0.6406 -0.3779  0.4234
  151SAPE  H19R16767   5.323   5.828   8.298  1.3837 -1.3535 -0.6868
  151SAPE  H19S16768   5.252   5.672   8.313  1.1339 -1.3867  1.1252
  151SAPE  C22016769   5.454   5.679   8.390  0.1707  0.1974  0.2835
  151SAPE  H20R16770   5.520   5.748   8.448  0.0095  0.0260  0.6703
  151SAPE  H20S16771   5.496   5.664   8.288 -0.0674  1.9321 -0.0903
  151SAPE  H20T16772   5.451   5.584   8.446  1.3539 -0.8592 -1.3938
  151SAPE   C3316773   4.934   5.445   9.530  0.6279  0.1322 -0.5255
  151SAPE   H3X16774   4.973   5.342   9.513  0.6751  0.3573 -1.8874
  151SAPE   H3Y16775   5.019   5.517   9.516  3.0478 -2.6553 -0.6804
  151SAPE   C3416776   4.831   5.480   9.428  0.2572  0.0816  0.4140
  151SAPE   H4X16777   4.769   5.571   9.446 -1.1967 -0.8824  0.4252
  151SAPE   H4Y16778   4.760   5.394   9.430  1.9496 -1.3901 -1.0165
  151SAPE   C3516779   4.880   5.483   9.281  0.5088  0.5525  0.4686
  151SAPE   H5X16780   4.915   5.379   9.260 -0.7924 -0.4111  2.7768
  151SAPE   H5Y16781   4.966   5.553   9.283  2.6358 -1.9908  0.3480
  151SAPE   C3616782   4.752   5.501   9.200  0.2401 -0.0540 -0.6624
  151SAPE   H6X16783   4.695   5.592   9.227  0.0277 -0.2366 -0.4953
  151SAPE   H6Y16784   4.685   5.415   9.219  1.3911 -0.3898  2.2334
  151SAPE   C3716785   4.777   5.497   9.047  0.2641 -0.0504  0.4676
  151SAPE   H7X16786   4.825   5.399   9.025  0.7602 -0.2679  2.4133
  151SAPE   H7Y16787   4.845   5.578   9.013 -1.8563  0.9483 -1.5374
  151SAPE   C3816788   4.650   5.520   8.960  0.1095 -0.1616 -0.3334
  151SAPE   H8X16789   4.618   5.624   8.983 -1.2441 -0.6725  0.1650
  151SAPE   H8Y16790   4.574   5.453   9.007 -2.9090  1.7761 -2.2991
  151SAPE   C3916791   4.683   5.497   8.813 -0.9187  0.0046  0.3446
  151SAPE   H9X16792   4.718   5.396   8.783  1.5481  1.0784 -0.5889
  151SAPE   H9Y16793   4.764   5.565   8.779 -1.0601 -1.0023 -2.1001
  151SAPE  C31016794   4.555   5.535   8.742  0.2316  0.2357 -0.5805
  151SAPE  H10X16795   4.524   5.639   8.766 -0.1703  0.2662 -1.2166
  151SAPE  H10Y16796   4.478   5.463   8.778 -0.9200  1.4280 -0.5852
  151SAPE  C31116797   4.578   5.525   8.593 -0.4370  0.6500 -0.7897
  151SAPE  H11X16798   4.588   5.421   8.555  0.3616 -0.5656  2.5587
  151SAPE  H11Y16799   4.668   5.588   8.574 -0.0564  1.4826  3.3343
  151SAPE  C31216800   4.452   5.582   8.523  0.2702 -0.3270 -0.6052
  151SAPE  H12X16801   4.403   5.664   8.579  4.3217  1.1804  0.9385
  151SAPE  H12Y16802   4.374   5.503   8.528 -0.2293  0.1270 -1.2161
  151SAPE  C31316803   4.469   5.636   8.376 -0.0686  0.6693  0.1076
  151SAPE  H13X16804   4.540   5.721   8.370  0.0876  0.6078  1.0151
  151SAPE  H13Y16805   4.374   5.676   8.333 -0.3237 -0.5165 -0.4624
  151SAPE  C31416806   4.534   5.532   8.282 -0.3587 -0.5101 -0.5663
  151SAPE  H14X16807   4.460   5.449   8.277 -0.6163 -0.3633  0.6842
  151SAPE  H14Y16808   4.630   5.486   8.313 -0.4715 -0.7624 -0.5894
  151SAPE  C31516809   4.545   5.594   8.137 -0.4466  0.5278 -1.1527
  151SAPE  H15X16810   4.637   5.656   8.127 -0.7224  1.3590  1.1893
  151SAPE  H15Y16811   4.448   5.637   8.105 -0.8361  3.9590  4.0802
  151SAPE  C31616812   4.564   5.475   8.046  0.1472  0.2499  0.6388
  151SAPE  H16X16813   4.525   5.507   7.947 -1.0532  0.7469  1.2685
  151SAPE  H16Y16814   4.509   5.392   8.095  0.7076 -0.7038 -0.3298
  151SAPE  C31716815   4.702   5.415   8.033  0.3014 -0.4221 -0.2441
  151SAPE  H17X16816   4.742   5.411   8.136  1.6686 -0.9864 -0.7926
  151SAPE  H17Y16817   4.770   5.488   7.984 -1.5228 -0.0503 -2.3024
  151SAPE  C31816818   4.699   5.279   7.972  0.3727  1.1896 -0.0661
  151SAPE  H18X16819   4.623   5.214   8.020 -1.7797  3.0991 -0.7643
  151SAPE  H18Y16820   4.795   5.227   7.991 -0.4616  0.2594  1.6941
  151SAPE  H18Z16821   4.664   5.271   7.867  0.4974  1.6064 -0.1406
  152SAPE     N16822   0.642   5.242  10.463 -0.7534  0.3273 -0.5649
  152SAPE   HN116823   0.672   5.212  10.558  2.4489  0.2246 -1.5820
  152SAPE   HN216824   0.540   5.227  10.447 -0.7345 -0.5031  0.0539
  152SAPE   HN316825   0.703   5.190  10.398  0.7425  1.1230  0.1714
  152SAPE   C1216826   0.674   5.386  10.453  0.2205  0.1155  0.2034
  152SAPE  H12A16827   0.684   5.412  10.345 -0.8770  0.9657  0.2982
  152SAPE  H12B16828   0.776   5.406  10.492  0.7438 -0.8002 -0.6426
  152SAPE   C1116829   0.562   5.469  10.520  0.3746 -0.4033 -0.0194
  152SAPE  H11A16830   0.580   5.575  10.494 -0.7015 -0.8152 -2.5419
  152SAPE  H11B16831   0.575   5.468  10.630  0.4200 -0.4582 -0.0258
  152SAPE     P16832   0.297   5.466  10.549 -0.4368 -0.3481 -0.4665
  152SAPE   O1316833   0.190   5.380  10.495  0.1644 -0.3301  0.1929
  152SAPE   O1416834   0.306   5.483  10.690  0.2791  0.0558 -0.6334
  152SAPE   O1216835   0.434   5.414  10.488  0.0104  0.4667 -0.1348
  152SAPE   O1116836   0.277   5.609  10.473  0.5378  0.3172  0.2990
  152SAPE    C116837   0.214   5.611  10.345 -0.7922 -0.0674 -0.4274
  152SAPE    HA16838   0.124   5.546  10.343 -1.9377  1.5264 -1.5807
  152SAPE    HB16839   0.180   5.716  10.334 -0.4790  0.0188 -0.5582
  152SAPE    C216840   0.315   5.586  10.234 -0.0181 -0.4816 -0.1706
  152SAPE    HS16841   0.328   5.475  10.236  0.8559 -0.4504 -2.4754
  152SAPE   O2116842   0.440   5.644  10.273  0.7150  0.0477  0.8222
  152SAPE   C2116843   0.536   5.613  10.192 -0.0188 -0.1219  0.2986
  152SAPE   O2216844   0.532   5.530  10.102  0.3227 -0.5712 -0.1327
  152SAPE   C2216845   0.657   5.707  10.210  0.3493 -0.3132 -1.0265
  152SAPE   H2R16846   0.617   5.810  10.205  0.3826 -0.2315  0.4045
  152SAPE   H2S16847   0.706   5.685  10.307 -0.5234  1.0206 -0.2872
  152SAPE    C316848   0.249   5.634  10.095  0.2289  0.5479 -0.0352
  152SAPE    HX16849   0.318   5.616  10.010 -3.9147 -0.2359 -3.3868
  152SAPE    HY16850   0.227   5.743  10.099 -2.5025  0.0584 -0.9389
  152SAPE   O3116851   0.119   5.566  10.079 -0.1910  0.3685  0.0064
  152SAPE   C3116852   0.118   5.444  10.014 -0.0450 -0.3233  0.0623
  152SAPE   O3216853   0.219   5.391   9.966  0.1561  0.3893 -0.1560
  152SAPE   C3216854  -0.025   5.402  10.007  0.1696  0.0633 -0.7269
  152SAPE   H2X16855  -0.093   5.483   9.975  0.4524  0.2664 -0.8158
  152SAPE   H2Y16856  -0.057   5.366  10.107  0.8688 -0.6543 -0.7584
  152SAPE   C2316857   0.764   5.678  10.111  0.0854  0.3384 -0.1778
  152SAPE   H3R16858   0.736   5.696  10.005  0.6042 -0.8294 -0.5259
  152SAPE   H3S16859   0.787   5.570  10.127  3.5723  1.1143  0.5995
  152SAPE   C2416860   0.903   5.740  10.136 -1.0692  0.3561 -0.3021
  152SAPE   H4R16861   0.992   5.693  10.089  1.0503  0.5011  3.3947
  152SAPE   H4S16862   0.924   5.714  10.242 -2.9287  2.5411  0.6570
  152SAPE   C2516863   0.900   5.891  10.123  0.1521  0.5222  0.0593
  152SAPE   H5R16864   0.829   5.938  10.193 -1.5628 -1.5700 -0.2012
  152SAPE   C2616865   0.940   5.967  10.021 -0.3154 -0.1786  0.1629
  152SAPE   H6R16866   0.929   6.075  10.035  2.1451  0.1205 -0.0911
  152SAPE   C2716867   0.999   5.924   9.885 -0.3762 -0.2851  0.5311
  152SAPE   H7R16868   1.023   5.815   9.881 -0.5126 -0.3221  0.7474
  152SAPE   H7S16869   1.096   5.975   9.865  0.5601 -1.5749  1.6208
  152SAPE   C2816870   0.899   5.937   9.774 -0.2527  0.1053 -0.0002
  152SAPE   H8R16871   0.807   5.878   9.790  0.1538 -0.4983  0.1516
  152SAPE   C2916872   0.914   6.017   9.659 -0.2791 -0.0538  0.0790
  152SAPE   H9R16873   0.829   6.024   9.590 -0.3309  0.7428  0.2249
  152SAPE  C21016874   1.034   6.102   9.615  0.0957  0.9480  0.2962
  152SAPE  H10R16875   1.061   6.074   9.511  0.6994 -0.9292  0.9212
  152SAPE  H10S16876   1.128   6.076   9.669 -0.3090 -1.1484  0.0380
  152SAPE  C21116877   0.996   6.250   9.622 -0.1391  1.1283 -0.2302
  152SAPE  H11R16878   0.983   6.285   9.726  0.2880  1.8897 -0.4341
  152SAPE  C21216879   0.998   6.339   9.517  0.5073  1.0100  0.6814
  152SAPE  H12R16880   0.966   6.439   9.548 -0.3271  1.1274 -0.5406
  152SAPE  C21316881   1.020   6.289   9.378  0.0859  0.2134  0.5277
  152SAPE  H13R16882   0.939   6.214   9.360  0.8720 -0.2933 -1.0202
  152SAPE  H13S16883   1.112   6.226   9.385  0.4237  0.6036 -0.3283
  152SAPE  C21416884   1.020   6.398   9.273  0.3998  0.1289  0.4052
  152SAPE  H14R16885   1.120   6.422   9.235 -0.9056  4.0833 -0.8020
  152SAPE  C21516886   0.911   6.446   9.215 -0.1794  0.0834  0.8081
  152SAPE  H15R16887   0.937   6.518   9.136  1.6926 -1.8256 -0.3577
  152SAPE  C21616888   0.762   6.427   9.233 -0.4845  0.0113  0.3059
  152SAPE  H16R16889   0.710   6.513   9.281  0.4273  1.2149 -0.8539
  152SAPE  H16S16890   0.745   6.350   9.312 -2.0523  0.3039  0.2742
  152SAPE  C21716891   0.683   6.385   9.106  0.2792  0.2525 -0.3025
  152SAPE  H17R16892   0.688   6.465   9.029  0.3340  0.8764  0.3404
  152SAPE  H17S16893   0.580   6.364   9.141  0.7039 -0.7012  0.4062
  152SAPE  C21816894   0.743   6.261   9.042 -0.7635  0.1778  0.6249
  152SAPE  H18R16895   0.767   6.177   9.111 -1.2493 -0.4540  0.0296
  152SAPE  H18S16896   0.836   6.288   8.987 -0.3616 -1.1684  0.6277
  152SAPE  C21916897   0.657   6.204   8.929  0.1043 -0.3398 -0.2225
  152SAPE  H19R16898   0.670   6.265   8.837  1.8243 -0.2387  0.0637
  152SAPE  H19S16899   0.553   6.194   8.967  1.1150 -1.7803  2.2661
  152SAPE  C22016900   0.698   6.058   8.884  0.4439  0.6927  0.2423
  152SAPE  H20R16901   0.639   6.012   8.802  0.3134 -0.2544  0.8518
  152SAPE  H20S16902   0.695   5.991   8.973 -0.0115 -0.7939 -0.8822
  152SAPE  H20T16903   0.806   6.050   8.859  0.9337  0.8350  2.1769
  152SAPE   C3316904  -0.049   5.275   9.924  0.1253 -0.0989  0.5303
  152SAPE   H3X16905   0.012   5.190   9.964  2.2699  0.0865 -2.1699
  152SAPE   H3Y16906  -0.027   5.278   9.815 -2.1378 -2.2542 -0.0411
  152SAPE   C3416907  -0.196   5.229   9.936 -0.4285  0.4795 -0.4230
  152SAPE   H4X16908  -0.258   5.298   9.875  0.2015  0.7370 -0.7810
  152SAPE   H4Y16909  -0.241   5.249  10.035 -0.5530  1.1484 -0.6083
  152SAPE   C3516910  -0.239   5.095   9.882  0.2355  0.3932  0.0314
  152SAPE   H5X16911  -0.350   5.089   9.889  0.1781  1.5327  0.1765
  152SAPE   H5Y16912  -0.204   4.999   9.925 -0.9367 -0.9298 -1.8853
  152SAPE   C3616913  -0.203   5.079   9.731 -0.6254  0.2431 -0.0502
  152SAPE   H6X16914  -0.101   5.035   9.722  0.1144  1.3039  2.4823
  152SAPE   H6Y16915  -0.200   5.172   9.671  3.9393 -0.6742 -1.4363
  152SAPE   C3716916  -0.294   4.976   9.656 -0.2059  0.1914  0.3774
  152SAPE   H7X16917  -0.401   4.977   9.685 -0.1199 -5.0014  1.1900
  152SAPE   H7Y16918  -0.255   4.877   9.688  0.2968  0.4467  0.5635
  152SAPE   C3816919  -0.282   4.979   9.505 -1.1806  0.0529  0.1967
  152SAPE   H8X16920  -0.173   4.997   9.491 -1.3977  1.3030  0.0595
  152SAPE   H8Y16921  -0.339   5.060   9.454 -2.4396 -0.2989  1.0402
  152SAPE   C3916922  -0.315   4.845   9.442  0.2504  0.4669 -0.0277
  152SAPE   H9X16923  -0.413   4.809   9.483  0.2812  0.9951  0.5127
  152SAPE   H9Y16924  -0.239   4.775   9.481  1.3277  0.4390 -2.0955
  152SAPE  C31016925  -0.300   4.841   9.287 -0.1696  0.1043 -0.3180
  152SAPE  H10X16926  -0.207   4.891   9.254  0.5452 -0.0357  1.4013
  152SAPE  H10Y16927  -0.393   4.887   9.247  0.0078  3.2835  2.7152
  152SAPE  C31116928  -0.301   4.690   9.247 -0.7002  0.2052 -0.9912
  152SAPE  H11X16929  -0.385   4.630   9.287 -0.8074  2.3951  2.2406
  152SAPE  H11Y16930  -0.213   4.641   9.295 -1.1921 -0.1211 -0.4212
  152SAPE  C31216931  -0.299   4.675   9.099  0.0699 -0.0451 -0.3932
  152SAPE  H12X16932  -0.261   4.575   9.068 -0.7100 -0.6134  0.4500
  152SAPE  H12Y16933  -0.234   4.756   9.059 -1.1777  1.5164  0.7101
  152SAPE  C31316934  -0.433   4.690   9.032  1.0834 -0.5438 -0.8314
  152SAPE  H13X16935  -0.465   4.796   9.040 -1.3519 -1.3402  0.5576
  152SAPE  H13Y16936  -0.504   4.626   9.089  0.9511  1.6404  1.5288
  152SAPE  C31416937  -0.430   4.653   8.880 -0.0557 -0.2677  0.0180
  152SAPE  H14X16938  -0.389   4.555   8.850 -0.0094  0.1394 -1.2893
  152SAPE  H14Y16939  -0.362   4.722   8.827 -2.0855  0.3779 -1.8418
  152SAPE  C31516940  -0.572   4.662   8.820  0.3852 -0.2577 -0.7291
  152SAPE  H15X16941  -0.581   4.604   8.726 -2.3049 -0.0528 -0.6223
  152SAPE  H15Y16942  -0.592   4.766   8.788 -0.2482  0.0241  0.5762
  152SAPE  C31616943  -0.694   4.625   8.906  0.5331  0.0374  0.3020
  152SAPE  H16X16944  -0.784   4.660   8.850 -0.5712 -1.1518  1.2829
  152SAPE  H16Y16945  -0.689   4.692   8.995  1.1994 -1.8433  1.7007
  152SAPE  C31716946  -0.717   4.472   8.938  0.7036  0.5017 -0.4765
  152SAPE  H17X16947  -0.732   4.473   9.048  1.7309  0.4173 -0.3358
  152SAPE  H17Y16948  -0.623   4.414   8.927  0.1083 -1.2849  3.1569
  152SAPE  C31816949  -0.822   4.407   8.851 -0.6976 -0.0624  0.6644
  152SAPE  H18X16950  -0.810   4.437   8.745 -1.5811 -1.2840  0.1984
  152SAPE  H18Y16951  -0.924   4.435   8.885 -0.8682 -0.3154  0.3644
  152SAPE  H18Z16952  -0.807   4.297   8.839  3.6008  0.5018 -0.0366
  153SAPE     N16953   6.181   6.715  10.949 -0.7570  0.8895 -0.1227
  153SAPE   HN116954   6.129   6.644  10.893  0.8143  0.0071 -0.4850
  153SAPE   HN216955   6.178   6.686  11.049 -2.2469  2.1193  0.2064
  153SAPE   HN316956   6.123   6.801  10.943 -1.7247  0.3048  0.5495
  153SAPE   C1216957   6.313   6.749  10.893  0.0479 -0.1477  0.0674
  153SAPE  H12A16958   6.348   6.833  10.957 -1.4371 -0.1830  0.9472
  153SAPE  H12B16959   6.301   6.783  10.787 -0.2428 -0.0779  0.1231
  153SAPE   C1116960   6.399   6.621  10.921  0.2590  0.0829 -0.7815
  153SAPE  H11A16961   6.397   6.606  11.031 -1.7922 -0.8339 -0.9216
  153SAPE  H11B16962   6.508   6.630  10.902  0.1570  1.4821 -0.7677
  153SAPE     P16963   6.378   6.432  10.745 -0.1177 -0.2848  0.1606
  153SAPE   O1316964   6.496   6.351  10.778 -0.4696  0.4468 -0.0451
  153SAPE   O1416965   6.264   6.355  10.690 -0.6846  0.2622  0.1137
  153SAPE   O1216966   6.330   6.511  10.870 -0.6042 -0.3686  0.2996
  153SAPE   O1116967   6.425   6.546  10.643 -0.0851 -0.5171 -0.6459
  153SAPE    C116968   6.553   6.614  10.644 -0.1104 -0.6020  0.8633
  153SAPE    HA16969   6.545   6.710  10.698  2.0621 -0.6757  1.3583
  153SAPE    HB16970   6.626   6.555  10.702  2.4436 -2.0057 -3.5111
  153SAPE    C216971   6.601   6.639  10.500 -1.1918  0.3165 -0.0573
  153SAPE    HS16972   6.702   6.685  10.505 -1.2791  0.4602  0.4378
  153SAPE   O2116973   6.514   6.732  10.435  0.6826 -0.4107 -0.4988
  153SAPE   C2116974   6.534   6.858  10.476 -0.2398 -0.2147  0.0579
  153SAPE   O2216975   6.614   6.894  10.558 -0.1914  0.7346  0.2122
  153SAPE   C2216976   6.420   6.948  10.416 -0.4845 -0.1940  0.4349
  153SAPE   H2R16977   6.349   6.883  10.362 -0.7215  1.8127 -1.7336
  153SAPE   H2S16978   6.364   7.006  10.492  0.6275  1.2850  0.1531
  153SAPE    C316979   6.618   6.502  10.433  0.0016 -0.0400 -0.8392
  153SAPE    HX16980   6.529   6.436  10.435  0.1218 -0.2491 -2.1413
  153SAPE    HY16981   6.695   6.451  10.496  0.1801  2.1870  0.7884
  153SAPE   O3116982   6.662   6.517  10.299  1.0091  0.2911 -0.3099
  153SAPE   C3116983   6.679   6.407  10.231 -0.1376  0.3523 -0.0755
  153SAPE   O3216984   6.639   6.297  10.258  0.2494 -0.2554 -0.0193
  153SAPE   C3216985   6.731   6.446  10.092 -0.3292 -0.4948  0.4347
  153SAPE   H2X16986   6.837   6.476  10.105 -0.6254  0.1400  1.4800
  153SAPE   H2Y16987   6.678   6.541  10.070  3.5106  1.3202 -1.3723
  153SAPE   C2316988   6.474   7.044  10.320  0.4880  0.2121 -0.2487
  153SAPE   H3R16989   6.536   7.123  10.368  0.4583  1.4499 -2.1814
  153SAPE   H3S16990   6.386   7.106  10.291  1.0336  0.7270 -0.8153
  153SAPE   C2416991   6.532   6.979  10.191  0.0022  0.1463  0.3764
  153SAPE   H4R16992   6.614   6.912  10.222 -1.1083 -1.3743  0.0928
  153SAPE   H4S16993   6.573   7.063  10.131 -1.8178 -1.1794 -2.8644
  153SAPE   C2516994   6.434   6.898  10.113 -0.2523  0.5462  0.0788
  153SAPE   H5R16995   6.390   6.814  10.168 -1.0476  0.9302  0.0363
  153SAPE   C2616996   6.404   6.909   9.983 -0.2650 -0.3397  0.0297
  153SAPE   H6R16997   6.318   6.858   9.937 -2.9314  3.4189  0.6100
  153SAPE   C2716998   6.463   7.008   9.886 -0.3236 -0.3014 -0.9048
  153SAPE   H7R16999   6.574   6.997   9.888 -0.4881 -1.8397  0.0653
  153SAPE   H7S17000   6.449   7.111   9.926 -3.1272 -1.4882  1.2874
  153SAPE   C2817001   6.411   6.999   9.742  0.6623 -0.4078  0.2939
  153SAPE   H8R17002   6.305   6.972   9.751  0.6103 -0.5095 -0.6019
  153SAPE   C2917003   6.472   7.010   9.625  0.9012 -0.1016  0.3224
  153SAPE   H9R17004   6.413   7.009   9.532  1.0749  2.4964  0.1480
  153SAPE  C21017005   6.620   7.029   9.592  0.3351 -0.8031  0.2514
  153SAPE  H10R17006   6.686   7.046   9.679 -0.1748 -0.8022  0.6392
  153SAPE  H10S17007   6.620   7.129   9.545  1.6304 -1.4274 -1.1150
  153SAPE  C21117008   6.664   6.919   9.502 -0.1530  0.4852  0.5664
  153SAPE  H11R17009   6.714   6.833   9.549 -1.8880 -1.5337 -1.1790
  153SAPE  C21217010   6.669   6.919   9.362  0.6274 -0.0675 -0.4073
  153SAPE  H12R17011   6.713   6.835   9.306 -1.2843 -0.5229 -1.2658
  153SAPE  C21317012   6.614   7.030   9.277 -0.6015 -0.2680  0.4674
  153SAPE  H13R17013   6.538   7.091   9.330 -1.0078 -0.5777  0.2338
  153SAPE  H13S17014   6.578   6.984   9.183 -1.7562 -0.0442  0.7925
  153SAPE  C21417015   6.720   7.136   9.256 -0.1153 -0.2549  0.4981
  153SAPE  H14R17016   6.746   7.200   9.342  2.0115 -0.2897 -0.0963
  153SAPE  C21517017   6.802   7.147   9.149  0.0438 -0.0263  0.7042
  153SAPE  H15R17018   6.883   7.220   9.160  1.4391 -1.2982 -0.8708
  153SAPE  C21617019   6.805   7.060   9.034  0.1988  0.4840  1.0215
  153SAPE  H16R17020   6.733   6.976   9.046 -0.7057  1.0436 -0.3227
  153SAPE  H16S17021   6.911   7.029   9.021  0.6251  1.1556  2.7958
  153SAPE  C21717022   6.752   7.141   8.913  0.2968  0.2955  0.3662
  153SAPE  H17R17023   6.761   7.074   8.825  0.2580  0.9169 -0.1058
  153SAPE  H17S17024   6.824   7.223   8.898  0.1861 -0.1564 -2.8923
  153SAPE  C21817025   6.608   7.197   8.925  0.1295 -0.4758 -0.3715
  153SAPE  H18R17026   6.593   7.258   9.017  0.0651 -1.1832  0.0839
  153SAPE  H18S17027   6.541   7.110   8.933 -0.9701  0.5147  1.3716
  153SAPE  C21917028   6.560   7.268   8.801  0.0360 -0.7105  0.5473
  153SAPE  H19R17029   6.631   7.346   8.766  0.2202 -1.0069  0.2656
  153SAPE  H19S17030   6.472   7.334   8.820 -0.8827 -1.8557  0.3365
  153SAPE  C22017031   6.520   7.169   8.688 -0.2026  0.0489 -0.8730
  153SAPE  H20R17032   6.607   7.101   8.680 -1.0850 -1.0695 -1.1694
  153SAPE  H20S17033   6.510   7.224   8.592  0.1861 -0.7726 -1.3874
  153SAPE  H20T17034   6.426   7.111   8.702  0.1807 -0.5198 -0.6012
  153SAPE   C3317035   6.719   6.327   9.997 -0.3353  0.1014  0.1023
  153SAPE   H3X17036   6.613   6.317   9.968 -0.6903 -1.7556  1.9429
  153SAPE   H3Y17037   6.744   6.235  10.054 -0.2845 -0.1145 -0.2683
  153SAPE   C3417038   6.809   6.334   9.872 -0.1896  0.7695  0.3887
  153SAPE   H4X17039   6.914   6.345   9.905 -0.0073  0.9782 -0.2723
  153SAPE   H4Y17040   6.782   6.432   9.828 -3.9113  0.0331  0.7977
  153SAPE   C3517041   6.796   6.208   9.786 -0.1833  0.5661 -0.5346
  153SAPE   H5X17042   6.686   6.197   9.775 -0.7516  1.5060  3.3614
  153SAPE   H5Y17043   6.833   6.119   9.842 -0.7426 -1.6061 -3.4985
  153SAPE   C3617044   6.872   6.204   9.654  0.1432 -0.0152  0.1107
  153SAPE   H6X17045   6.893   6.103   9.612  1.9705  0.9420 -1.3227
  153SAPE   H6Y17046   6.965   6.254   9.688 -0.4949  0.4443  1.2408
  153SAPE   C3717047   6.817   6.301   9.545 -0.0748  0.2196  0.6816
  153SAPE   H7X17048   6.902   6.340   9.485  0.3656  1.0996  1.8606
  153SAPE   H7Y17049   6.761   6.384   9.593 -1.8780 -0.7462  0.2666
  153SAPE   C3817050   6.718   6.227   9.456  0.4759  0.7676 -0.3721
  153SAPE   H8X17051   6.631   6.206   9.521  0.6132 -0.7863 -0.6585
  153SAPE   H8Y17052   6.757   6.125   9.435  0.3609  0.4623  0.8300
  153SAPE   C3917053   6.689   6.293   9.325 -0.2448 -0.1420  0.6382
  153SAPE   H9X17054   6.790   6.326   9.294 -0.3465  0.2008  0.6642
  153SAPE   H9Y17055   6.624   6.382   9.344 -0.0079 -0.0751  1.1322
  153SAPE  C31017056   6.606   6.205   9.221  0.1654  0.1850 -0.6675
  153SAPE  H10X17057   6.678   6.129   9.184 -0.9920 -0.5819 -1.3673
  153SAPE  H10Y17058   6.565   6.273   9.143 -0.9776  2.6912  2.0229
  153SAPE  C31117059   6.486   6.134   9.290  0.4408 -0.5353 -0.1072
  153SAPE  H11X17060   6.430   6.191   9.368 -0.5740 -1.0472 -0.4592
  153SAPE  H11Y17061   6.529   6.057   9.359  1.0550 -0.2058 -0.1152
  153SAPE  C31217062   6.382   6.068   9.191  0.0952  0.1218 -0.4545
  153SAPE  H12X17063   6.342   6.144   9.120  3.0192  2.0485 -0.1505
  153SAPE  H12Y17064   6.292   6.034   9.246  0.6034  1.2199  1.0698
  153SAPE  C31317065   6.449   5.951   9.117  0.2857  0.3918  0.1200
  153SAPE  H13X17066   6.470   5.874   9.194  0.7655  0.4186  0.0112
  153SAPE  H13Y17067   6.547   5.983   9.076  1.2665  0.1334  2.1948
  153SAPE  C31417068   6.348   5.904   9.005 -0.1592 -0.2638  0.2192
  153SAPE  H14X17069   6.350   5.982   8.926 -3.5620  1.3318  1.5638
  153SAPE  H14Y17070   6.245   5.908   9.047 -1.1679 -0.6481 -2.1490
  153SAPE  C31517071   6.406   5.777   8.940  0.5578  0.0747  0.1967
  153SAPE  H15X17072   6.398   5.696   9.016  0.2483  0.4561  0.5770
  153SAPE  H15Y17073   6.512   5.793   8.910  0.2670  2.4173  0.3451
  153SAPE  C31617074   6.324   5.733   8.818  0.5536 -0.7091  0.4012
  153SAPE  H16X17075   6.319   5.828   8.759  0.1382 -1.3578 -0.6305
  153SAPE  H16Y17076   6.219   5.705   8.842  0.3646 -1.5084 -1.2708
  153SAPE  C31717077   6.394   5.619   8.738  0.5186  0.5086 -0.2699
  153SAPE  H17X17078   6.414   5.529   8.801  0.6633 -0.7223 -2.0435
  153SAPE  H17Y17079   6.489   5.662   8.700  0.9975 -0.1130  0.1965
  153SAPE  C31817080   6.303   5.571   8.626 -0.1165  0.7824 -0.3661
  153SAPE  H18X17081   6.333   5.620   8.531  2.0846 -1.0398 -0.6599
  153SAPE  H18Y17082   6.196   5.600   8.636 -0.0283  1.4717 -1.3329
  153SAPE  H18Z17083   6.322   5.462   8.618  1.3123  0.9283  0.7982
  154SAPE     N17084   1.028   6.419  10.931  0.4779  0.0515 -0.2586
  154SAPE   HN117085   1.052   6.322  10.902 -2.7365 -0.0029 -3.0186
  154SAPE   HN217086   1.112   6.475  10.957  0.1868 -0.3824  1.7006
  154SAPE   HN317087   0.962   6.420  11.012  0.4494 -3.1151 -0.1800
  154SAPE   C1217088   0.976   6.491  10.804  0.3329  0.0844  0.1805
  154SAPE  H12A17089   1.049   6.482  10.721 -1.3805 -3.4870 -1.0307
  154SAPE  H12B17090   0.973   6.599  10.832 -0.1698 -0.0861  0.8030
  154SAPE   C1117091   0.848   6.427  10.750  0.0502  0.3475 -0.3521
  154SAPE  H11A17092   0.768   6.441  10.825 -0.6822  1.9503 -1.4088
  154SAPE  H11B17093   0.875   6.320  10.735  2.2741  0.4775  2.1900
  154SAPE     P17094   0.659   6.464  10.575 -0.1467  0.4249 -0.2104
  154SAPE   O1317095   0.602   6.331  10.604  0.0750  0.0401 -0.1553
  154SAPE   O1417096   0.591   6.581  10.632 -0.1462  0.2234 -0.0823
  154SAPE   O1217097   0.812   6.482  10.625 -0.6255 -0.7763  0.1573
  154SAPE   O1117098   0.667   6.484  10.418 -0.3895  0.0345 -0.4678
  154SAPE    C117099   0.784   6.541  10.354  0.4785  0.3168  0.2416
  154SAPE    HA17100   0.854   6.601  10.418  0.5192 -0.6722  1.1432
  154SAPE    HB17101   0.851   6.464  10.310  0.8328  1.6125 -1.5264
  154SAPE    C217102   0.735   6.631  10.236 -0.6386  0.5846 -0.3185
  154SAPE    HS17103   0.643   6.679  10.276  0.6208  0.3254  3.0525
  154SAPE   O2117104   0.724   6.562  10.112  0.1339  0.3032 -0.0917
  154SAPE   C2117105   0.612   6.496  10.081  0.0281  0.9116  0.2354
  154SAPE   O2217106   0.507   6.503  10.142  0.5794  0.5165  0.2909
  154SAPE   C2217107   0.631   6.410   9.954  0.0896 -0.3963  0.0777
  154SAPE   H2R17108   0.725   6.444   9.905  1.3536 -1.5126  1.6808
  154SAPE   H2S17109   0.644   6.305   9.987  2.3532 -0.6110 -1.3477
  154SAPE    C317110   0.843   6.733  10.213 -0.3364  0.3287 -0.2597
  154SAPE    HX17111   0.947   6.694  10.202  0.7350  2.8320  0.6693
  154SAPE    HY17112   0.852   6.785  10.311  0.4554 -0.4403  0.0893
  154SAPE   O3117113   0.815   6.831  10.113 -0.3586  0.5226  0.6423
  154SAPE   C3117114   0.710   6.909  10.144 -0.1994  0.1985  0.7326
  154SAPE   O3217115   0.654   6.920  10.248 -0.2319  0.4200 -0.2143
  154SAPE   C3217116   0.664   6.978  10.015 -0.2061 -0.3860  0.6649
  154SAPE   H2X17117   0.702   7.083  10.021 -1.0019 -0.0964  0.6666
  154SAPE   H2Y17118   0.553   6.980  10.019 -0.2931  1.6648 -1.7813
  154SAPE   C2317119   0.506   6.440   9.866  0.1864 -0.4763 -0.1356
  154SAPE   H3R17120   0.499   6.550   9.854  1.4324 -0.3616  0.0850
  154SAPE   H3S17121   0.415   6.407   9.921 -0.2090 -0.1260 -0.5774
  154SAPE   C2417122   0.502   6.376   9.726  0.5867  0.3509 -0.3611
  154SAPE   H4R17123   0.588   6.413   9.666  2.9984 -2.2971  1.3011
  154SAPE   H4S17124   0.413   6.414   9.672  0.3557  0.0241 -0.2034
  154SAPE   C2517125   0.504   6.225   9.727 -0.6682 -0.3252 -0.2123
  154SAPE   H5R17126   0.453   6.185   9.816 -2.1522  0.0324 -0.8765
  154SAPE   C2617127   0.552   6.156   9.627  0.0504 -0.1611 -0.0655
  154SAPE   H6R17128   0.554   6.046   9.637  0.0436 -0.0970  0.6572
  154SAPE   C2717129   0.615   6.216   9.503  0.4653 -0.0033  0.3222
  154SAPE   H7R17130   0.715   6.256   9.527  1.4204 -0.5613 -2.5041
  154SAPE   H7S17131   0.557   6.299   9.459 -0.6304 -0.5759  0.6673
  154SAPE   C2817132   0.631   6.112   9.389 -0.5526  0.1596  0.1330
  154SAPE   H8R17133   0.727   6.058   9.399 -0.9850 -0.4730  0.9273
  154SAPE   C2917134   0.533   6.062   9.317  0.1219 -0.4372  0.3029
  154SAPE   H9R17135   0.557   5.993   9.235  2.9795  0.0730  0.6569
  154SAPE  C21017136   0.385   6.091   9.318 -1.0457 -0.2050  0.5057
  154SAPE  H10R17137   0.343   6.098   9.421  0.0234 -0.7989  1.0007
  154SAPE  H10S17138   0.338   6.004   9.268 -1.0044 -0.3076  0.6446
  154SAPE  C21117139   0.354   6.224   9.247 -0.1013  0.2424 -0.8963
  154SAPE  H11R17140   0.379   6.310   9.310 -0.8868  0.6632 -1.1512
  154SAPE  C21217141   0.294   6.235   9.126  0.4050 -0.3342 -0.4491
  154SAPE  H12R17142   0.290   6.338   9.088 -0.4922 -0.0433  0.3914
  154SAPE  C21317143   0.244   6.125   9.036 -0.8091  0.4901 -0.7669
  154SAPE  H13R17144   0.149   6.077   9.069  0.0543 -1.2425 -0.7819
  154SAPE  H13S17145   0.315   6.040   9.038 -0.3426  0.8924  0.2264
  154SAPE  C21417146   0.240   6.178   8.895 -0.1842 -0.0735  0.7043
  154SAPE  H14R17147   0.331   6.165   8.835  1.1603 -0.7689  2.8254
  154SAPE  C21517148   0.128   6.220   8.834  0.3697 -0.3660  0.5184
  154SAPE  H15R17149   0.147   6.279   8.743  0.5191  0.1909  0.9078
  154SAPE  C21617150  -0.009   6.227   8.890 -0.1236 -0.2601  1.0064
  154SAPE  H16R17151  -0.053   6.323   8.855  1.6616  1.0800  2.3514
  154SAPE  H16S17152  -0.013   6.232   9.001  0.0663 -0.5417  1.0255
  154SAPE  C21717153  -0.111   6.115   8.853 -0.0091  0.3764 -0.4919
  154SAPE  H17R17154  -0.206   6.127   8.908 -0.9226 -1.2575 -1.6646
  154SAPE  H17S17155  -0.067   6.016   8.880 -0.6820  0.2861  0.2884
  154SAPE  C21817156  -0.134   6.114   8.705  0.5279 -0.2756  0.5982
  154SAPE  H18R17157  -0.048   6.069   8.652  1.1627 -1.2430  2.4153
  154SAPE  H18S17158  -0.162   6.213   8.663 -0.5440 -0.6916  0.3029
  154SAPE  C21917159  -0.262   6.036   8.681 -0.0821 -0.0329  0.4524
  154SAPE  H19R17160  -0.352   6.096   8.707 -0.3253  0.6547 -1.9423
  154SAPE  H19S17161  -0.277   5.946   8.745  1.3860  0.5208  1.6032
  154SAPE  C22017162  -0.280   5.987   8.534  0.0501 -0.0610  0.3791
  154SAPE  H20R17163  -0.366   5.917   8.520  0.1459 -0.3944  1.3833
  154SAPE  H20S17164  -0.186   5.940   8.497  1.1964  2.0815  0.5254
  154SAPE  H20T17165  -0.283   6.075   8.466  2.5682  0.5540  0.9991
  154SAPE   C3317166   0.721   6.906   9.889 -0.6301 -0.5333 -0.1184
  154SAPE   H3X17167   0.697   6.798   9.893 -2.0204 -0.1596  3.9318
  154SAPE   H3Y17168   0.831   6.921   9.890 -0.8497  1.2148  0.6660
  154SAPE   C3417169   0.668   6.966   9.762  0.7824  0.4163  0.4036
  154SAPE   H4X17170   0.683   7.075   9.748  0.5500  0.3321 -0.5554
  154SAPE   H4Y17171   0.560   6.943   9.766  0.9364 -1.0529 -2.5872
  154SAPE   C3517172   0.740   6.903   9.647 -0.0078  0.0738  0.8201
  154SAPE   H5X17173   0.748   6.794   9.668  0.1866 -0.0420  0.1348
  154SAPE   H5Y17174   0.846   6.936   9.652 -0.3559  1.1598  1.2469
  154SAPE   C3617175   0.695   6.940   9.506  0.1123 -0.0780  0.6961
  154SAPE   H6X17176   0.741   7.038   9.480  0.6500  0.1353  2.3843
  154SAPE   H6Y17177   0.585   6.953   9.496  0.1807 -0.5573 -0.7598
  154SAPE   C3717178   0.737   6.832   9.402  0.2458 -0.0465  0.0661
  154SAPE   H7X17179   0.677   6.739   9.415 -0.5558  0.7824  2.6127
  154SAPE   H7Y17180   0.847   6.818   9.413  0.0816 -0.3869  1.3819
  154SAPE   C3817181   0.702   6.879   9.260 -0.3670 -0.1378  0.3855
  154SAPE   H8X17182   0.758   6.968   9.223 -1.3734 -0.0464 -0.9307
  154SAPE   H8Y17183   0.595   6.900   9.243  0.6851  2.9898 -2.9190
  154SAPE   C3917184   0.737   6.771   9.161 -0.1707  0.2812 -0.0995
  154SAPE   H9X17185   0.654   6.697   9.169 -2.1424  2.5654  1.3553
  154SAPE   H9Y17186   0.838   6.740   9.193  1.1249  0.8464 -3.4506
  154SAPE  C31017187   0.746   6.818   9.013  0.0330  0.7754  0.0225
  154SAPE  H10X17188   0.796   6.917   9.018 -1.2055  1.3762  0.7829
  154SAPE  H10Y17189   0.638   6.836   8.993  0.0273 -0.7671 -1.4284
  154SAPE  C31117190   0.816   6.721   8.924 -0.2256  0.3831 -0.0922
  154SAPE  H11X17191   0.739   6.650   8.887  0.5673 -2.2816  3.1079
  154SAPE  H11Y17192   0.884   6.650   8.976  0.4583  1.7241  0.8756
  154SAPE  C31217193   0.882   6.799   8.812  0.3634 -0.8051 -0.2484
  154SAPE  H12X17194   0.944   6.879   8.858  0.0620 -0.3757 -0.5891
  154SAPE  H12Y17195   0.807   6.844   8.744  0.3642  0.4836  0.5878
  154SAPE  C31317196   0.962   6.706   8.727 -0.3099  0.0739 -0.3136
  154SAPE  H13X17197   0.899   6.623   8.688  0.2109 -1.0968  1.2453
  154SAPE  H13Y17198   1.046   6.664   8.788  0.2121  0.9087 -0.4522
  154SAPE  C31417199   1.048   6.768   8.621  0.1217  0.7721  0.2466
  154SAPE  H14X17200   1.101   6.685   8.570 -0.6147 -1.0110  2.2655
  154SAPE  H14Y17201   1.132   6.817   8.676  0.4777  1.1669 -0.6398
  154SAPE  C31517202   0.988   6.872   8.520 -0.1075 -0.2264  0.2798
  154SAPE  H15X17203   1.077   6.917   8.470  1.1574 -3.1654 -0.2012
  154SAPE  H15Y17204   0.952   6.956   8.583 -0.7128  1.2654 -1.9700
  154SAPE  C31617205   0.865   6.831   8.430  0.7457 -0.2973 -0.2442
  154SAPE  H16X17206   0.850   6.931   8.385  0.7914 -0.5264 -0.7693
  154SAPE  H16Y17207   0.776   6.796   8.487  0.0187 -0.9871 -1.7788
  154SAPE  C31717208   0.911   6.725   8.330  0.4861 -0.0287 -0.1470
  154SAPE  H17X17209   0.924   6.631   8.389 -1.6020 -0.5456 -0.4728
  154SAPE  H17Y17210   1.006   6.756   8.281  0.7927  0.6895  0.8849
  154SAPE  C31817211   0.815   6.697   8.205 -0.2100 -0.4322 -0.8268
  154SAPE  H18X17212   0.809   6.787   8.141 -2.3401  0.9836  1.3009
  154SAPE  H18Y17213   0.711   6.678   8.240  0.1088  1.4638  1.2174
  154SAPE  H18Z17214   0.853   6.608   8.149 -1.5259 -1.4241 -0.1877
  155SAPE     N17215   1.621   6.565  10.734 -0.2200  0.0609 -0.3094
  155SAPE   HN117216   1.649   6.468  10.707  1.1993  0.4651 -0.3508
  155SAPE   HN217217   1.697   6.634  10.718  0.4819 -0.6400 -0.0143
  155SAPE   HN317218   1.603   6.570  10.837  1.6650 -0.1824  0.0628
  155SAPE   C1217219   1.516   6.600  10.633 -0.0828  0.0461 -0.4580
  155SAPE  H12A17220   1.432   6.531  10.656 -1.1789  0.5189 -2.8693
  155SAPE  H12B17221   1.551   6.582  10.529  1.7326  1.8757 -0.2009
  155SAPE   C1117222   1.458   6.741  10.651 -0.0583 -0.5152 -0.2846
  155SAPE  H11A17223   1.393   6.738  10.741  0.7535 -4.2586  0.2606
  155SAPE  H11B17224   1.395   6.772  10.564 -0.5506  3.6326  1.4431
  155SAPE     P17225   1.566   6.965  10.717  0.6817 -0.1714  0.0925
  155SAPE   O1317226   1.459   6.972  10.812  0.0781 -0.7126  0.0753
  155SAPE   O1417227   1.701   6.991  10.765 -0.2322 -0.2997  0.8127
  155SAPE   O1217228   1.573   6.827  10.667  0.1517 -0.0222  0.6090
  155SAPE   O1117229   1.533   7.061  10.592 -0.3677  0.8062 -0.1938
  155SAPE    C117230   1.565   7.027  10.458 -0.6440 -0.2957 -0.2441
  155SAPE    HA17231   1.607   6.924  10.452  0.7463  0.1884  0.7856
  155SAPE    HB17232   1.469   7.021  10.403 -0.8692  0.7571  0.0186
  155SAPE    C217233   1.660   7.120  10.384  0.2772 -0.6030  0.5400
  155SAPE    HS17234   1.755   7.123  10.443 -0.4856  0.3263  1.7306
  155SAPE   O2117235   1.600   7.243  10.374 -0.1879 -0.1293  0.0616
  155SAPE   C2117236   1.691   7.341  10.347  0.3875  0.5436 -0.4908
  155SAPE   O2217237   1.810   7.338  10.345 -0.1341 -0.2509 -0.1745
  155SAPE   C2217238   1.611   7.464  10.300  0.3867  0.2846 -0.1889
  155SAPE   H2R17239   1.525   7.429  10.238 -1.1088  0.0510  1.9700
  155SAPE   H2S17240   1.565   7.515  10.387 -1.4749 -1.0247 -0.3653
  155SAPE    C317241   1.688   7.059  10.246 -0.2642 -0.3696  0.4191
  155SAPE    HX17242   1.597   7.074  10.184 -0.4287  0.4253  0.8519
  155SAPE    HY17243   1.700   6.949  10.261  2.0357 -0.2430 -0.3347
  155SAPE   O3117244   1.807   7.121  10.192  0.4928 -0.1042  0.0291
  155SAPE   C3117245   1.929   7.071  10.227  0.5759 -0.2704 -0.1471
  155SAPE   O3217246   1.944   6.972  10.294 -0.8125 -0.1379  0.4934
  155SAPE   C3217247   2.047   7.143  10.162 -0.0760  0.0177 -0.7467
  155SAPE   H2X17248   2.110   7.192  10.239 -0.6331 -2.9667  1.6849
  155SAPE   H2Y17249   2.016   7.224  10.092 -1.2967  1.1449  1.0425
  155SAPE   C2317250   1.696   7.581  10.237 -0.2805 -0.1091  0.2103
  155SAPE   H3R17251   1.794   7.590  10.287  0.5225 -0.7331 -1.2108
  155SAPE   H3S17252   1.641   7.676  10.257  0.2479 -0.2709  2.4508
  155SAPE   C2417253   1.710   7.573  10.077 -0.3655 -0.2522  0.4221
  155SAPE   H4R17254   1.617   7.593  10.020 -0.8868 -2.5045  0.4314
  155SAPE   H4S17255   1.732   7.467  10.052 -0.0232 -0.2456  0.6883
  155SAPE   C2517256   1.826   7.662  10.031 -0.4895 -0.1304 -0.3625
  155SAPE   H5R17257   1.802   7.768  10.048 -0.9553 -0.6210  2.2117
  155SAPE   C2617258   1.938   7.619   9.971  0.6240  0.1737  0.4024
  155SAPE   H6R17259   2.008   7.699   9.945  0.0164  0.3419 -0.7669
  155SAPE   C2717260   1.973   7.475   9.938  0.2741  0.3425 -0.0159
  155SAPE   H7R17261   1.918   7.454   9.844  1.3851 -0.8633 -0.4169
  155SAPE   H7S17262   1.928   7.403  10.010  0.3137 -0.4638 -0.7992
  155SAPE   C2817263   2.122   7.448   9.927 -0.5237  0.1300  0.4935
  155SAPE   H8R17264   2.169   7.392  10.009  3.7708  0.3931 -1.6958
  155SAPE   C2917265   2.201   7.472   9.818 -0.3832  0.0283  0.1636
  155SAPE   H9R17266   2.308   7.445   9.812 -0.6753 -1.3026  0.8460
  155SAPE  C21017267   2.154   7.525   9.684  0.0811  0.3573  0.2798
  155SAPE  H10R17268   2.074   7.601   9.700  1.6882  1.8866  1.1523
  155SAPE  H10S17269   2.118   7.432   9.635  3.8581 -0.3602 -1.2706
  155SAPE  C21117270   2.270   7.567   9.601 -0.1323 -0.1529 -0.0835
  155SAPE  H11R17271   2.357   7.598   9.660 -0.8635  0.6833  0.5823
  155SAPE  C21217272   2.272   7.572   9.464 -0.5976 -0.9812 -0.4584
  155SAPE  H12R17273   2.361   7.611   9.414  0.1530 -0.1404  1.4980
  155SAPE  C21317274   2.166   7.539   9.363  0.4780 -0.8802  0.4795
  155SAPE  H13R17275   2.132   7.636   9.321  2.1151 -0.3366  0.3670
  155SAPE  H13S17276   2.074   7.500   9.410 -2.0592  2.1477 -1.7331
  155SAPE  C21417277   2.216   7.441   9.252 -0.3430  0.9014  0.2315
  155SAPE  H14R17278   2.227   7.333   9.271 -0.3202  0.8749  0.0690
  155SAPE  C21517279   2.265   7.475   9.134  0.2332 -0.3490  0.2393
  155SAPE  H15R17280   2.308   7.399   9.067 -0.7671 -0.8600  0.1779
  155SAPE  C21617281   2.275   7.613   9.083 -0.1161 -0.1900  0.2820
  155SAPE  H16R17282   2.373   7.618   9.029  0.1229 -0.2917  0.7041
  155SAPE  H16S17283   2.294   7.690   9.161 -0.4447  1.4972 -1.2757
  155SAPE  C21717284   2.159   7.666   8.991 -0.4911 -0.1879 -0.0514
  155SAPE  H17R17285   2.154   7.777   8.986  0.0187 -0.1886 -0.6297
  155SAPE  H17S17286   2.072   7.634   9.053  0.3181  0.2799  1.3465
  155SAPE  C21817287   2.146   7.605   8.846  0.1074  0.3126 -0.0627
  155SAPE  H18R17288   2.063   7.661   8.799 -1.1424 -0.4415  1.2044
  155SAPE  H18S17289   2.122   7.496   8.852  1.2743  0.1277  1.7092
  155SAPE  C21917290   2.287   7.608   8.786 -0.0751 -0.0629 -0.3877
  155SAPE  H19R17291   2.343   7.528   8.839  0.1030 -0.3087 -0.9494
  155SAPE  H19S17292   2.341   7.704   8.800 -0.6790  0.2318 -0.0400
  155SAPE  C22017293   2.281   7.565   8.637 -0.6219 -0.7550 -0.2632
  155SAPE  H20R17294   2.252   7.458   8.624  0.6631 -1.0125 -1.1912
  155SAPE  H20S17295   2.379   7.581   8.586 -0.3114 -0.9705  0.2565
  155SAPE  H20T17296   2.206   7.630   8.588 -0.2315 -0.0107  0.1134
  155SAPE   C3317297   2.136   7.037  10.084 -0.5359 -0.4376  0.8245
  155SAPE   H3X17298   2.169   6.959  10.155  0.4558 -1.4962 -0.7552
  155SAPE   H3Y17299   2.226   7.094  10.052 -2.5933  2.4579 -0.0320
  155SAPE   C3417300   2.079   6.985   9.950 -0.0230 -0.5983  1.1922
  155SAPE   H4X17301   1.977   6.946   9.971  0.1838 -2.3745 -0.9427
  155SAPE   H4Y17302   2.148   6.905   9.916  0.7492  0.1478  1.0059
  155SAPE   C3517303   2.063   7.085   9.834 -0.0090 -0.2265  0.1209
  155SAPE   H5X17304   2.159   7.139   9.815  1.0491 -1.3337  2.1950
  155SAPE   H5Y17305   1.988   7.163   9.860  0.7924  0.2559  1.0194
  155SAPE   C3617306   2.025   7.004   9.703  0.8487  0.4700 -0.6366
  155SAPE   H6X17307   1.922   6.962   9.707  1.0968  0.0073  1.4467
  155SAPE   H6Y17308   2.098   6.920   9.709  0.4648  0.1463 -0.4757
  155SAPE   C3717309   2.033   7.083   9.577  0.0340 -0.4728 -0.0898
  155SAPE   H7X17310   2.136   7.124   9.579 -0.0880 -0.1686  0.0863
  155SAPE   H7Y17311   1.962   7.168   9.587  1.3136  0.6024  0.0040
  155SAPE   C3817312   2.015   7.012   9.440  0.3106 -0.1299  0.3597
  155SAPE   H8X17313   1.929   6.941   9.439  1.8106 -1.9982 -2.5176
  155SAPE   H8Y17314   2.106   6.949   9.430  0.1269 -0.0085 -2.1808
  155SAPE   C3917315   1.979   7.101   9.325 -0.2298  0.2598 -0.7905
  155SAPE   H9X17316   2.057   7.179   9.322 -0.3426  0.5503  1.9571
  155SAPE   H9Y17317   1.881   7.145   9.354 -0.5315 -1.7603  1.4729
  155SAPE  C31017318   1.964   7.018   9.200  0.3268 -0.1336 -0.3436
  155SAPE  H10X17319   1.872   6.958   9.216  0.4236 -0.2484 -0.2121
  155SAPE  H10Y17320   2.052   6.951   9.192 -0.3909 -0.7617 -3.7489
  155SAPE  C31117321   1.936   7.085   9.061 -0.6723  0.4129 -0.5919
  155SAPE  H11X17322   1.911   7.008   8.985 -1.8508  0.5619 -0.3594
  155SAPE  H11Y17323   2.034   7.122   9.025 -1.2428  1.4106 -1.1234
  155SAPE  C31217324   1.822   7.181   9.076 -0.3033 -0.2745 -1.1849
  155SAPE  H12X17325   1.831   7.246   9.166  2.9708 -0.4775 -1.2939
  155SAPE  H12Y17326   1.723   7.138   9.100 -0.4285  0.3014 -0.6423
  155SAPE  C31317327   1.790   7.261   8.947 -0.3782  0.1024  0.8491
  155SAPE  H13X17328   1.887   7.289   8.900 -1.0470  1.2120  0.1202
  155SAPE  H13Y17329   1.747   7.357   8.981 -2.6333 -1.0719  1.4420
  155SAPE  C31417330   1.699   7.203   8.829  0.4212 -0.1674 -0.9366
  155SAPE  H14X17331   1.693   7.279   8.747 -1.1727 -0.2090 -0.8778
  155SAPE  H14Y17332   1.600   7.197   8.879 -0.0771  0.8041 -1.7873
  155SAPE  C31517333   1.737   7.072   8.769  0.7351  0.4683  0.0731
  155SAPE  H15X17334   1.669   7.039   8.688  0.1891 -1.8187  1.4120
  155SAPE  H15Y17335   1.736   6.991   8.845 -0.5730  1.2620  0.9344
  155SAPE  C31617336   1.863   7.083   8.694  0.1130  0.4201  0.0333
  155SAPE  H16X17337   1.939   7.132   8.759  0.4625 -0.3688  0.2230
  155SAPE  H16Y17338   1.848   7.149   8.606  0.3064  0.1000 -0.2409
  155SAPE  C31717339   1.918   6.950   8.633  0.1147 -0.1571 -0.1786
  155SAPE  H17X17340   1.839   6.901   8.572  1.0152 -1.6474 -0.1758
  155SAPE  H17Y17341   1.945   6.876   8.711 -3.5134 -1.3982 -0.0245
  155SAPE  C31817342   2.041   6.979   8.548  1.1817  0.1363  0.0683
  155SAPE  H18X17343   2.011   7.055   8.473 -0.0620  0.8371  1.2607
  155SAPE  H18Y17344   2.073   6.886   8.497  0.4713 -0.0747 -0.0017
  155SAPE  H18Z17345   2.137   7.010   8.595  0.2751  1.1837  1.2613
  156SAPE     N17346   5.975   5.618  10.472 -0.4077 -0.3392 -0.6032
  156SAPE   HN117347   6.017   5.703  10.517  0.8872 -1.1639 -0.2357
  156SAPE   HN217348   5.871   5.622  10.461 -1.0370 -1.9032  3.5730
  156SAPE   HN317349   5.988   5.543  10.542  0.3161 -0.4103 -0.8187
  156SAPE   C1217350   6.040   5.578  10.352  0.5520 -0.2395 -1.0519
  156SAPE  H12A17351   6.146   5.558  10.380  0.2552 -0.7680 -0.2935
  156SAPE  H12B17352   6.027   5.664  10.283 -1.3931  1.3680  1.2125
  156SAPE   C1117353   5.987   5.446  10.298  0.7275  0.0014 -0.7654
  156SAPE  H11A17354   6.033   5.424  10.199 -1.3467  2.1313 -2.2825
  156SAPE  H11B17355   5.877   5.456  10.281  0.6515  0.2539 -0.1431
  156SAPE     P17356   5.914   5.209  10.375  0.2944  0.1044  0.3042
  156SAPE   O1317357   5.987   5.088  10.419  0.2396 -0.1285  0.0185
  156SAPE   O1417358   5.787   5.242  10.441  0.3970  0.6419  0.3055
  156SAPE   O1217359   6.008   5.337  10.387 -0.1412  0.7564 -0.5603
  156SAPE   O1117360   5.891   5.216  10.220  0.1142 -0.4093 -0.0968
  156SAPE    C117361   5.760   5.176  10.172  0.3269 -0.6317 -0.3224
  156SAPE    HA17362   5.736   5.072  10.201 -0.5596 -0.9851 -2.2536
  156SAPE    HB17363   5.687   5.250  10.212  1.3707 -0.1304  0.7046
  156SAPE    C217364   5.763   5.176  10.021  0.4768 -0.8127 -0.6624
  156SAPE    HS17365   5.755   5.279   9.982  1.7062 -0.7466 -0.7759
  156SAPE   O2117366   5.642   5.111   9.967 -0.4113 -0.3261  0.1095
  156SAPE   C2117367   5.528   5.155  10.004  0.3227  0.5329  0.5826
  156SAPE   O2217368   5.514   5.258  10.067 -0.4873  0.4132  0.1548
  156SAPE   C2217369   5.421   5.067   9.946 -0.3605  0.2232 -0.1076
  156SAPE   H2R17370   5.467   4.989   9.882  0.0669 -0.2608  0.7886
  156SAPE   H2S17371   5.366   5.010  10.024 -0.1090 -1.3031 -1.0383
  156SAPE    C317372   5.887   5.105   9.959  0.3022  0.2113  0.3272
  156SAPE    HX17373   5.887   4.998   9.991 -3.0791  1.1380  3.7863
  156SAPE    HY17374   5.977   5.154  10.002  2.7381 -1.2332 -2.8929
  156SAPE   O3117375   5.885   5.120   9.815  0.3431  0.8550 -0.4177
  156SAPE   C3117376   5.994   5.070   9.761  0.5736  0.1447  0.3452
  156SAPE   O3217377   6.090   5.030   9.827 -0.7737 -0.3333  0.1934
  156SAPE   C3217378   5.996   5.078   9.603 -0.1036  0.0255 -0.2458
  156SAPE   H2X17379   6.035   5.179   9.574 -1.6055  0.2406 -1.5526
  156SAPE   H2Y17380   5.894   5.065   9.563 -0.0702  0.0772 -0.3483
  156SAPE   C2317381   5.319   5.126   9.851 -0.3244 -0.0504  0.2696
  156SAPE   H3R17382   5.292   5.224   9.894 -0.2284  0.2699 -0.3960
  156SAPE   H3S17383   5.222   5.073   9.862 -0.2130 -0.4841 -0.8430
  156SAPE   C2417384   5.351   5.134   9.703  0.7614 -0.5657  0.6846
  156SAPE   H4R17385   5.461   5.151   9.695  0.4688  2.0366  1.4744
  156SAPE   H4S17386   5.297   5.225   9.668  1.7880  0.4551  1.6826
  156SAPE   C2517387   5.297   5.013   9.635  0.0978  0.1823  0.0161
  156SAPE   H5R17388   5.284   4.926   9.701  1.4293  0.4713  0.6728
  156SAPE   C2617389   5.267   5.006   9.501 -0.4664 -0.5095 -0.1307
  156SAPE   H6R17390   5.211   4.916   9.470 -3.0502  1.1957 -0.5791
  156SAPE   C2717391   5.276   5.116   9.400  0.4664 -0.4472  0.1902
  156SAPE   H7R17392   5.379   5.111   9.358  0.5757 -1.1617  0.5364
  156SAPE   H7S17393   5.276   5.215   9.451  0.8923 -1.0919  1.4814
  156SAPE   C2817394   5.165   5.105   9.313 -0.5434  0.3195  0.1771
  156SAPE   H8R17395   5.067   5.118   9.360 -1.4799 -0.1994 -1.5522
  156SAPE   C2917396   5.171   5.085   9.181  0.7409  0.5775 -0.5809
  156SAPE   H9R17397   5.084   5.079   9.114  1.1831  2.1257 -1.3154
  156SAPE  C21017398   5.305   5.076   9.113 -0.0826  0.0396  0.1368
  156SAPE  H10R17399   5.366   5.020   9.188  1.6279  0.7899 -0.6591
  156SAPE  H10S17400   5.356   5.174   9.102  0.0133  0.0436  0.6090
  156SAPE  C21117401   5.319   4.985   8.998 -0.1722 -0.3090 -0.0799
  156SAPE  H11R17402   5.355   4.883   9.017  0.0593 -0.5583 -1.8343
  156SAPE  C21217403   5.294   5.020   8.873 -0.1135 -0.5999 -0.4816
  156SAPE  H12R17404   5.311   4.950   8.790  1.8912  0.0937 -0.6735
  156SAPE  C21317405   5.233   5.149   8.826 -0.5202  0.2723  0.1473
  156SAPE  H13R17406   5.322   5.194   8.777  0.5153  0.2830  1.9868
  156SAPE  H13S17407   5.209   5.208   8.916 -1.0174  1.5875 -0.8259
  156SAPE  C21417408   5.112   5.125   8.738  0.5164  0.1458  0.1802
  156SAPE  H14R17409   5.041   5.047   8.767 -0.1231  0.0254 -1.6398
  156SAPE  C21517410   5.061   5.204   8.644  0.5732 -0.0930  0.2548
  156SAPE  H15R17411   4.968   5.192   8.587 -0.4154 -0.4155  1.8943
  156SAPE  C21617412   5.138   5.332   8.599  0.0102  0.3586 -0.4128
  156SAPE  H16R17413   5.228   5.361   8.657  0.1880 -0.0713 -0.4700
  156SAPE  H16S17414   5.078   5.422   8.624 -1.4699 -0.8321  0.4323
  156SAPE  C21717415   5.183   5.341   8.449  0.0840 -0.3942 -0.1383
  156SAPE  H17R17416   5.238   5.254   8.407  0.5551 -1.2911  2.2686
  156SAPE  H17S17417   5.259   5.422   8.438  0.7136 -0.9927 -0.2086
  156SAPE  C21817418   5.063   5.374   8.362 -0.6411 -0.4301 -0.2261
  156SAPE  H18R17419   5.012   5.467   8.396  0.9548  1.8695 -3.8248
  156SAPE  H18S17420   4.986   5.294   8.365 -2.4690  1.1731 -2.5683
  156SAPE  C21917421   5.091   5.412   8.219  0.1853  0.0796 -0.0092
  156SAPE  H19R17422   5.155   5.503   8.219 -1.2116  1.0827  1.1945
  156SAPE  H19S17423   4.991   5.436   8.179  0.1933 -0.1787 -0.1786
  156SAPE  C22017424   5.161   5.309   8.137  0.4745  0.0946 -0.4749
  156SAPE  H20R17425   5.160   5.212   8.192 -1.2605 -1.8076 -3.6942
  156SAPE  H20S17426   5.263   5.346   8.114  0.7506 -0.4939 -0.2075
  156SAPE  H20T17427   5.111   5.287   8.040  3.8181 -0.5330 -2.1291
  156SAPE   C3317428   6.084   4.965   9.553 -0.0488 -0.2718 -0.7161
  156SAPE   H3X17429   6.062   4.872   9.609  1.3023 -0.0910  0.1411
  156SAPE   H3Y17430   6.184   5.002   9.582 -0.0024  1.2420 -2.6924
  156SAPE   C3417431   6.066   4.944   9.400 -0.6942 -0.5275  0.0739
  156SAPE   H4X17432   5.957   4.923   9.386 -1.0127  0.0064  1.5816
  156SAPE   H4Y17433   6.121   4.851   9.373 -0.6053 -0.4930  0.1379
  156SAPE   C3517434   6.087   5.060   9.307  0.1810 -0.3220  0.5730
  156SAPE   H5X17435   6.190   5.098   9.298  0.6286 -0.8105  3.4224
  156SAPE   H5Y17436   6.022   5.142   9.344 -0.4899 -0.4956 -0.1795
  156SAPE   C3617437   6.045   5.020   9.164  0.1078  0.6949 -0.6537
  156SAPE   H6X17438   5.935   5.027   9.152  0.0404 -0.5087 -0.8194
  156SAPE   H6Y17439   6.062   4.911   9.148  0.6492  0.4324  1.6007
  156SAPE   C3717440   6.107   5.112   9.064  0.6520 -0.1221 -0.4451
  156SAPE   H7X17441   6.216   5.118   9.085  0.4249  0.4055  0.5993
  156SAPE   H7Y17442   6.052   5.208   9.074  2.5016  0.9107  0.0400
  156SAPE   C3817443   6.097   5.050   8.927  0.4105 -0.6593 -0.0840
  156SAPE   H8X17444   5.988   5.044   8.903  0.2987  1.8643 -0.3583
  156SAPE   H8Y17445   6.141   4.948   8.921  1.6316 -0.0444 -1.8866
  156SAPE   C3917446   6.156   5.137   8.818  0.1182 -0.5444 -0.1514
  156SAPE   H9X17447   6.259   5.170   8.843 -0.2726  0.7553 -0.2488
  156SAPE   H9Y17448   6.098   5.230   8.801 -0.5991 -0.8388  0.6606
  156SAPE  C31017449   6.148   5.081   8.674  0.3351 -0.1384 -0.0101
  156SAPE  H10X17450   6.047   5.035   8.664  0.7577 -0.8952 -0.8474
  156SAPE  H10Y17451   6.224   5.001   8.663  1.3224  0.2587  3.3552
  156SAPE  C31117452   6.157   5.180   8.556 -0.5408  0.5438 -0.1231
  156SAPE  H11X17453   6.259   5.223   8.552 -0.3056  0.0649  0.5169
  156SAPE  H11Y17454   6.102   5.274   8.579  1.4972  2.3430 -2.3720
  156SAPE  C31217455   6.121   5.126   8.419 -0.2325 -0.0788  0.3735
  156SAPE  H12X17456   6.024   5.072   8.418 -0.1900 -0.1573 -2.0548
  156SAPE  H12Y17457   6.189   5.044   8.387  0.5626  1.3200 -1.6416
  156SAPE  C31317458   6.123   5.237   8.314  0.1848  0.0759  0.3563
  156SAPE  H13X17459   6.210   5.302   8.334 -1.0290  1.4366  1.2827
  156SAPE  H13Y17460   6.030   5.297   8.323 -0.0697  0.1809 -2.4161
  156SAPE  C31417461   6.126   5.169   8.173 -0.0797  0.2364  0.2340
  156SAPE  H14X17462   6.061   5.079   8.179  0.2473  0.0221  0.5612
  156SAPE  H14Y17463   6.223   5.123   8.145 -0.9958 -2.9356  1.9436
  156SAPE  C31517464   6.068   5.262   8.072 -0.4956  0.0027 -0.0543
  156SAPE  H15X17465   6.129   5.355   8.079 -1.7333  0.9217 -1.1482
  156SAPE  H15Y17466   5.963   5.280   8.104 -0.6877 -1.0933 -0.0304
  156SAPE  C31617467   6.066   5.209   7.932 -0.0544 -0.2258 -0.2868
  156SAPE  H16X17468   5.980   5.254   7.878  0.7556 -0.0080 -1.3990
  156SAPE  H16Y17469   6.068   5.099   7.941 -1.8024 -0.0887  2.5534
  156SAPE  C31717470   6.187   5.242   7.845 -0.1697 -0.9292  0.6715
  156SAPE  H17X17471   6.189   5.353   7.839 -1.4293 -0.9621 -0.5902
  156SAPE  H17Y17472   6.169   5.209   7.741  0.4526  1.2805 -0.1582
  156SAPE  C31817473   6.313   5.165   7.898 -0.5563 -0.1486  0.5396
  156SAPE  H18X17474   6.400   5.192   7.833  0.0197  0.7347  1.6506
  156SAPE  H18Y17475   6.299   5.055   7.897 -1.3886 -0.0580 -1.4040
  156SAPE  H18Z17476   6.330   5.206   8.000 -3.3542 -1.0724  1.3934
  157SAPE     N17477   4.566   5.653  10.720 -0.4040 -0.2961 -0.2053
  157SAPE   HN117478   4.508   5.716  10.660 -1.3184  0.1804  1.1488
  157SAPE   HN217479   4.588   5.703  10.809 -1.9269  0.5684 -0.2895
  157SAPE   HN317480   4.644   5.634  10.655  1.7722  0.5600  2.0905
  157SAPE   C1217481   4.493   5.524  10.767 -0.1954 -0.0499  0.7663
  157SAPE  H12A17482   4.460   5.463  10.680  1.2777 -1.6015  1.2574
  157SAPE  H12B17483   4.415   5.559  10.838  0.3438 -0.4770  1.5794
  157SAPE   C1117484   4.597   5.430  10.840 -0.2851 -0.3668  0.5265
  157SAPE  H11A17485   4.644   5.491  10.919  0.1362 -0.9623  0.7446
  157SAPE  H11B17486   4.673   5.416  10.760  1.6180 -0.8889  2.3822
  157SAPE     P17487   4.615   5.177  10.862  0.1139  0.0332 -0.3369
  157SAPE   O1317488   4.752   5.199  10.899 -0.9932  0.2216 -0.4868
  157SAPE   O1417489   4.536   5.066  10.925  0.3387  0.9089  0.0080
  157SAPE   O1217490   4.550   5.308  10.892 -0.0308  0.2423 -0.0110
  157SAPE   O1117491   4.605   5.163  10.697  0.3370  0.0279  0.4217
  157SAPE    C117492   4.481   5.124  10.642  0.6656  0.0050 -0.2106
  157SAPE    HA17493   4.455   5.018  10.661 -2.2854  0.2240 -2.6295
  157SAPE    HB17494   4.398   5.196  10.661  1.2630  0.2017  1.7992
  157SAPE    C217495   4.474   5.123  10.488 -0.7347  0.5436 -0.4252
  157SAPE    HS17496   4.544   5.047  10.446  0.9993  2.0736 -0.3611
  157SAPE   O2117497   4.520   5.244  10.445  0.3645  0.1054  0.0489
  157SAPE   C2117498   4.549   5.256  10.310  0.1165  0.0436 -0.2626
  157SAPE   O2217499   4.578   5.166  10.235 -0.4480  0.4931 -0.3058
  157SAPE   C2217500   4.535   5.407  10.260 -0.4460  0.7139 -0.7586
  157SAPE   H2R17501   4.426   5.423  10.247 -0.5837  0.3508 -0.0320
  157SAPE   H2S17502   4.570   5.470  10.345  2.7379  0.7097 -1.9675
  157SAPE    C317503   4.328   5.109  10.444 -0.4813  0.2424 -0.0814
  157SAPE    HX17504   4.274   5.203  10.465 -2.9770 -1.0890 -0.3880
  157SAPE    HY17505   4.281   5.035  10.511  3.3258 -1.7209  0.5513
  157SAPE   O3117506   4.312   5.077  10.305  0.3532 -0.4709  0.5006
  157SAPE   C3117507   4.323   4.949  10.270 -0.0296  0.0300  0.0435
  157SAPE   O3217508   4.385   4.866  10.332  0.7737 -0.2183 -0.3782
  157SAPE   C3217509   4.260   4.922  10.135  0.5335  0.2579 -0.0533
  157SAPE   H2X17510   4.214   5.014  10.093 -0.2753  0.2190  0.7136
  157SAPE   H2Y17511   4.164   4.866  10.149  1.0273 -0.3232  1.0542
  157SAPE   C2317512   4.606   5.429  10.127  0.4436 -0.9193 -0.3215
  157SAPE   H3R17513   4.582   5.357  10.047  1.2104  0.6532 -2.0077
  157SAPE   H3S17514   4.715   5.422  10.149  1.1771  2.0845 -2.7050
  157SAPE   C2417515   4.566   5.572  10.080 -0.1529 -0.3126  0.4763
  157SAPE   H4R17516   4.616   5.635  10.156 -1.4028 -0.8982  1.8204
  157SAPE   H4S17517   4.458   5.596  10.090  0.3415  2.2478  0.0020
  157SAPE   C2517518   4.610   5.593   9.931  0.3969 -0.6573  0.1282
  157SAPE   H5R17519   4.719   5.602   9.923  0.4256 -2.3259 -1.6428
  157SAPE   C2617520   4.527   5.612   9.828  0.4706  0.0535 -0.1669
  157SAPE   H6R17521   4.575   5.649   9.736  1.5115 -2.6652 -0.7860
  157SAPE   C2717522   4.375   5.630   9.824 -0.0566 -0.0260  0.4655
  157SAPE   H7R17523   4.329   5.655   9.923  0.0060 -0.7751  0.6847
  157SAPE   H7S17524   4.339   5.530   9.791 -1.3252  1.2047 -1.9901
  157SAPE   C2817525   4.328   5.724   9.721 -0.6953  0.1619  0.1169
  157SAPE   H8R17526   4.317   5.826   9.761 -1.4941  0.1406 -0.0279
  157SAPE   C2917527   4.308   5.701   9.588 -0.0651  0.5861 -0.7501
  157SAPE   H9R17528   4.275   5.786   9.526 -1.3467 -0.4077 -1.4595
  157SAPE  C21017529   4.323   5.571   9.512 -0.5447 -0.2298 -0.2493
  157SAPE  H10R17530   4.223   5.541   9.475  0.0177 -2.5895  0.0824
  157SAPE  H10S17531   4.366   5.490   9.575 -0.4798 -0.0911 -0.1156
  157SAPE  C21117532   4.417   5.599   9.395  0.7823  0.7916  0.1568
  157SAPE  H11R17533   4.525   5.577   9.393  0.4125 -1.0139 -1.0292
  157SAPE  C21217534   4.377   5.647   9.273  0.1379 -0.1131 -0.2405
  157SAPE  H12R17535   4.456   5.676   9.202 -0.6463 -0.3731 -1.2247
  157SAPE  C21317536   4.238   5.680   9.225  0.4260 -0.0484  0.2470
  157SAPE  H13R17537   4.242   5.773   9.164  0.0370 -1.4696 -2.0253
  157SAPE  H13S17538   4.161   5.689   9.304 -1.2985 -0.4854 -1.3626
  157SAPE  C21417539   4.196   5.558   9.148 -0.0222  0.0241  0.0489
  157SAPE  H14R17540   4.205   5.460   9.197 -2.9867  0.4436  1.5274
  157SAPE  C21517541   4.137   5.560   9.028 -0.5117  0.1371  0.2417
  157SAPE  H15R17542   4.120   5.465   8.975  0.5617 -0.4867  0.9833
  157SAPE  C21617543   4.121   5.687   8.947 -0.1704  0.1647  0.3333
  157SAPE  H16R17544   4.075   5.770   9.004 -2.2118 -0.3724 -0.4702
  157SAPE  H16S17545   4.047   5.673   8.865 -1.1568 -0.8628  1.3699
  157SAPE  C21717546   4.239   5.755   8.871  0.2990  0.2068  0.4851
  157SAPE  H17R17547   4.278   5.675   8.803  0.2493  0.8022 -0.2461
  157SAPE  H17S17548   4.327   5.786   8.931  0.6423 -0.3940  0.2974
  157SAPE  C21817549   4.192   5.878   8.795  0.6978 -0.2250  0.3758
  157SAPE  H18R17550   4.278   5.927   8.744  0.8014 -1.5463 -0.7721
  157SAPE  H18S17551   4.144   5.954   8.860 -1.8791  1.1923 -3.0302
  157SAPE  C21917552   4.104   5.842   8.678 -0.3075 -0.6430 -0.3670
  157SAPE  H19R17553   4.008   5.803   8.717 -1.4385  2.8990  0.5117
  157SAPE  H19S17554   4.163   5.769   8.619  0.2016 -0.1472 -0.4740
  157SAPE  C22017555   4.065   5.964   8.597 -0.0057 -0.2697 -0.2143
  157SAPE  H20R17556   4.009   6.033   8.664  0.1329  1.3769 -1.7635
  157SAPE  H20S17557   4.000   5.936   8.512 -0.5174  2.3326 -0.7141
  157SAPE  H20T17558   4.155   6.019   8.560  0.2211 -0.4945 -0.0008
  157SAPE   C3317559   4.346   4.839  10.034  0.0347  0.5108 -0.0927
  157SAPE   H3X17560   4.369   4.741  10.082  2.1224  1.5162  1.0625
  157SAPE   H3Y17561   4.439   4.897  10.014  2.1203 -3.1178 -1.3058
  157SAPE   C3417562   4.276   4.811   9.904  0.1743  0.0688  0.1245
  157SAPE   H4X17563   4.221   4.902   9.871 -0.2094 -0.0526  0.4290
  157SAPE   H4Y17564   4.206   4.726   9.916 -0.5707  0.6276 -0.1729
  157SAPE   C3517565   4.387   4.775   9.805  0.6233 -1.2013 -0.0448
  157SAPE   H5X17566   4.445   4.687   9.839  1.6248 -0.0800  1.2021
  157SAPE   H5Y17567   4.459   4.859   9.797 -0.2512 -0.1476  2.4091
  157SAPE   C3617568   4.340   4.744   9.661  0.3045 -0.1242  0.2446
  157SAPE   H6X17569   4.253   4.675   9.662 -1.3050  1.8796  0.2809
  157SAPE   H6Y17570   4.423   4.688   9.612 -0.8115 -0.5643 -1.1585
  157SAPE   C3717571   4.297   4.876   9.585 -0.3302  0.2742  0.2959
  157SAPE   H7X17572   4.382   4.947   9.601  2.4125 -2.5335 -1.1812
  157SAPE   H7Y17573   4.202   4.905   9.633 -1.6620 -0.6743 -1.7026
  157SAPE   C3817574   4.295   4.853   9.429 -0.1079 -0.2608 -0.4668
  157SAPE   H8X17575   4.392   4.808   9.402  1.4810  1.9450  1.4292
  157SAPE   H8Y17576   4.288   4.948   9.371  0.2761  1.0158  1.5475
  157SAPE   C3917577   4.193   4.751   9.373 -0.3272  0.2621 -0.0149
  157SAPE   H9X17578   4.094   4.799   9.385 -0.8442 -0.8913  0.4701
  157SAPE   H9Y17579   4.189   4.670   9.450  0.2796 -0.3126 -0.5755
  157SAPE  C31017580   4.215   4.710   9.230 -0.1453 -0.6985  0.2252
  157SAPE  H10X17581   4.166   4.617   9.194 -1.8332 -0.0331  0.7161
  157SAPE  H10Y17582   4.324   4.697   9.220 -0.1137  1.4569 -3.1978
  157SAPE  C31117583   4.170   4.815   9.120 -0.2440 -0.5940  1.0100
  157SAPE  H11X17584   4.254   4.885   9.102 -0.7911 -0.3878 -0.7790
  157SAPE  H11Y17585   4.072   4.863   9.142 -1.4444 -1.4960 -2.1386
  157SAPE  C31217586   4.162   4.745   8.982  0.4957 -0.2252 -0.0178
  157SAPE  H12X17587   4.068   4.684   8.985  1.4052 -1.6084  1.6069
  157SAPE  H12Y17588   4.251   4.686   8.953 -0.2900 -0.8092 -1.2722
  157SAPE  C31317589   4.141   4.844   8.859  0.0200  0.7358 -0.5344
  157SAPE  H13X17590   4.055   4.913   8.868 -2.7132 -2.7007  0.5199
  157SAPE  H13Y17591   4.119   4.775   8.775  0.4790  0.2675 -0.2762
  157SAPE  C31417592   4.270   4.925   8.833  0.1175  0.5224 -0.2126
  157SAPE  H14X17593   4.347   4.852   8.798 -0.1332  0.6376 -1.0106
  157SAPE  H14Y17594   4.297   4.972   8.929 -2.0717 -1.0739  1.2333
  157SAPE  C31517595   4.272   5.033   8.721 -0.6669  0.3048  0.8504
  157SAPE  H15X17596   4.209   4.999   8.636 -1.9303 -0.3300  2.0233
  157SAPE  H15Y17597   4.379   5.040   8.693 -0.8573  0.0462  0.0358
  157SAPE  C31617598   4.215   5.175   8.762 -1.4451 -0.3579 -0.0069
  157SAPE  H16X17599   4.278   5.205   8.849 -1.2001  1.4816 -0.7977
  157SAPE  H16Y17600   4.107   5.162   8.782 -1.6587  0.7110 -0.4332
  157SAPE  C31717601   4.224   5.278   8.646 -0.2578  0.2249 -0.1474
  157SAPE  H17X17602   4.208   5.223   8.550  1.6079 -1.6216  0.5605
  157SAPE  H17Y17603   4.331   5.303   8.657  0.7735 -3.8749  0.0077
  157SAPE  C31817604   4.125   5.393   8.656 -0.2025  0.7322 -0.0915
  157SAPE  H18X17605   4.019   5.358   8.658 -0.1365  0.6072  3.0664
  157SAPE  H18Y17606   4.153   5.465   8.576  2.6607  0.5562  0.6957
  157SAPE  H18Z17607   4.141   5.438   8.756 -0.2929  1.1329 -0.2559
  158SAPE     N17608   6.539   6.119  10.620  0.3108 -0.0313 -0.7313
  158SAPE   HN117609   6.462   6.096  10.555  1.1160 -2.3915 -0.9028
  158SAPE   HN217610   6.530   6.217  10.651 -0.1490 -0.3194  0.0747
  158SAPE   HN317611   6.627   6.108  10.566 -0.5633 -2.1000 -1.7738
  158SAPE   C1217612   6.534   6.042  10.749  1.2388  0.4481  0.4867
  158SAPE  H12A17613   6.526   6.105  10.840 -2.8272  1.4791 -0.4626
  158SAPE  H12B17614   6.617   5.969  10.752  1.3964  0.5275 -1.1700
  158SAPE   C1117615   6.397   5.965  10.741 -0.2101  0.4179  0.0426
  158SAPE  H11A17616   6.322   6.044  10.761  1.3407  1.6970  0.8960
  158SAPE  H11B17617   6.408   5.893  10.826 -1.0256 -0.5584 -0.6600
  158SAPE     P17618   6.275   5.775  10.614  0.1798 -0.2744  0.1261
  158SAPE   O1317619   6.278   5.705  10.743  0.0752 -0.0473 -0.3275
  158SAPE   O1417620   6.141   5.820  10.565 -0.8218  0.0070  0.4231
  158SAPE   O1217621   6.374   5.899  10.614  0.3062  0.3553 -0.0332
  158SAPE   O1117622   6.332   5.685  10.505  0.5241  0.1240  0.7002
  158SAPE    C117623   6.477   5.666  10.473  0.5665 -0.2741  0.0595
  158SAPE    HA17624   6.546   5.707  10.550  1.1744 -1.0379 -0.0727
  158SAPE    HB17625   6.500   5.558  10.464  0.7282 -0.1564 -1.0714
  158SAPE    C217626   6.514   5.730  10.340 -0.1076  0.0223  0.5632
  158SAPE    HS17627   6.511   5.839  10.362  0.3305 -0.3697  2.7224
  158SAPE   O2117628   6.400   5.709  10.252 -0.5153  0.1502  0.1354
  158SAPE   C2117629   6.368   5.820  10.180 -0.2062  0.5630 -0.3604
  158SAPE   O2217630   6.421   5.930  10.182 -0.6401  0.6984 -0.3482
  158SAPE   C2217631   6.247   5.784  10.097  0.0046 -0.0346  0.1739
  158SAPE   H2R17632   6.203   5.688  10.130 -1.7520  0.8894  0.6263
  158SAPE   H2S17633   6.177   5.868  10.120 -0.3024  0.2353 -1.6863
  158SAPE    C317634   6.654   5.686  10.280  0.3468 -0.3974  0.0063
  158SAPE    HX17635   6.650   5.575  10.275 -0.4308 -0.3974  0.5549
  158SAPE    HY17636   6.745   5.709  10.338 -0.1112  0.8718  0.2409
  158SAPE   O3117637   6.663   5.733  10.140  0.2344  0.0747 -0.8357
  158SAPE   C3117638   6.711   5.851  10.121 -0.4201 -0.1318 -0.3754
  158SAPE   O3217639   6.757   5.930  10.202 -0.4723  0.9621  0.1539
  158SAPE   C3217640   6.699   5.878   9.972 -0.3094 -0.4724 -1.0795
  158SAPE   H2X17641   6.778   5.953   9.950  0.1172 -0.8062 -0.7113
  158SAPE   H2Y17642   6.598   5.920   9.956 -1.3650 -1.9112  1.4374
  158SAPE   C2317643   6.273   5.785   9.944 -0.6289  0.2930  0.3636
  158SAPE   H3R17644   6.327   5.877   9.914 -0.2533 -0.4471 -1.2444
  158SAPE   H3S17645   6.175   5.764   9.896 -0.3724  0.7306 -0.3456
  158SAPE   C2417646   6.351   5.664   9.886 -0.5490  0.8388 -0.3643
  158SAPE   H4R17647   6.454   5.655   9.925 -1.2115 -2.5505  0.8084
  158SAPE   H4S17648   6.357   5.673   9.776  1.2916  1.3726 -0.2280
  158SAPE   C2517649   6.299   5.530   9.926  0.0942 -0.0650  0.1733
  158SAPE   H5R17650   6.289   5.504  10.032  0.5645 -0.3760  0.1445
  158SAPE   C2617651   6.257   5.433   9.845  0.2209 -0.4634  0.0633
  158SAPE   H6R17652   6.219   5.341   9.891 -3.1663  0.4385 -0.7837
  158SAPE   C2717653   6.249   5.423   9.694  0.4488 -0.3274 -0.2924
  158SAPE   H7R17654   6.222   5.527   9.666 -3.7688 -1.6776 -1.6192
  158SAPE   H7S17655   6.159   5.364   9.668 -0.2290 -1.0366  3.4387
  158SAPE   C2817656   6.375   5.370   9.623  0.0467 -0.0755 -0.2835
  158SAPE   H8R17657   6.422   5.284   9.673 -0.9038 -1.2908 -1.4331
  158SAPE   C2917658   6.416   5.416   9.499  0.0630  0.5564  0.2634
  158SAPE   H9R17659   6.501   5.362   9.453  1.4637  1.4379  1.7341
  158SAPE  C21017660   6.357   5.526   9.407  0.6662  0.0748 -0.4354
  158SAPE  H10R17661   6.425   5.589   9.345 -1.0014  2.0083 -0.3222
  158SAPE  H10S17662   6.316   5.600   9.478 -1.6176 -0.8977 -0.6955
  158SAPE  C21117663   6.239   5.477   9.318  0.3123  0.2388  0.1793
  158SAPE  H11R17664   6.138   5.509   9.347  0.2437  2.4065 -2.2351
  158SAPE  C21217665   6.269   5.418   9.198 -0.2591  0.4694 -0.1875
  158SAPE  H12R17666   6.187   5.385   9.133  1.0173  0.2673 -1.7129
  158SAPE  C21317667   6.412   5.395   9.139  0.0123  0.6708 -0.4798
  158SAPE  H13R17668   6.480   5.476   9.173  0.0846  0.7265 -0.7626
  158SAPE  H13S17669   6.406   5.400   9.028 -0.9956  1.0750 -0.4196
  158SAPE  C21417670   6.464   5.263   9.193 -0.3297 -0.4916 -0.3386
  158SAPE  H14R17671   6.386   5.196   9.234  0.2797  0.5011  2.5972
  158SAPE  C21517672   6.595   5.225   9.190  0.0511 -0.3516  0.2746
  158SAPE  H15R17673   6.627   5.129   9.233 -0.9446  0.1892  2.3087
  158SAPE  C21617674   6.705   5.308   9.136  0.2680  0.3270  0.1048
  158SAPE  H16R17675   6.673   5.414   9.140  0.4660  0.3589  1.0440
  158SAPE  H16S17676   6.720   5.284   9.029 -1.3402  0.9728 -0.2744
  158SAPE  C21717677   6.835   5.317   9.219  0.2264 -0.1849 -1.1374
  158SAPE  H17R17678   6.884   5.413   9.194  1.4520 -0.3139  0.7408
  158SAPE  H17S17679   6.901   5.230   9.198  0.2370 -0.1243 -1.3536
  158SAPE  C21817680   6.815   5.294   9.375 -0.1244 -0.6231  0.2706
  158SAPE  H18R17681   6.791   5.190   9.405  1.6003 -0.1217  3.5689
  158SAPE  H18S17682   6.724   5.348   9.409 -0.3917  0.2864 -1.8265
  158SAPE  C21917683   6.952   5.325   9.449 -0.6459 -0.5343  0.0471
  158SAPE  H19R17684   6.979   5.424   9.406  0.3813  0.0573  2.0126
  158SAPE  H19S17685   7.032   5.252   9.424  1.2202  0.1692  3.6261
  158SAPE  C22017686   6.938   5.334   9.600 -0.4676  0.4199 -0.7507
  158SAPE  H20R17687   7.035   5.355   9.650 -0.3892  1.9880 -1.5373
  158SAPE  H20S17688   6.904   5.236   9.640 -0.8681  1.0751  0.5383
  158SAPE  H20T17689   6.854   5.397   9.635 -3.0230 -3.0842 -0.4165
  158SAPE   C3317690   6.727   5.750   9.876 -0.8147 -0.5579  0.4472
  158SAPE   H3X17691   6.653   5.668   9.892 -0.8895 -0.8398 -1.2766
  158SAPE   H3Y17692   6.815   5.682   9.888  0.9808  1.1578 -2.5015
  158SAPE   C3417693   6.700   5.796   9.734  0.0165 -0.6673 -0.7629
  158SAPE   H4X17694   6.783   5.859   9.696 -0.8224  1.2915  0.5789
  158SAPE   H4Y17695   6.612   5.864   9.730  0.9996  0.5731 -1.8738
  158SAPE   C3517696   6.686   5.678   9.641  0.3611  0.1482  0.0789
  158SAPE   H5X17697   6.602   5.614   9.674  2.9019 -2.1668  2.3151
  158SAPE   H5Y17698   6.782   5.622   9.651  1.1111  1.3989 -0.0675
  158SAPE   C3617699   6.674   5.733   9.494  0.4439 -0.6093  0.1942
  158SAPE   H6X17700   6.613   5.825   9.497 -1.3787 -1.8027  0.6803
  158SAPE   H6Y17701   6.623   5.654   9.434  1.4594 -2.4092  1.6218
  158SAPE   C3717702   6.821   5.761   9.444 -0.1260 -0.2074  0.1217
  158SAPE   H7X17703   6.884   5.670   9.442  0.5488  0.1627  2.6248
  158SAPE   H7Y17704   6.862   5.843   9.507  0.9689 -0.3523 -0.3940
  158SAPE   C3817705   6.820   5.819   9.298 -0.7807 -1.0865  0.7438
  158SAPE   H8X17706   6.922   5.860   9.282 -0.3607 -3.1681 -2.2374
  158SAPE   H8Y17707   6.734   5.887   9.283 -0.7688 -1.0244  0.9564
  158SAPE   C3917708   6.810   5.706   9.192 -0.6407 -0.0593  0.2108
  158SAPE   H9X17709   6.722   5.641   9.212  0.8921 -2.8143 -1.5797
  158SAPE   H9Y17710   6.904   5.649   9.207 -1.5188 -1.4758  0.4799
  158SAPE  C31017711   6.792   5.768   9.060  0.4279 -0.3367  0.6188
  158SAPE  H10X17712   6.889   5.801   9.019  0.6720  0.1115  1.5620
  158SAPE  H10Y17713   6.722   5.854   9.061  0.6161 -0.1355 -1.3993
  158SAPE  C31117714   6.751   5.663   8.947 -0.1054  0.3149  0.5122
  158SAPE  H11X17715   6.646   5.629   8.963 -0.5769  1.1803 -0.6331
  158SAPE  H11Y17716   6.819   5.576   8.958 -0.2323  0.3167  1.3088
  158SAPE  C31217717   6.773   5.717   8.805  0.7447  0.3403 -0.2743
  158SAPE  H12X17718   6.872   5.765   8.789  1.7667 -0.8680  2.2364
  158SAPE  H12Y17719   6.684   5.779   8.780  0.4903  0.3960  0.7280
  158SAPE  C31317720   6.775   5.610   8.695 -0.2729  0.2248 -0.5052
  158SAPE  H13X17721   6.683   5.549   8.706  0.2069 -0.0061  2.9279
  158SAPE  H13Y17722   6.861   5.546   8.725 -1.2427 -0.7570  0.2411
  158SAPE  C31417723   6.790   5.667   8.553 -0.6549  0.0488  0.5768
  158SAPE  H14X17724   6.868   5.744   8.570  0.7333 -1.4733  1.2151
  158SAPE  H14Y17725   6.701   5.723   8.517 -0.5977 -0.2369 -0.0140
  158SAPE  C31517726   6.838   5.564   8.448 -0.7432 -0.7449  0.0184
  158SAPE  H15X17727   6.928   5.509   8.483 -0.1193 -0.7704 -1.5905
  158SAPE  H15Y17728   6.854   5.625   8.357 -1.7775  1.6112  1.3770
  158SAPE  C31617729   6.734   5.458   8.403 -0.1788  0.2861  0.7622
  158SAPE  H16X17730   6.702   5.402   8.494  2.2463 -0.4718  1.1764
  158SAPE  H16Y17731   6.781   5.382   8.337 -0.6735 -0.3201  1.0987
  158SAPE  C31717732   6.605   5.516   8.344  0.0055 -0.2928 -0.6768
  158SAPE  H17X17733   6.641   5.574   8.256 -0.8118  1.6364  0.2315
  158SAPE  H17Y17734   6.572   5.594   8.416  1.5547 -1.6679  1.5980
  158SAPE  C31817735   6.500   5.417   8.299 -0.1699  0.4312  0.4024
  158SAPE  H18X17736   6.411   5.473   8.263  0.1621 -0.2011 -1.4475
  158SAPE  H18Y17737   6.471   5.353   8.386 -2.6650  1.4122  0.3293
  158SAPE  H18Z17738   6.538   5.339   8.230  0.0459 -0.0144  1.0214
  159SAPE     N17739   5.633   2.596   6.475  0.2165  0.5666 -0.4268
  159SAPE   HN117740   5.643   2.506   6.525  0.8295 -0.5769 -2.5843
  159SAPE   HN217741   5.590   2.594   6.380  0.3132 -1.0855 -0.4433
  159SAPE   HN317742   5.730   2.628   6.456  0.4918  0.3359  0.5706
  159SAPE   C1217743   5.554   2.691   6.561 -0.7157  0.3260  0.2058
  159SAPE  H12A17744   5.523   2.765   6.483 -3.2306 -0.8613  0.0247
  159SAPE  H12B17745   5.621   2.745   6.631 -1.1168  1.5210 -0.2977
  159SAPE   C1117746   5.430   2.632   6.631  1.0454  0.2733 -0.2641
  159SAPE  H11A17747   5.382   2.703   6.702 -0.5807  0.0416 -1.1133
  159SAPE  H11B17748   5.464   2.551   6.699 -3.4102 -1.1238  0.5126
  159SAPE     P17749   5.204   2.638   6.484 -0.2023  0.3889 -0.2426
  159SAPE   O1317750   5.237   2.758   6.409  0.2808 -0.3722  0.5289
  159SAPE   O1417751   5.116   2.539   6.417  0.4209 -0.3955 -0.6043
  159SAPE   O1217752   5.337   2.570   6.537 -0.7610 -0.4125  0.4700
  159SAPE   O1117753   5.136   2.692   6.619  0.0505  0.1700 -0.2125
  159SAPE    C117754   5.072   2.607   6.709 -0.2250  0.0945 -0.0385
  159SAPE    HA17755   5.097   2.500   6.693  0.6159  0.2383  0.3155
  159SAPE    HB17756   5.103   2.634   6.812  3.4423 -3.0125 -0.2483
  159SAPE    C217757   4.920   2.630   6.719 -0.2851 -0.5680 -0.6100
  159SAPE    HS17758   4.876   2.620   6.618  0.6243  0.3889 -1.1121
  159SAPE   O2117759   4.894   2.761   6.764 -0.1995 -0.0865  0.1936
  159SAPE   C2117760   4.771   2.803   6.759 -0.8813  0.4518  0.1388
  159SAPE   O2217761   4.683   2.742   6.705  0.0991  0.1961  0.0995
  159SAPE   C2217762   4.769   2.949   6.813 -0.8197  0.2350 -0.4427
  159SAPE   H2R17763   4.862   2.979   6.868 -2.0072 -1.4675  2.6053
  159SAPE   H2S17764   4.768   3.024   6.731  1.1784  2.2491  1.2803
  159SAPE    C317765   4.848   2.530   6.805  0.3111  0.0539 -0.7254
  159SAPE    HX17766   4.863   2.436   6.749  1.2902  1.7747 -3.4629
  159SAPE    HY17767   4.739   2.551   6.802  0.4496  0.6762 -1.6087
  159SAPE   O3117768   4.892   2.524   6.945  0.0393 -0.6424 -0.4828
  159SAPE   C3117769   4.973   2.420   6.976 -0.0795  0.4187  0.4342
  159SAPE   O3217770   5.003   2.328   6.899 -0.2622 -0.0742  0.7154
  159SAPE   C3217771   5.036   2.440   7.118 -0.0233  0.1789 -0.1409
  159SAPE   H2X17772   4.998   2.537   7.155 -1.2163 -0.2802 -0.1530
  159SAPE   H2Y17773   5.144   2.456   7.093 -1.0335  3.3299 -2.8719
  159SAPE   C2317774   4.636   2.982   6.895  0.3016 -0.3573  0.2641
  159SAPE   H3R17775   4.547   2.953   6.836 -0.5010  0.5667  1.0058
  159SAPE   H3S17776   4.640   3.093   6.892  2.1426 -0.4265 -0.7378
  159SAPE   C2417777   4.631   2.937   7.037  0.0737 -0.1031 -0.1831
  159SAPE   H4R17778   4.533   2.975   7.072  0.3108 -0.9694  1.4709
  159SAPE   H4S17779   4.707   2.987   7.100  0.1736  0.5177 -0.7875
  159SAPE   C2517780   4.644   2.790   7.071  0.4682  0.0708  0.4942
  159SAPE   H5R17781   4.698   2.729   6.997  3.4420 -2.6470  4.6457
  159SAPE   C2617782   4.581   2.729   7.173 -0.4043 -0.1181  0.1740
  159SAPE   H6R17783   4.606   2.623   7.189  0.7361 -0.1149 -1.4844
  159SAPE   C2717784   4.493   2.795   7.278 -0.1926  0.0188 -0.0137
  159SAPE   H7R17785   4.386   2.771   7.257 -1.0100 -0.1081  3.8936
  159SAPE   H7S17786   4.504   2.906   7.278  2.0704 -0.1794 -0.0858
  159SAPE   C2817787   4.537   2.738   7.414  0.0529 -0.4604  0.3620
  159SAPE   H8R17788   4.644   2.715   7.409  0.4986  1.1415  2.0469
  159SAPE   C2917789   4.465   2.725   7.526 -0.0062  0.2555  0.0328
  159SAPE   H9R17790   4.508   2.669   7.610  1.6751 -0.8589 -1.5332
  159SAPE  C21017791   4.321   2.763   7.537  0.0014  0.0192  0.2334
  159SAPE  H10R17792   4.277   2.788   7.438  1.4883 -0.6071 -0.5980
  159SAPE  H10S17793   4.320   2.857   7.597  0.5799 -0.6608  1.3376
  159SAPE  C21117794   4.220   2.676   7.615 -0.3306  0.0046 -0.2716
  159SAPE  H11R17795   4.152   2.636   7.539  0.5074 -1.3778 -0.3166
  159SAPE  C21217796   4.217   2.651   7.745  0.1890  0.0435  0.2124
  159SAPE  H12R17797   4.129   2.598   7.783 -0.0497  1.0848  1.1344
  159SAPE  C21317798   4.303   2.716   7.847 -0.8099 -0.5665  0.2812
  159SAPE  H13R17799   4.242   2.776   7.918  2.2863  1.4335  1.3946
  159SAPE  H13S17800   4.387   2.779   7.811 -3.0858  1.9396 -0.8309
  159SAPE  C21417801   4.371   2.606   7.921  1.3545  0.2535  0.6631
  159SAPE  H14R17802   4.439   2.542   7.862 -0.4120  0.4313 -1.6484
  159SAPE  C21517803   4.357   2.583   8.057  0.7348  0.2243 -0.2780
  159SAPE  H15R17804   4.421   2.503   8.098  0.1163 -0.7754 -1.2033
  159SAPE  C21617805   4.266   2.655   8.149 -0.6848 -0.3085 -0.0423
  159SAPE  H16R17806   4.246   2.759   8.115  0.1513 -0.2697 -0.4336
  159SAPE  H16S17807   4.301   2.654   8.255 -2.4012  0.9062  0.5532
  159SAPE  C21717808   4.126   2.580   8.150 -0.1601 -0.4459  0.0426
  159SAPE  H17R17809   4.151   2.476   8.182 -1.9027 -0.7586  0.4489
  159SAPE  H17S17810   4.089   2.581   8.045  1.7881  0.0795 -0.6739
  159SAPE  C21817811   4.023   2.648   8.235 -0.4354 -0.0182  0.1592
  159SAPE  H18R17812   3.997   2.752   8.207  0.8213 -0.6162 -3.5204
  159SAPE  H18S17813   4.057   2.659   8.340 -2.1383  0.6635  0.6466
  159SAPE  C21917814   3.880   2.580   8.222 -1.0319 -0.2182  0.2675
  159SAPE  H19R17815   3.864   2.592   8.113  2.4207 -0.2944 -0.2905
  159SAPE  H19S17816   3.816   2.650   8.280 -2.6999 -1.8362  0.4597
  159SAPE  C22017817   3.856   2.433   8.270  0.0945 -0.0785 -0.8657
  159SAPE  H20R17818   3.748   2.406   8.267  0.6401 -3.1378  2.7230
  159SAPE  H20S17819   3.900   2.408   8.369 -0.2301 -1.6792 -1.1074
  159SAPE  H20T17820   3.905   2.365   8.196 -0.3647 -1.7752  0.3483
  159SAPE   C3317821   5.000   2.320   7.217  0.1071  0.4662 -0.2069
  159SAPE   H3X17822   5.060   2.229   7.196  0.1986  0.4021  0.3129
  159SAPE   H3Y17823   4.890   2.303   7.222  0.2496 -0.3733  0.0450
  159SAPE   C3417824   5.032   2.348   7.361  0.0399 -0.0338  0.4505
  159SAPE   H4X17825   5.009   2.272   7.438  2.0787  0.4586  1.5768
  159SAPE   H4Y17826   4.972   2.435   7.397  0.9671  0.7358  0.1570
  159SAPE   C3517827   5.186   2.364   7.375  0.4640 -0.1885 -0.3281
  159SAPE   H5X17828   5.228   2.455   7.328  2.1930 -0.5073  0.5634
  159SAPE   H5Y17829   5.233   2.290   7.307  1.4112 -0.7635  0.9304
  159SAPE   C3617830   5.250   2.340   7.507 -0.2387  0.1909 -0.1843
  159SAPE   H6X17831   5.359   2.359   7.498 -0.2497  1.4173  1.8914
  159SAPE   H6Y17832   5.242   2.231   7.525  1.6807 -0.2656 -2.0098
  159SAPE   C3717833   5.184   2.415   7.619  0.8149 -0.0580 -0.1130
  159SAPE   H7X17834   5.090   2.362   7.644  1.3086 -1.2318 -0.6635
  159SAPE   H7Y17835   5.167   2.519   7.586  0.0815 -0.8286 -2.2659
  159SAPE   C3817836   5.259   2.417   7.755  0.2860 -0.3746  0.4711
  159SAPE   H8X17837   5.352   2.479   7.750  1.2194 -1.8889 -1.6580
  159SAPE   H8Y17838   5.296   2.313   7.770 -0.3455 -0.6748 -0.0630
  159SAPE   C3917839   5.174   2.468   7.867  1.1934 -1.0629  0.3277
  159SAPE   H9X17840   5.092   2.394   7.870 -0.1323  0.2431 -1.9578
  159SAPE   H9Y17841   5.134   2.568   7.841  2.0850 -0.9145 -0.5151
  159SAPE  C31017842   5.249   2.481   7.997 -0.8744  0.2936 -0.5050
  159SAPE  H10X17843   5.340   2.546   8.000  2.4272 -3.9201 -3.0908
  159SAPE  H10Y17844   5.264   2.377   8.035 -0.8762  0.4868  0.0233
  159SAPE  C31117845   5.150   2.537   8.116 -0.3293  0.1128  0.0899
  159SAPE  H11X17846   5.053   2.482   8.110  0.3325 -1.1990  1.1916
  159SAPE  H11Y17847   5.132   2.642   8.087 -0.2508 -0.1759 -1.0294
  159SAPE  C31217848   5.201   2.533   8.258  0.2571 -0.1611 -0.3922
  159SAPE  H12X17849   5.209   2.641   8.284  0.4417 -0.4621  0.8624
  159SAPE  H12Y17850   5.298   2.479   8.257  0.0843 -0.5274  0.8317
  159SAPE  C31317851   5.108   2.445   8.345 -0.1444 -0.1446 -0.7503
  159SAPE  H13X17852   5.108   2.344   8.299  1.0362  0.3799 -1.9585
  159SAPE  H13Y17853   5.007   2.490   8.360  0.3742  0.8538 -0.1634
  159SAPE  C31417854   5.155   2.413   8.481 -0.1497 -0.0688  0.1288
  159SAPE  H14X17855   5.175   2.511   8.530 -0.0895  0.5779 -1.1559
  159SAPE  H14Y17856   5.253   2.361   8.475 -0.2517 -0.4356  1.4845
  159SAPE  C31517857   5.048   2.344   8.562 -0.4505  0.2378  0.2106
  159SAPE  H15X17858   4.953   2.396   8.539 -1.2476 -0.0919  2.5503
  159SAPE  H15Y17859   5.059   2.364   8.671 -0.5069  0.4782  0.1720
  159SAPE  C31617860   5.044   2.193   8.525  0.2055 -0.4529 -0.3622
  159SAPE  H16X17861   5.148   2.159   8.545  0.8784  1.2809 -0.7533
  159SAPE  H16Y17862   5.018   2.176   8.419 -0.6588 -0.9238 -0.0783
  159SAPE  C31717863   4.942   2.116   8.614 -0.1699 -0.0559  0.1970
  159SAPE  H17X17864   4.849   2.176   8.605  0.1879  0.3980 -0.5084
  159SAPE  H17Y17865   4.982   2.101   8.717  0.0807 -0.8312 -0.0049
  159SAPE  C31817866   4.907   1.984   8.547  0.0730 -0.8588 -0.8082
  159SAPE  H18X17867   4.989   1.909   8.557  0.0829 -0.8124 -0.5332
  159SAPE  H18Y17868   4.894   1.999   8.438  0.3135 -0.5375 -0.7937
  159SAPE  H18Z17869   4.822   1.936   8.599  0.3518 -1.6237 -1.0509
  160SAPE     N17870   3.776   3.145   6.598  0.9061 -0.1459  0.6170
  160SAPE   HN117871   3.824   3.146   6.690  3.7790 -2.2225 -0.7867
  160SAPE   HN217872   3.680   3.186   6.600  0.6612 -0.7207  0.7970
  160SAPE   HN317873   3.747   3.046   6.581 -2.6850  0.9762 -0.3595
  160SAPE   C1217874   3.856   3.204   6.483 -0.1107  0.2552 -0.0130
  160SAPE  H12A17875   3.859   3.123   6.407 -1.2266  0.9984 -0.8614
  160SAPE  H12B17876   3.955   3.235   6.523 -0.5829  2.4679 -0.4904
  160SAPE   C1117877   3.795   3.325   6.427 -0.3473  0.1287 -0.1984
  160SAPE  H11A17878   3.702   3.285   6.381 -1.0116 -0.9623  2.0389
  160SAPE  H11B17879   3.861   3.364   6.347 -1.4603  0.2169 -1.0972
  160SAPE     P17880   3.781   3.575   6.501 -0.1105 -0.0540 -0.0897
  160SAPE   O1317881   3.812   3.592   6.356  0.0252  0.0910  0.2978
  160SAPE   O1417882   3.676   3.662   6.559 -0.0033 -0.1557 -0.0043
  160SAPE   O1217883   3.758   3.423   6.530  0.1957 -0.1841  0.1765
  160SAPE   O1117884   3.912   3.611   6.579  0.1681  0.1767 -0.1182
  160SAPE    C117885   3.938   3.534   6.697  0.2898  0.6445 -0.4070
  160SAPE    HA17886   3.848   3.540   6.762  0.5087 -0.2585 -0.0227
  160SAPE    HB17887   3.960   3.429   6.671  0.1915  0.4807  0.1601
  160SAPE    C217888   4.060   3.575   6.783 -0.1662 -0.4034  0.2856
  160SAPE    HS17889   4.078   3.485   6.846 -0.5116 -0.6984 -0.0304
  160SAPE   O2117890   4.028   3.693   6.856  0.6969 -0.1623 -0.0927
  160SAPE   C2117891   4.053   3.683   6.990  0.1824 -0.3507  0.2836
  160SAPE   O2217892   4.093   3.585   7.046 -0.2862  0.5659  0.2956
  160SAPE   C2217893   4.011   3.810   7.055  0.8567 -0.4793  0.3264
  160SAPE   H2R17894   4.046   3.882   6.978  1.4697 -1.8720 -0.7134
  160SAPE   H2S17895   3.900   3.815   7.055  0.9383  1.9087  1.0847
  160SAPE    C317896   4.196   3.608   6.706 -0.3653  0.7501  0.7956
  160SAPE    HX17897   4.177   3.670   6.615 -0.4582  1.2020  1.1219
  160SAPE    HY17898   4.231   3.510   6.670 -1.2215 -0.4562  3.1664
  160SAPE   O3117899   4.291   3.690   6.778  0.2422  0.2271 -0.3196
  160SAPE   C3117900   4.347   3.615   6.870 -0.1871 -0.3469 -0.0663
  160SAPE   O3217901   4.345   3.494   6.874 -0.5195  0.2479  0.6457
  160SAPE   C3217902   4.420   3.704   6.978  0.1648  0.6117 -0.1938
  160SAPE   H2X17903   4.363   3.799   6.976 -0.2518  0.3747 -4.3839
  160SAPE   H2Y17904   4.521   3.730   6.941 -0.0885  0.3288 -1.1253
  160SAPE   C2317905   4.075   3.838   7.196 -0.6130  0.9119 -0.1253
  160SAPE   H3R17906   4.185   3.854   7.187 -0.0642 -1.4411  1.9042
  160SAPE   H3S17907   4.068   3.744   7.255 -1.2900  2.2503  1.9930
  160SAPE   C2417908   4.024   3.962   7.272 -0.4243  0.1201  0.0921
  160SAPE   H4R17909   3.914   3.966   7.262 -0.5329  1.7170  1.7948
  160SAPE   H4S17910   4.063   4.061   7.238  0.8810  0.5291  2.6450
  160SAPE   C2517911   4.063   3.951   7.413  0.5150 -0.2336 -0.2886
  160SAPE   H5R17912   4.144   3.877   7.427  1.7292  1.3111  1.0915
  160SAPE   C2617913   4.014   4.018   7.514  0.1499 -0.1012 -0.5043
  160SAPE   H6R17914   4.051   4.002   7.617  0.3137  0.1445 -0.5220
  160SAPE   C2717915   3.903   4.121   7.521  0.6553  0.2984  1.0230
  160SAPE   H7R17916   3.807   4.069   7.544 -0.6340  2.2137  0.1244
  160SAPE   H7S17917   3.885   4.164   7.420 -0.5937  1.1777  1.6015
  160SAPE   C2817918   3.908   4.231   7.623  0.5182  0.5898  0.2878
  160SAPE   H8R17919   3.993   4.298   7.606  2.0257 -0.9868  1.4296
  160SAPE   C2917920   3.830   4.257   7.726  0.0048  0.0563 -0.7062
  160SAPE   H9R17921   3.858   4.354   7.771 -0.8054 -0.2240  0.4204
  160SAPE  C21017922   3.705   4.192   7.777 -0.3164  0.1824 -0.1800
  160SAPE  H10R17923   3.720   4.100   7.837  1.1037 -0.8917 -2.0961
  160SAPE  H10S17924   3.642   4.171   7.688 -0.8515 -0.8883  0.4470
  160SAPE  C21117925   3.615   4.282   7.860 -0.2727  0.4393  0.5294
  160SAPE  H11R17926   3.550   4.338   7.792  0.5308  1.5366  0.6500
  160SAPE  C21217927   3.610   4.296   7.988  0.3825  0.0826 -0.2230
  160SAPE  H12R17928   3.546   4.376   8.028  2.7767  0.9080  2.0481
  160SAPE  C21317929   3.689   4.223   8.091  0.7768 -0.4272  0.0077
  160SAPE  H13R17930   3.717   4.291   8.175 -0.2211 -1.3967  1.1521
  160SAPE  H13S17931   3.791   4.204   8.052  0.5618  0.2613 -0.9122
  160SAPE  C21417932   3.612   4.093   8.131 -0.3126  0.3798  0.0544
  160SAPE  H14R17933   3.548   4.053   8.051 -0.3406 -0.6102  0.5626
  160SAPE  C21517934   3.626   4.026   8.248  0.2173  0.1192  0.0009
  160SAPE  H15R17935   3.585   3.924   8.251 -0.8011  0.5827  2.9899
  160SAPE  C21617936   3.703   4.052   8.376 -0.7512  0.2592 -0.7480
  160SAPE  H16R17937   3.633   4.079   8.458 -1.4594  0.7291 -1.5035
  160SAPE  H16S17938   3.773   4.138   8.371  0.8183 -1.0386 -1.9352
  160SAPE  C21717939   3.780   3.933   8.417  0.5489 -0.1083  0.5074
  160SAPE  H17R17940   3.873   3.920   8.357  0.5875  2.0817  0.0703
  160SAPE  H17S17941   3.731   3.833   8.410  0.5948 -0.0097 -1.4218
  160SAPE  C21817942   3.825   3.945   8.564 -0.2635 -0.5146  0.1059
  160SAPE  H18R17943   3.742   3.971   8.633  1.0018  1.0096  1.0855
  160SAPE  H18S17944   3.897   4.029   8.571  0.6170 -1.1892 -0.6571
  160SAPE  C21917945   3.910   3.826   8.604 -0.0383 -0.1558 -0.0552
  160SAPE  H19R17946   4.004   3.825   8.545  1.8470 -1.5720  2.8806
  160SAPE  H19S17947   3.846   3.737   8.585 -1.4150  0.8529 -0.2464
  160SAPE  C22017948   3.949   3.847   8.750  0.4960 -0.5361  0.3733
  160SAPE  H20R17949   4.009   3.939   8.767 -1.2955  0.0865  3.8259
  160SAPE  H20S17950   3.993   3.754   8.791 -1.0976 -1.4783 -0.0243
  160SAPE  H20T17951   3.863   3.882   8.812  1.4823  3.0570 -0.1840
  160SAPE   C3317952   4.425   3.648   7.126 -0.7022  0.9962 -0.3909
  160SAPE   H3X17953   4.482   3.553   7.134 -0.3772  1.3326  1.3895
  160SAPE   H3Y17954   4.322   3.620   7.156 -0.0826 -0.1608  0.7003
  160SAPE   C3417955   4.476   3.752   7.222 -0.4833 -0.5202  0.2877
  160SAPE   H4X17956   4.410   3.841   7.214 -1.1649 -1.0322  0.1299
  160SAPE   H4Y17957   4.578   3.769   7.181 -0.6397  0.3817  0.2535
  160SAPE   C3517958   4.491   3.701   7.367 -0.4438  0.1032 -0.2903
  160SAPE   H5X17959   4.571   3.627   7.389  0.8956  0.9969 -2.0796
  160SAPE   H5Y17960   4.398   3.649   7.402  0.8723 -1.7037  0.6133
  160SAPE   C3617961   4.508   3.818   7.457 -0.5731 -0.2073 -0.5296
  160SAPE   H6X17962   4.413   3.876   7.459  0.4997  1.6075  3.1300
  160SAPE   H6Y17963   4.578   3.892   7.413 -2.4349  1.7730 -0.3088
  160SAPE   C3717964   4.546   3.791   7.604  0.1558  0.2713  0.3323
  160SAPE   H7X17965   4.549   3.892   7.651  3.0242  1.1025 -1.4577
  160SAPE   H7Y17966   4.652   3.756   7.609  0.3358  0.5442 -1.3370
  160SAPE   C3817967   4.461   3.695   7.684 -0.0589  0.4027  0.1019
  160SAPE   H8X17968   4.494   3.591   7.663 -3.0346 -0.9747  1.9227
  160SAPE   H8Y17969   4.352   3.703   7.660 -0.2357 -1.6414  0.1272
  160SAPE   C3917970   4.476   3.725   7.833 -0.7985 -0.0822  0.0466
  160SAPE   H9X17971   4.458   3.834   7.846  1.7880  0.3911  0.0354
  160SAPE   H9Y17972   4.580   3.708   7.868  0.0289  2.9274 -0.7463
  160SAPE  C31017973   4.368   3.647   7.918  0.4630  0.1627  0.3264
  160SAPE  H10X17974   4.385   3.538   7.910  0.0359  0.0547  0.8714
  160SAPE  H10Y17975   4.273   3.658   7.862  1.3079 -2.1256 -1.6036
  160SAPE  C31117976   4.350   3.702   8.063  0.2979  0.4106 -0.1703
  160SAPE  H11X17977   4.260   3.655   8.108  1.3887 -2.1256 -0.5915
  160SAPE  H11Y17978   4.315   3.803   8.031  1.5683  1.4738  1.6676
  160SAPE  C31217979   4.471   3.694   8.144  0.2278  0.1428  0.1531
  160SAPE  H12X17980   4.555   3.749   8.096 -0.2402  0.9370  0.2242
  160SAPE  H12Y17981   4.517   3.593   8.144  0.9356  0.4577  0.0687
  160SAPE  C31317982   4.461   3.745   8.291 -0.0131  0.2036  1.0413
  160SAPE  H13X17983   4.407   3.842   8.284 -0.8106 -0.1037  2.5517
  160SAPE  H13Y17984   4.556   3.763   8.346  0.7612 -0.4638 -0.0609
  160SAPE  C31417985   4.380   3.656   8.390 -0.0624 -0.4454  0.2130
  160SAPE  H14X17986   4.423   3.555   8.383 -2.9253 -1.7498  0.5942
  160SAPE  H14Y17987   4.276   3.646   8.351 -0.4201 -2.1396  1.5326
  160SAPE  C31517988   4.384   3.706   8.536 -0.5952  0.0787  0.1404
  160SAPE  H15X17989   4.373   3.816   8.539  2.2772  0.4031 -0.6281
  160SAPE  H15Y17990   4.481   3.680   8.582 -1.0996 -1.5477  0.3503
  160SAPE  C31617991   4.270   3.659   8.632 -0.1088 -0.1560  0.1088
  160SAPE  H16X17992   4.173   3.674   8.580 -0.7119  1.9838  1.7788
  160SAPE  H16Y17993   4.273   3.713   8.729 -0.7094  1.0323 -0.5258
  160SAPE  C31717994   4.290   3.511   8.675 -0.1373 -0.7177 -0.6746
  160SAPE  H17X17995   4.397   3.516   8.706  0.0454 -1.8886 -1.1084
  160SAPE  H17Y17996   4.269   3.439   8.594 -0.9703 -3.0525  1.5336
  160SAPE  C31817997   4.202   3.472   8.793  0.8635  0.2010  0.9575
  160SAPE  H18X17998   4.097   3.442   8.771  1.5119  0.1867 -2.2346
  160SAPE  H18Y17999   4.218   3.555   8.865  1.0593  0.6982  0.3334
  160SAPE  H18Z18000   4.249   3.385   8.845 -0.1911 -0.4008  0.9156
  161SAPE     N18001   6.010   1.430   6.233  0.5783 -0.3839 -0.2731
  161SAPE   HN118002   6.091   1.427   6.298  0.6811  1.1593 -0.3051
  161SAPE   HN218003   5.941   1.352   6.234 -0.4145  0.4337 -2.0967
  161SAPE   HN318004   6.042   1.465   6.140  1.6848 -0.7198 -0.0181
  161SAPE   C1218005   5.920   1.549   6.271  0.2483  0.3024  0.3222
  161SAPE  H12A18006   5.820   1.501   6.277  0.2910  0.0529 -0.7592
  161SAPE  H12B18007   5.922   1.616   6.182  0.0698  0.1280  0.1844
  161SAPE   C1118008   5.970   1.610   6.401 -0.7283 -0.1977  0.4195
  161SAPE  H11A18009   5.981   1.523   6.469  2.0094  0.2480  0.6212
  161SAPE  H11B18010   5.890   1.677   6.440 -1.0816  0.0709 -0.7424
  161SAPE     P18011   6.133   1.808   6.327  0.1601 -0.2778 -0.0564
  161SAPE   O1318012   6.262   1.813   6.255  1.0546 -0.4023  0.1330
  161SAPE   O1418013   6.020   1.860   6.253  0.1773 -0.3373  0.3076
  161SAPE   O1218014   6.095   1.666   6.369  0.0571 -0.1557  0.1876
  161SAPE   O1118015   6.145   1.882   6.462 -0.1426  0.0667  0.2813
  161SAPE    C118016   6.259   1.872   6.547  0.1293 -0.4258 -0.2386
  161SAPE    HA18017   6.342   1.811   6.505  3.0789  3.8234 -0.8721
  161SAPE    HB18018   6.307   1.970   6.565  0.4955 -0.5603 -0.4612
  161SAPE    C218019   6.238   1.817   6.695  0.2510 -0.3312  0.1094
  161SAPE    HS18020   6.217   1.708   6.685 -4.1465  0.2160  2.4253
  161SAPE   O2118021   6.132   1.886   6.757  0.0676  0.6666  0.9213
  161SAPE   C2118022   6.051   1.813   6.834  0.1107 -0.2098  0.4055
  161SAPE   O2218023   6.048   1.689   6.843 -0.3047  0.5423  0.1103
  161SAPE   C2218024   5.979   1.906   6.919  0.9818 -0.0582 -0.8119
  161SAPE   H2R18025   6.046   1.990   6.949  0.5367 -0.3071  0.9023
  161SAPE   H2S18026   5.887   1.944   6.870 -0.2667 -0.5816  1.0911
  161SAPE    C318027   6.363   1.823   6.791  0.2513 -0.3981  0.3482
  161SAPE    HX18028   6.376   1.930   6.821 -0.2827 -0.4485  0.7739
  161SAPE    HY18029   6.449   1.781   6.735  0.2927  1.2559 -0.8659
  161SAPE   O3118030   6.352   1.727   6.895 -0.1200 -0.0022  0.2573
  161SAPE   C3118031   6.354   1.772   7.015  0.1670 -0.2720 -0.2480
  161SAPE   O3218032   6.372   1.891   7.043 -0.3472 -0.7071 -0.9048
  161SAPE   C3218033   6.323   1.653   7.108 -0.5486  0.4885 -0.7975
  161SAPE   H2X18034   6.401   1.575   7.098  0.6657  1.5385  0.2761
  161SAPE   H2Y18035   6.224   1.609   7.083  0.7773 -3.9194  1.2084
  161SAPE   C2318036   5.925   1.839   7.054  0.0038  0.1356  0.1041
  161SAPE   H3R18037   6.005   1.783   7.109 -0.7552 -0.7497  0.3143
  161SAPE   H3S18038   5.843   1.771   7.023  0.5990 -0.0560 -1.0816
  161SAPE   C2418039   5.890   1.937   7.165  0.4590 -0.9404  0.7350
  161SAPE   H4R18040   5.853   1.874   7.249 -0.7264 -0.3120  0.7046
  161SAPE   H4S18041   5.810   2.008   7.132  1.0954 -0.5575  0.0036
  161SAPE   C2518042   6.000   2.028   7.217 -0.5509 -0.4887  0.0309
  161SAPE   H5R18043   6.011   2.116   7.152 -1.4481  1.0764  1.9606
  161SAPE   C2618044   6.071   2.022   7.328  0.4002 -0.0223 -0.6138
  161SAPE   H6R18045   6.126   2.113   7.357 -0.2674  0.1286  0.2159
  161SAPE   C2718046   6.062   1.918   7.437  0.3007  0.3838  0.2451
  161SAPE   H7R18047   6.161   1.907   7.487  0.1915  1.4598  0.7111
  161SAPE   H7S18048   6.041   1.821   7.388 -1.4450  2.0953 -2.5721
  161SAPE   C2818049   5.956   1.948   7.539 -1.1168 -0.2906 -0.2776
  161SAPE   H8R18050   5.877   1.872   7.535 -3.9374  2.6381 -1.7055
  161SAPE   C2918051   5.964   2.047   7.633 -0.3276  0.5797  0.3553
  161SAPE   H9R18052   5.878   2.052   7.701 -0.6294 -1.3842  0.1237
  161SAPE  C21018053   6.078   2.143   7.656  0.0841 -0.0410  0.5115
  161SAPE  H10R18054   6.048   2.249   7.674  1.6606  0.1591  2.1128
  161SAPE  H10S18055   6.146   2.149   7.568  0.0727  0.5067  0.5369
  161SAPE  C21118056   6.154   2.091   7.770 -1.2167 -0.8805 -0.3151
  161SAPE  H11R18057   6.176   1.983   7.764 -0.5080 -0.9584  2.8551
  161SAPE  C21218058   6.199   2.167   7.872 -0.3164  0.6627 -0.5735
  161SAPE  H12R18059   6.253   2.129   7.960  0.6851 -1.1127 -1.9281
  161SAPE  C21318060   6.177   2.315   7.879  0.0205 -0.0141  0.0036
  161SAPE  H13R18061   6.180   2.357   7.776  1.6179 -3.1335 -1.3044
  161SAPE  H13S18062   6.257   2.365   7.938  1.2151 -1.2509 -0.5370
  161SAPE  C21418063   6.037   2.340   7.941 -0.5705  0.6919 -0.8073
  161SAPE  H14R18064   5.952   2.282   7.900  0.1167 -0.7436 -0.2119
  161SAPE  C21518065   6.007   2.442   8.027  0.2879 -0.5958  0.4320
  161SAPE  H15R18066   5.903   2.458   8.057 -0.2063 -0.5788 -1.2085
  161SAPE  C21618067   6.109   2.538   8.084  0.0636 -0.3632  0.3756
  161SAPE  H16R18068   6.061   2.636   8.108  3.4142  1.1093  1.3276
  161SAPE  H16S18069   6.174   2.576   8.002 -1.2715 -0.2812 -0.6612
  161SAPE  C21718070   6.195   2.486   8.209  0.2959  0.7175 -0.1176
  161SAPE  H17R18071   6.229   2.381   8.198 -0.8732  0.0878  1.9373
  161SAPE  H17S18072   6.130   2.488   8.300  0.1253 -1.0650 -0.1809
  161SAPE  C21818073   6.318   2.570   8.238 -0.1395  0.2142 -0.2599
  161SAPE  H18R18074   6.298   2.679   8.236 -0.1919  0.2160  0.1523
  161SAPE  H18S18075   6.393   2.551   8.159  1.5195  1.0137  1.0789
  161SAPE  C21918076   6.377   2.525   8.371 -0.6115  0.4860  0.1483
  161SAPE  H19R18077   6.391   2.415   8.376 -0.4765  0.4549 -0.8027
  161SAPE  H19S18078   6.313   2.566   8.452 -0.8213 -0.9778  0.7306
  161SAPE  C22018079   6.518   2.583   8.397  0.0143  0.1964  0.0510
  161SAPE  H20R18080   6.550   2.560   8.501 -3.0424  2.1366  1.5234
  161SAPE  H20S18081   6.524   2.694   8.405 -0.3727  0.2184  0.0682
  161SAPE  H20T18082   6.589   2.551   8.318 -0.8830  0.4260 -0.8556
  161SAPE   C3318083   6.316   1.705   7.253  0.3249 -0.2465  0.5329
  161SAPE   H3X18084   6.221   1.761   7.266  0.5117  0.0755  0.5249
  161SAPE   H3Y18085   6.401   1.771   7.280  1.4698 -0.0240 -3.3189
  161SAPE   C3418086   6.317   1.580   7.345  0.3413 -0.1246 -0.2812
  161SAPE   H4X18087   6.417   1.534   7.332 -0.5240 -1.5195 -2.1809
  161SAPE   H4Y18088   6.248   1.499   7.311 -0.7511 -0.0692  1.7276
  161SAPE   C3518089   6.269   1.622   7.487 -0.0841  0.2812 -0.1211
  161SAPE   H5X18090   6.162   1.651   7.485 -0.4926 -1.2217 -0.4135
  161SAPE   H5Y18091   6.323   1.715   7.516 -0.0310  0.0313  0.5880
  161SAPE   C3618092   6.311   1.523   7.593  0.6001 -0.4405  0.3029
  161SAPE   H6X18093   6.421   1.532   7.605  0.7179  0.1957 -1.1389
  161SAPE   H6Y18094   6.290   1.417   7.568  2.3191 -0.2968 -1.9023
  161SAPE   C3718095   6.245   1.548   7.729 -0.0817 -0.6767  0.6097
  161SAPE   H7X18096   6.274   1.465   7.797 -0.2182 -1.1047  0.1450
  161SAPE   H7Y18097   6.134   1.548   7.722 -0.1129 -2.4271  0.7413
  161SAPE   C3818098   6.303   1.675   7.791  0.2729  0.5572 -0.1953
  161SAPE   H8X18099   6.277   1.757   7.721  1.6710  2.0980  1.0693
  161SAPE   H8Y18100   6.412   1.660   7.780  0.3525  1.8281 -1.2252
  161SAPE   C3918101   6.260   1.695   7.936 -0.5413 -0.1734  0.4744
  161SAPE   H9X18102   6.291   1.611   8.002  0.2998 -1.3057 -1.3242
  161SAPE   H9Y18103   6.149   1.702   7.939 -0.4768  0.2914  2.3602
  161SAPE  C31018104   6.337   1.803   8.002  0.0774 -0.6886  0.0615
  161SAPE  H10X18105   6.330   1.902   7.951 -0.4399 -1.2162 -0.9018
  161SAPE  H10Y18106   6.441   1.764   8.000  0.6034  0.4600  2.7298
  161SAPE  C31118107   6.289   1.820   8.146  0.3238  0.1352 -0.7782
  161SAPE  H11X18108   6.276   1.718   8.188 -0.5920  0.5166 -0.0942
  161SAPE  H11Y18109   6.192   1.874   8.143  0.4317  0.2567 -2.2555
  161SAPE  C31218110   6.391   1.893   8.234  0.2079 -0.1295  0.0106
  161SAPE  H12X18111   6.393   2.002   8.211 -0.5163  0.2231  1.5830
  161SAPE  H12Y18112   6.494   1.865   8.202 -0.0643 -1.0461 -0.0638
  161SAPE  C31318113   6.381   1.893   8.387 -0.6614  0.6328  0.5397
  161SAPE  H13X18114   6.291   1.951   8.417 -1.4718  1.0796 -2.5233
  161SAPE  H13Y18115   6.475   1.939   8.422  0.6525 -0.9304 -0.8315
  161SAPE  C31418116   6.378   1.752   8.450 -0.7653  0.6519  0.2529
  161SAPE  H14X18117   6.286   1.701   8.413  0.2365 -0.3683 -0.8736
  161SAPE  H14Y18118   6.362   1.763   8.559 -3.4612  0.1327 -0.0494
  161SAPE  C31518119   6.497   1.661   8.437  0.2646  0.4812  0.0974
  161SAPE  H15X18120   6.587   1.724   8.452  0.7529 -0.6676  2.2022
  161SAPE  H15Y18121   6.501   1.633   8.330 -0.5434 -0.3514  0.2811
  161SAPE  C31618122   6.500   1.539   8.527 -0.2081  0.0319  0.0362
  161SAPE  H16X18123   6.509   1.575   8.632  0.7326  0.2999 -0.1248
  161SAPE  H16Y18124   6.597   1.488   8.505 -0.2784  0.1267 -0.4951
  161SAPE  C31718125   6.385   1.441   8.512 -0.2256  0.2363  0.0497
  161SAPE  H17X18126   6.288   1.491   8.531 -1.5927 -1.6702 -1.6197
  161SAPE  H17Y18127   6.397   1.359   8.586  0.1048 -0.6494 -0.9707
  161SAPE  C31818128   6.380   1.376   8.373  0.2365  0.2554 -0.1925
  161SAPE  H18X18129   6.483   1.347   8.344  0.0012 -0.2837 -0.4925
  161SAPE  H18Y18130   6.349   1.446   8.293 -0.7991 -0.9213 -0.8370
  161SAPE  H18Z18131   6.328   1.279   8.381 -0.1254  0.4954  0.4721
  162SAPE     N18132   5.274   4.498   6.217 -0.1848  0.1818 -0.2397
  162SAPE   HN118133   5.221   4.459   6.298  0.8070  3.8887  2.3212
  162SAPE   HN218134   5.325   4.428   6.161  0.0917  1.1384 -1.2047
  162SAPE   HN318135   5.334   4.576   6.250  0.3693 -0.6026  0.6432
  162SAPE   C1218136   5.167   4.549   6.130 -0.0307  0.0822 -0.0571
  162SAPE  H12A18137   5.105   4.462   6.103 -0.1499 -0.3510  1.5577
  162SAPE  H12B18138   5.218   4.576   6.035 -1.2845 -0.0341 -0.7626
  162SAPE   C1118139   5.084   4.663   6.194 -0.7957  0.2175 -0.1335
  162SAPE  H11A18140   5.146   4.751   6.221 -1.6913  1.0265 -0.6751
  162SAPE  H11B18141   5.032   4.636   6.288  0.1601 -2.8889 -0.4430
  162SAPE     P18142   4.844   4.634   6.105  0.5267  0.1124 -0.2534
  162SAPE   O1318143   4.771   4.640   5.981  0.0739 -0.6017 -0.3637
  162SAPE   O1418144   4.875   4.499   6.158 -0.1454 -0.3369 -0.4871
  162SAPE   O1218145   4.985   4.710   6.099  0.9779  0.0551 -0.1556
  162SAPE   O1118146   4.750   4.713   6.206 -0.2778 -0.8433  0.5528
  162SAPE    C118147   4.737   4.668   6.339  0.2972  0.2603 -0.0195
  162SAPE    HA18148   4.629   4.641   6.349  0.4994  0.3204  2.7168
  162SAPE    HB18149   4.800   4.578   6.359 -1.8665 -1.6148 -1.3467
  162SAPE    C218150   4.781   4.767   6.447 -0.0209  0.2095 -0.6241
  162SAPE    HS18151   4.695   4.837   6.450 -0.9641 -0.9829  2.7625
  162SAPE   O2118152   4.904   4.836   6.413 -0.0181  0.0541  0.6479
  162SAPE   C2118153   4.901   4.965   6.411 -0.1775 -0.0995 -0.1062
  162SAPE   O2218154   4.820   5.039   6.461 -0.2720 -0.0720 -0.3849
  162SAPE   C2218155   5.017   5.016   6.317 -0.4006 -0.8321  0.3086
  162SAPE   H2R18156   5.112   4.994   6.370 -0.3282 -2.0965 -0.3477
  162SAPE   H2S18157   5.025   4.950   6.229  1.7021 -1.3910  0.8863
  162SAPE    C318158   4.799   4.703   6.587 -1.2257 -0.2000  0.0148
  162SAPE    HX18159   4.877   4.624   6.578 -2.3057 -1.5975  2.5113
  162SAPE    HY18160   4.709   4.646   6.620 -0.7620  0.1011  1.8773
  162SAPE   O3118161   4.837   4.795   6.690 -0.4007 -0.5828  0.4690
  162SAPE   C3118162   4.739   4.870   6.727  0.8168 -0.2611  0.2507
  162SAPE   O3218163   4.623   4.853   6.698 -0.2123  0.2156  0.2159
  162SAPE   C3218164   4.793   4.976   6.828 -0.8413 -0.2342  0.5901
  162SAPE   H2X18165   4.795   5.072   6.773  2.7038 -0.5869  0.0364
  162SAPE   H2Y18166   4.896   4.945   6.856  0.3039  2.0239 -1.0060
  162SAPE   C2318167   5.014   5.159   6.256 -0.1559  0.1952 -0.0696
  162SAPE   H3R18168   4.929   5.173   6.185 -1.6771 -0.2006  1.6178
  162SAPE   H3S18169   5.116   5.180   6.217  0.5963  0.1809  1.8506
  162SAPE   C2418170   5.003   5.277   6.362  0.0225  0.5149 -0.2389
  162SAPE   H4R18171   4.914   5.262   6.427  0.7172  0.1857  0.6628
  162SAPE   H4S18172   4.976   5.368   6.305  1.7399  1.1319 -0.0984
  162SAPE   C2518173   5.124   5.291   6.456 -0.0899 -0.9440  0.6306
  162SAPE   H5R18174   5.220   5.291   6.403 -0.0116 -1.1837  0.7732
  162SAPE   C2618175   5.129   5.284   6.593  0.6826  0.0800 -0.1809
  162SAPE   H6R18176   5.226   5.287   6.646  0.8614  0.9257 -0.5509
  162SAPE   C2718177   5.016   5.262   6.693 -0.7668 -0.2047 -0.2425
  162SAPE   H7R18178   5.021   5.160   6.737  0.1429 -0.8949 -1.9084
  162SAPE   H7S18179   4.921   5.255   6.636 -1.1790  1.4846  0.2094
  162SAPE   C2818180   5.014   5.381   6.784  1.1556  0.0983 -0.7958
  162SAPE   H8R18181   5.005   5.479   6.735 -0.3924  0.4739  0.2181
  162SAPE   C2918182   5.029   5.374   6.920 -0.2869  0.0905 -0.4576
  162SAPE   H9R18183   5.038   5.469   6.975  1.2890 -0.1163 -0.3218
  162SAPE  C21018184   5.065   5.252   7.004  0.0395  0.3940 -0.7467
  162SAPE  H10R18185   5.114   5.171   6.945  1.8806  0.3456  0.7798
  162SAPE  H10S18186   4.966   5.217   7.040  0.6015 -1.2816 -0.7961
  162SAPE  C21118187   5.159   5.302   7.111  0.0820  0.5006 -0.1889
  162SAPE  H11R18188   5.252   5.345   7.070  0.7832  0.5879  1.4634
  162SAPE  C21218189   5.140   5.303   7.246  0.3693  0.3795 -0.1465
  162SAPE  H12R18190   5.214   5.344   7.317  0.6762  0.6825 -0.6362
  162SAPE  C21318191   5.012   5.252   7.315  0.0551  0.1419  0.1636
  162SAPE  H13R18192   5.039   5.165   7.377 -1.9949  0.7280  1.9460
  162SAPE  H13S18193   4.945   5.207   7.238 -0.5938  1.4896 -0.0679
  162SAPE  C21418194   4.934   5.359   7.390  0.0375  0.1259  0.0080
  162SAPE  H14R18195   4.989   5.429   7.456 -0.4045  1.8939 -1.4507
  162SAPE  C21518196   4.803   5.390   7.374 -0.4723  0.0334  0.3913
  162SAPE  H15R18197   4.760   5.471   7.434  0.1949  0.6146  0.0947
  162SAPE  C21618198   4.707   5.311   7.272  0.0518 -0.0242 -0.6347
  162SAPE  H16R18199   4.609   5.290   7.319 -0.3937  2.2502 -0.4854
  162SAPE  H16S18200   4.748   5.209   7.254  2.6010  0.0129  4.1071
  162SAPE  C21718201   4.692   5.377   7.138 -0.3242  0.2920  1.0393
  162SAPE  H17R18202   4.782   5.352   7.077 -0.6204 -0.9132  1.0839
  162SAPE  H17S18203   4.702   5.487   7.155 -0.0688  0.4406 -0.0225
  162SAPE  C21818204   4.568   5.322   7.055  0.3865 -0.2665  1.2309
  162SAPE  H18R18205   4.480   5.379   7.095 -1.7062 -1.8805 -0.9281
  162SAPE  H18S18206   4.555   5.213   7.072 -0.8010 -0.4347 -0.5826
  162SAPE  C21918207   4.598   5.343   6.905 -0.1980  0.2096 -0.5397
  162SAPE  H19R18208   4.692   5.290   6.882 -0.9061 -1.0808 -0.5347
  162SAPE  H19S18209   4.614   5.450   6.881 -0.3370 -0.0582 -1.8860
  162SAPE  C22018210   4.499   5.292   6.798 -0.1686 -0.5512 -0.5823
  162SAPE  H20R18211   4.535   5.314   6.695 -1.4521  1.7768 -0.5599
  162SAPE  H20S18212   4.404   5.346   6.820  0.4311  0.3150 -0.0905
  162SAPE  H20T18213   4.487   5.182   6.806 -0.6759 -0.3954  1.1179
  162SAPE   C3318214   4.699   4.984   6.945 -0.1724 -0.4184  0.3240
  162SAPE   H3X18215   4.606   5.023   6.899 -2.1037 -2.6293  2.2127
  162SAPE   H3Y18216   4.727   5.071   7.008 -1.8396 -0.8924  1.7484
  162SAPE   C3418217   4.680   4.854   7.028 -0.3314  0.8736 -0.0716
  162SAPE   H4X18218   4.667   4.774   6.953  0.2043  0.8888 -0.1857
  162SAPE   H4Y18219   4.596   4.845   7.100  1.8634  0.1945  2.4832
  162SAPE   C3518220   4.802   4.823   7.114 -0.6069  0.3082  0.1793
  162SAPE   H5X18221   4.797   4.891   7.202  1.1799 -0.3490  0.8247
  162SAPE   H5Y18222   4.896   4.845   7.058 -0.0015 -2.9843 -0.1771
  162SAPE   C3618223   4.818   4.680   7.172 -0.8079 -0.7672 -0.7594
  162SAPE   H6X18224   4.804   4.619   7.081  0.1760  0.2082 -1.5885
  162SAPE   H6Y18225   4.735   4.653   7.241  0.0671  0.0878  0.6500
  162SAPE   C3718226   4.946   4.647   7.252 -0.3800 -0.1363  0.4939
  162SAPE   H7X18227   5.037   4.669   7.193 -0.0314  1.4795  1.6168
  162SAPE   H7Y18228   4.955   4.536   7.261  0.9915 -0.0201  0.6501
  162SAPE   C3818229   4.959   4.717   7.387  0.1331 -0.0864  0.4545
  162SAPE   H8X18230   4.942   4.826   7.378 -2.3962 -0.4802  0.0763
  162SAPE   H8Y18231   5.063   4.706   7.425  1.1140  1.8467 -1.5457
  162SAPE   C3918232   4.868   4.658   7.485  0.9718 -0.2610  0.0289
  162SAPE   H9X18233   4.898   4.553   7.505  1.8339  0.0705  0.5196
  162SAPE   H9Y18234   4.765   4.648   7.444  0.8377 -0.4334  0.4066
  162SAPE  C31018235   4.855   4.747   7.610 -0.3855 -0.0330  0.8379
  162SAPE  H10X18236   4.838   4.854   7.582 -2.6070 -0.3302  0.9187
  162SAPE  H10Y18237   4.950   4.750   7.667  0.3283  0.7651 -0.3714
  162SAPE  C31118238   4.737   4.711   7.698  0.5150  0.2017 -0.4440
  162SAPE  H11X18239   4.720   4.602   7.710 -0.3944  0.7335  4.0440
  162SAPE  H11Y18240   4.648   4.756   7.650 -0.4792  0.3753  1.5116
  162SAPE  C31218241   4.744   4.768   7.841  0.2515 -0.3997  0.0314
  162SAPE  H12X18242   4.735   4.878   7.828  1.0893 -0.6009 -2.4968
  162SAPE  H12Y18243   4.841   4.752   7.893  1.0928  0.8422 -1.1189
  162SAPE  C31318244   4.627   4.728   7.937 -0.4086  1.1026 -0.4061
  162SAPE  H13X18245   4.529   4.751   7.890 -1.5592 -0.4233  1.1737
  162SAPE  H13Y18246   4.648   4.792   8.025  3.0764  0.6888 -0.8500
  162SAPE  C31418247   4.632   4.577   7.976  0.0483  0.4396  0.2116
  162SAPE  H14X18248   4.730   4.544   8.018  0.8629 -0.1689 -2.0989
  162SAPE  H14Y18249   4.629   4.514   7.885 -0.0696 -0.7370  1.0147
  162SAPE  C31518250   4.509   4.534   8.060  0.0093  0.4726 -0.3561
  162SAPE  H15X18251   4.515   4.423   8.057 -1.2244  0.4449 -2.4310
  162SAPE  H15Y18252   4.416   4.567   8.010 -0.5141  0.6536  0.7051
  162SAPE  C31618253   4.502   4.576   8.209 -0.6187  0.4174 -0.0008
  162SAPE  H16X18254   4.491   4.686   8.218 -0.2367  0.4735 -0.1889
  162SAPE  H16Y18255   4.606   4.561   8.247 -0.9654  0.7793  1.0972
  162SAPE  C31718256   4.404   4.502   8.304 -0.1556 -0.9827  0.1703
  162SAPE  H17X18257   4.301   4.513   8.262 -1.5039 -0.0048  3.5302
  162SAPE  H17Y18258   4.398   4.563   8.397 -2.0443 -0.9992  0.0774
  162SAPE  C31818259   4.439   4.359   8.320  0.2152  0.1308  0.0757
  162SAPE  H18X18260   4.373   4.302   8.389 -1.2720  0.4637 -1.0613
  162SAPE  H18Y18261   4.546   4.341   8.346 -0.0719  0.8916  1.8271
  162SAPE  H18Z18262   4.428   4.302   8.225  3.6889 -2.6448  1.2312
  163SAPE     N18263   3.367   3.490   6.349  0.1039  0.2390 -0.3217
  163SAPE   HN118264   3.439   3.562   6.323  0.7734 -0.0359  0.7246
  163SAPE   HN218265   3.366   3.404   6.291 -0.8199  0.7949 -1.1409
  163SAPE   HN318266   3.275   3.538   6.339  0.0024  0.1869  0.3181
  163SAPE   C1218267   3.397   3.477   6.494  0.1848  0.2121  0.2397
  163SAPE  H12A18268   3.401   3.575   6.546 -1.7392  0.4473 -0.0090
  163SAPE  H12B18269   3.495   3.426   6.497  0.7148  1.2618  0.8395
  163SAPE   C1118270   3.302   3.376   6.558  0.2089  0.7401 -0.3792
  163SAPE  H11A18271   3.196   3.408   6.552  0.2921  0.8688 -1.2370
  163SAPE  H11B18272   3.324   3.358   6.665 -1.3474 -0.4010 -0.2312
  163SAPE     P18273   3.421   3.142   6.513 -0.1135  0.3707 -0.0370
  163SAPE   O1318274   3.490   3.124   6.383 -0.1788 -0.4652  0.0449
  163SAPE   O1418275   3.509   3.189   6.620  0.5191  0.2428  0.3010
  163SAPE   O1218276   3.307   3.252   6.486  0.3211 -0.3481 -0.3814
  163SAPE   O1118277   3.348   3.006   6.565  0.2887 -0.2073  0.5328
  163SAPE    C118278   3.252   3.003   6.669 -1.0356 -0.2776 -0.3040
  163SAPE    HA18279   3.182   3.090   6.670 -0.3188  0.3177 -1.0965
  163SAPE    HB18280   3.188   2.913   6.656 -0.5968 -0.8408  1.2816
  163SAPE    C218281   3.312   2.983   6.807  0.0476  0.4459 -0.1221
  163SAPE    HS18282   3.368   3.074   6.838  0.8607  0.5221 -1.7555
  163SAPE   O2118283   3.392   2.858   6.814 -0.2778 -0.2947  0.0587
  163SAPE   C2118284   3.505   2.878   6.885  0.0651 -0.4854  0.1332
  163SAPE   O2218285   3.534   2.981   6.933 -0.3496  0.4139  0.6069
  163SAPE   C2218286   3.588   2.748   6.893 -0.5660  0.2900 -0.2039
  163SAPE   H2R18287   3.524   2.672   6.944  0.5366  1.0652  2.4562
  163SAPE   H2S18288   3.601   2.700   6.794  1.3334 -0.7494  0.5300
  163SAPE    C318289   3.201   2.984   6.912 -0.2836  0.3750 -0.8262
  163SAPE    HX18290   3.137   2.895   6.896  0.2496 -0.6744  2.4692
  163SAPE    HY18291   3.142   3.076   6.894 -0.5838  0.4584  0.5529
  163SAPE   O3118292   3.263   2.970   7.045 -0.7493 -0.1987  0.2046
  163SAPE   C3118293   3.284   3.089   7.110  0.5748  1.0951  0.2020
  163SAPE   O3218294   3.259   3.197   7.059  0.0352 -0.4437 -0.0886
  163SAPE   C3218295   3.364   3.061   7.243 -1.2183 -0.5088  0.3870
  163SAPE   H2X18296   3.463   3.028   7.205 -0.0623  2.5704  0.5195
  163SAPE   H2Y18297   3.315   2.979   7.298 -0.4945  0.6636  2.8717
  163SAPE   C2318298   3.728   2.760   6.962 -0.7358 -0.2814  0.7783
  163SAPE   H3R18299   3.792   2.822   6.896 -1.5310  0.5033  0.7250
  163SAPE   H3S18300   3.788   2.667   6.964 -0.4872 -0.0938  3.0547
  163SAPE   C2418301   3.731   2.820   7.112 -0.9489  0.0037  0.2265
  163SAPE   H4R18302   3.671   2.760   7.184  0.9083 -0.4081  1.4933
  163SAPE   H4S18303   3.684   2.920   7.107 -2.0929 -0.4719  1.2165
  163SAPE   C2518304   3.877   2.830   7.160 -0.1734 -0.4795  0.1135
  163SAPE   H5R18305   3.944   2.865   7.081  0.7658  0.3661  1.2560
  163SAPE   C2618306   3.930   2.798   7.278 -0.3966  0.5824 -0.3675
  163SAPE   H6R18307   4.037   2.816   7.297 -1.0960  2.2262  2.1318
  163SAPE   C2718308   3.848   2.742   7.397  1.2755 -0.6201  0.6158
  163SAPE   H7R18309   3.913   2.685   7.466 -1.1984 -2.0962  1.7982
  163SAPE   H7S18310   3.771   2.670   7.360 -0.3416  1.0321  0.7081
  163SAPE   C2818311   3.753   2.845   7.464  0.4507  0.3614 -0.3997
  163SAPE   H8R18312   3.728   2.932   7.402 -2.8059 -0.0850  0.1876
  163SAPE   C2918313   3.712   2.837   7.595  0.4051  0.1397  0.2976
  163SAPE   H9R18314   3.653   2.920   7.636  2.3627  2.2910 -1.1112
  163SAPE  C21018315   3.751   2.731   7.694 -0.3328 -0.1424 -0.5488
  163SAPE  H10R18316   3.840   2.670   7.669  0.2467 -0.1305  1.3877
  163SAPE  H10S18317   3.672   2.654   7.707 -2.0719  1.8598  1.1847
  163SAPE  C21118318   3.792   2.800   7.827  0.8216  0.3764  0.4623
  163SAPE  H11R18319   3.895   2.837   7.820  0.6884  0.6246 -0.2849
  163SAPE  C21218320   3.728   2.793   7.945  0.5939  0.0816 -0.7272
  163SAPE  H12R18321   3.743   2.861   8.031 -1.9949  1.5064 -1.3568
  163SAPE  C21318322   3.602   2.710   7.965  0.2399 -0.0927  0.2153
  163SAPE  H13R18323   3.608   2.649   8.058  1.3270  0.9983  0.8687
  163SAPE  H13S18324   3.581   2.627   7.894  0.2226  0.6115 -0.6093
  163SAPE  C21418325   3.474   2.798   7.953  0.2113  0.4072  0.6094
  163SAPE  H14R18326   3.479   2.853   7.858 -0.7268 -0.3183  0.1347
  163SAPE  C21518327   3.392   2.840   8.062  0.1526  0.5073  0.4975
  163SAPE  H15R18328   3.314   2.917   8.054 -1.7600 -1.5506 -1.4427
  163SAPE  C21618329   3.413   2.784   8.203  0.0598 -0.1138  0.0343
  163SAPE  H16R18330   3.490   2.843   8.258 -0.2685  1.6185 -1.3200
  163SAPE  H16S18331   3.455   2.682   8.194 -1.0936 -0.4156 -2.5576
  163SAPE  C21718332   3.281   2.776   8.286  0.4572 -0.1812  0.4235
  163SAPE  H17R18333   3.279   2.684   8.347  1.5250  1.4949  3.0492
  163SAPE  H17S18334   3.192   2.778   8.219  0.8028 -1.1221 -0.0754
  163SAPE  C21818335   3.256   2.886   8.389  0.3969  0.4300  0.7360
  163SAPE  H18R18336   3.149   2.905   8.409  0.1901 -0.4518  0.4555
  163SAPE  H18S18337   3.287   2.982   8.341  0.9292 -0.6043 -1.0675
  163SAPE  C21918338   3.327   2.874   8.528  0.5470 -0.0466 -0.2126
  163SAPE  H19R18339   3.431   2.851   8.495  0.3576 -0.7751 -0.3182
  163SAPE  H19S18340   3.278   2.795   8.588  0.9340  0.8101  1.2367
  163SAPE  C22018341   3.314   3.008   8.601  0.4167  0.6098  0.4598
  163SAPE  H20R18342   3.374   3.088   8.554 -1.0171  0.7708 -1.1454
  163SAPE  H20S18343   3.346   2.997   8.707  2.4032  0.9835 -0.0956
  163SAPE  H20T18344   3.205   3.032   8.596 -0.0571 -1.7665 -1.4094
  163SAPE   C3318345   3.422   3.181   7.320 -0.5818  0.5233  0.0788
  163SAPE   H3X18346   3.333   3.227   7.368 -1.0369 -0.1898 -0.0866
  163SAPE   H3Y18347   3.472   3.257   7.257 -0.5980  0.9760  0.6025
  163SAPE   C3418348   3.506   3.143   7.438 -0.5533 -0.1892  0.1036
  163SAPE   H4X18349   3.587   3.082   7.393  1.0344  1.4015  0.7325
  163SAPE   H4Y18350   3.447   3.080   7.509  0.7371 -1.3653  0.1543
  163SAPE   C3518351   3.580   3.261   7.511 -0.4504 -0.1873 -0.3635
  163SAPE   H5X18352   3.507   3.342   7.534 -0.3005 -0.2499  0.3615
  163SAPE   H5Y18353   3.657   3.295   7.439  1.6687 -0.6958  1.6027
  163SAPE   C3618354   3.653   3.210   7.629  0.1600  0.0816 -0.6252
  163SAPE   H6X18355   3.735   3.146   7.591 -0.4927 -0.7993 -0.5799
  163SAPE   H6Y18356   3.576   3.154   7.686 -1.2560  2.1011 -0.5039
  163SAPE   C3718357   3.706   3.320   7.709 -0.0388 -0.2983  0.2429
  163SAPE   H7X18358   3.622   3.385   7.742 -0.6407  1.1647 -3.8586
  163SAPE   H7Y18359   3.769   3.384   7.643 -0.3953  2.0628  2.1274
  163SAPE   C3818360   3.794   3.272   7.822 -0.3275  1.0132 -0.8940
  163SAPE   H8X18361   3.845   3.359   7.868  1.1007  0.5445 -1.5814
  163SAPE   H8Y18362   3.870   3.199   7.788 -1.2943 -0.4455 -0.0013
  163SAPE   C3918363   3.712   3.222   7.940  0.0337 -0.6440  0.1818
  163SAPE   H9X18364   3.643   3.146   7.899  1.3007 -1.9344  0.4220
  163SAPE   H9Y18365   3.650   3.305   7.981 -2.1788 -1.8127 -0.7097
  163SAPE  C31018366   3.800   3.155   8.046 -0.0429 -0.8347 -0.7600
  163SAPE  H10X18367   3.865   3.239   8.079 -0.7720 -0.6332  0.1698
  163SAPE  H10Y18368   3.865   3.082   7.993 -1.4900 -2.6439 -0.0942
  163SAPE  C31118369   3.733   3.100   8.171  0.4565  0.6477 -0.1471
  163SAPE  H11X18370   3.664   3.020   8.139 -0.5595  0.3160  2.7262
  163SAPE  H11Y18371   3.681   3.185   8.221  0.1313  0.6581 -0.5062
  163SAPE  C31218372   3.835   3.039   8.274 -0.2015 -0.1575 -0.5197
  163SAPE  H12X18373   3.906   3.117   8.307 -1.0002  0.6182 -0.6272
  163SAPE  H12Y18374   3.899   2.965   8.220 -0.2668  0.4337 -1.4134
  163SAPE  C31318375   3.760   2.967   8.389  0.1696 -0.0602  0.3086
  163SAPE  H13X18376   3.706   2.883   8.340 -2.2516  1.6540 -0.0607
  163SAPE  H13Y18377   3.695   3.039   8.443 -0.7128 -3.0074  3.3578
  163SAPE  C31418378   3.853   2.913   8.495  0.4850  0.0972  0.3402
  163SAPE  H14X18379   3.917   2.998   8.528 -0.7986  1.2779 -0.1482
  163SAPE  H14Y18380   3.911   2.837   8.438  2.6924  1.5200  0.6241
  163SAPE  C31518381   3.776   2.851   8.613  0.0963  0.9083  0.3210
  163SAPE  H15X18382   3.686   2.804   8.568  0.5431 -1.2183  1.5996
  163SAPE  H15Y18383   3.749   2.934   8.682 -0.0460  1.1233  0.0038
  163SAPE  C31618384   3.842   2.740   8.694  0.1082  0.6167  0.6036
  163SAPE  H16X18385   3.764   2.697   8.760  0.0564  0.5099  0.4735
  163SAPE  H16Y18386   3.925   2.788   8.749  0.8451 -0.8225  0.7685
  163SAPE  C31718387   3.910   2.633   8.610  0.1217 -0.3194  0.1195
  163SAPE  H17X18388   3.999   2.673   8.557 -0.4708  1.2637  0.2989
  163SAPE  H17Y18389   3.846   2.607   8.523  0.4978  2.7784 -1.1366
  163SAPE  C31818390   3.972   2.510   8.678  0.1093  0.2631  0.2466
  163SAPE  H18X18391   4.020   2.447   8.601  1.5023 -0.0525  1.3574
  163SAPE  H18Y18392   3.889   2.442   8.709 -0.2894  0.6670  0.0705
  163SAPE  H18Z18393   4.038   2.545   8.761  0.7939 -1.4714  0.4517
  164SAPE     N18394   0.231   6.252   6.153 -0.4232 -0.5071 -0.0740
  164SAPE   HN118395   0.231   6.341   6.208  1.7249 -0.8577  0.5360
  164SAPE   HN218396   0.131   6.223   6.155 -1.3443  2.2003 -2.3694
  164SAPE   HN318397   0.291   6.190   6.211 -1.9539 -0.1370  1.9659
  164SAPE   C1218398   0.275   6.295   6.014 -0.6870  0.0785  0.0337
  164SAPE  H12A18399   0.301   6.202   5.959 -2.1650 -0.7311  0.6865
  164SAPE  H12B18400   0.352   6.375   6.028 -1.7845  1.2773 -0.6715
  164SAPE   C1118401   0.158   6.352   5.935  0.8651  0.2453 -0.6691
  164SAPE  H11A18402   0.090   6.264   5.932  1.5453 -0.3407  0.8630
  164SAPE  H11B18403   0.187   6.384   5.833 -2.0910  0.1330 -1.5875
  164SAPE     P18404   0.131   6.618   5.984  0.4519  0.2799  0.3150
  164SAPE   O1318405   0.274   6.631   5.946 -0.4034  0.6996  0.3375
  164SAPE   O1418406   0.035   6.689   5.898  0.1534  0.2131 -0.1968
  164SAPE   O1218407   0.096   6.463   5.998  0.4510  0.0460 -0.2228
  164SAPE   O1118408   0.127   6.668   6.137 -0.0664  0.1383  0.3245
  164SAPE    C118409  -0.007   6.690   6.195  0.5937 -0.0192  0.0410
  164SAPE    HA18410  -0.059   6.769   6.136  0.4413 -1.7141 -2.1728
  164SAPE    HB18411  -0.070   6.599   6.192 -1.0349  1.0742  0.2473
  164SAPE    C218412  -0.006   6.741   6.342 -0.0784 -0.3948  0.3000
  164SAPE    HS18413   0.059   6.831   6.347  2.1801 -1.7723 -3.1159
  164SAPE   O2118414   0.047   6.639   6.414  0.1999  0.0550  0.0864
  164SAPE   C2118415   0.098   6.657   6.538 -0.3237  1.0923  0.1175
  164SAPE   O2218416   0.128   6.769   6.580  0.6340 -0.0547 -0.2371
  164SAPE   C2218417   0.106   6.512   6.605  0.1465  0.9886  0.0948
  164SAPE   H2R18418  -0.002   6.493   6.620  0.3093 -0.9817 -1.1573
  164SAPE   H2S18419   0.136   6.439   6.528 -0.3727  0.2495  0.5907
  164SAPE    C318420  -0.156   6.772   6.384  0.0292  0.1934  0.3848
  164SAPE    HX18421  -0.220   6.686   6.356 -1.6766  1.0184  1.7262
  164SAPE    HY18422  -0.191   6.863   6.331  0.5634 -1.2357 -2.5136
  164SAPE   O3118423  -0.165   6.801   6.531 -0.6490  0.6387  0.1241
  164SAPE   C3118424  -0.281   6.849   6.559 -0.1481  0.1419 -0.3170
  164SAPE   O3218425  -0.375   6.863   6.480 -0.0516 -0.0323  0.0039
  164SAPE   C3218426  -0.266   6.903   6.701  0.1483  0.7149  0.9426
  164SAPE   H2X18427  -0.187   6.981   6.703  1.2546 -0.3180 -1.0386
  164SAPE   H2Y18428  -0.229   6.816   6.760 -1.9435  0.3570  1.7950
  164SAPE   C2318429   0.181   6.502   6.737 -0.0826 -0.2822 -0.1411
  164SAPE   H3R18430   0.184   6.399   6.778 -1.4345 -0.2329  0.1283
  164SAPE   H3S18431   0.131   6.566   6.813 -0.8230 -2.0099  0.8495
  164SAPE   C2418432   0.327   6.541   6.720  0.2424  0.5382  0.1306
  164SAPE   H4R18433   0.373   6.525   6.820  0.0824  2.0412  0.4529
  164SAPE   H4S18434   0.337   6.648   6.694  0.9720  1.2063  3.0400
  164SAPE   C2518435   0.406   6.452   6.620 -0.2584 -0.1426 -0.2696
  164SAPE   H5R18436   0.349   6.454   6.526 -1.3989 -0.2170  0.4136
  164SAPE   C2618437   0.504   6.357   6.626  0.0378 -0.5207 -0.8613
  164SAPE   H6R18438   0.535   6.304   6.534 -0.6527 -0.9533 -0.8473
  164SAPE   C2718439   0.575   6.308   6.757 -0.0645 -0.1902  0.0177
  164SAPE   H7R18440   0.607   6.399   6.813  0.3790 -0.7635  0.7022
  164SAPE   H7S18441   0.671   6.259   6.729  0.0252  0.4686 -0.8498
  164SAPE   C2818442   0.504   6.200   6.835 -0.0948  0.6452 -0.8420
  164SAPE   H8R18443   0.459   6.126   6.768 -0.4145 -0.3314  0.4188
  164SAPE   C2918444   0.492   6.179   6.965  0.4376  0.0684  0.3079
  164SAPE   H9R18445   0.443   6.085   6.995  2.7099 -1.0724  0.5875
  164SAPE  C21018446   0.538   6.272   7.071 -0.7636 -0.2746 -0.6977
  164SAPE  H10R18447   0.578   6.366   7.027 -0.1493 -0.4259 -0.4722
  164SAPE  H10S18448   0.620   6.221   7.127 -1.2586  1.1193  1.3875
  164SAPE  C21118449   0.424   6.308   7.163  0.2170 -0.6209  0.5067
  164SAPE  H11R18450   0.363   6.396   7.134 -1.8296 -2.6685 -1.5904
  164SAPE  C21218451   0.386   6.240   7.281 -0.1614 -0.2397  0.2885
  164SAPE  H12R18452   0.297   6.271   7.338  0.7382 -0.0370  1.6027
  164SAPE  C21318453   0.457   6.119   7.343  0.2755  0.4982 -0.1553
  164SAPE  H13R18454   0.488   6.066   7.251 -2.1273 -0.6970 -0.3396
  164SAPE  H13S18455   0.388   6.050   7.397  1.9804 -0.7332  0.4688
  164SAPE  C21418456   0.576   6.148   7.427 -0.7654 -0.2057  0.1816
  164SAPE  H14R18457   0.665   6.105   7.379 -0.6177  2.8444 -2.4049
  164SAPE  C21518458   0.588   6.196   7.551  0.1185 -0.1505  0.0229
  164SAPE  H15R18459   0.687   6.227   7.589 -0.6645  1.7504  0.5666
  164SAPE  C21618460   0.466   6.240   7.642  0.6192  0.0017 -0.1853
  164SAPE  H16R18461   0.410   6.309   7.576 -0.9521 -1.6109 -0.6028
  164SAPE  H16S18462   0.507   6.290   7.732 -0.2580 -0.2171  0.3423
  164SAPE  C21718463   0.370   6.126   7.669 -0.0301 -0.6759 -0.0031
  164SAPE  H17R18464   0.325   6.085   7.576 -1.3360 -0.4002  0.4954
  164SAPE  H17S18465   0.285   6.173   7.723  1.4406  1.0755  0.8291
  164SAPE  C21818466   0.419   6.017   7.771 -0.1874 -0.2289  1.0916
  164SAPE  H18R18467   0.497   5.966   7.710 -1.4080  1.4516 -2.0019
  164SAPE  H18S18468   0.332   5.957   7.805  0.4352 -0.8021  1.7013
  164SAPE  C21918469   0.488   6.066   7.894  0.0815  0.3101 -0.3576
  164SAPE  H19R18470   0.584   6.116   7.869  0.8125  0.3555  2.3760
  164SAPE  H19S18471   0.520   5.976   7.951 -1.4699 -0.2089 -0.3002
  164SAPE  C22018472   0.392   6.150   7.971 -0.5703 -0.2814 -0.1253
  164SAPE  H20R18473   0.369   6.250   7.929 -0.2590  0.3317  1.1240
  164SAPE  H20S18474   0.445   6.169   8.067  1.0151 -0.2267 -0.9946
  164SAPE  H20T18475   0.302   6.087   7.985  0.2451 -1.3633  0.3771
  164SAPE   C3318476  -0.404   6.953   6.749 -0.0049  0.1985 -0.7274
  164SAPE   H3X18477  -0.489   6.883   6.735 -0.3098 -0.1000  2.2522
  164SAPE   H3Y18478  -0.434   7.038   6.684 -1.3130  1.3994  1.3746
  164SAPE   C3418479  -0.385   6.989   6.898 -0.4974 -0.4375 -0.0662
  164SAPE   H4X18480  -0.471   7.052   6.928  0.5576  1.5203 -1.0894
  164SAPE   H4Y18481  -0.295   7.048   6.924  0.0583 -1.4864  0.4497
  164SAPE   C3518482  -0.380   6.866   6.986 -0.2728 -0.1118 -0.3665
  164SAPE   H5X18483  -0.273   6.835   6.984 -0.3298 -0.4140  0.7686
  164SAPE   H5Y18484  -0.451   6.786   6.955  2.2305 -2.5097 -0.1937
  164SAPE   C3618485  -0.408   6.897   7.135  0.0406  0.3184  0.0167
  164SAPE   H6X18486  -0.494   6.967   7.138 -1.1380 -1.1003 -0.2335
  164SAPE   H6Y18487  -0.324   6.956   7.178 -0.9276  0.5400  1.6421
  164SAPE   C3718488  -0.422   6.763   7.216 -0.5251 -0.1729  0.0493
  164SAPE   H7X18489  -0.331   6.702   7.199 -0.9032 -0.4481 -1.0263
  164SAPE   H7Y18490  -0.492   6.694   7.164 -0.8863  2.0287 -2.4974
  164SAPE   C3818491  -0.445   6.786   7.362 -0.7808  0.3492  0.1589
  164SAPE   H8X18492  -0.351   6.818   7.412 -1.4656  0.3509  1.4624
  164SAPE   H8Y18493  -0.466   6.683   7.401 -0.2290  1.1028  2.5719
  164SAPE   C3918494  -0.560   6.882   7.392 -0.1708 -0.7230  0.0440
  164SAPE   H9X18495  -0.657   6.848   7.351 -1.0090  1.9546 -0.2457
  164SAPE   H9Y18496  -0.530   6.982   7.355  2.0692 -1.5950 -0.6083
  164SAPE  C31018497  -0.573   6.891   7.549 -0.2651  0.1518  0.9651
  164SAPE  H10X18498  -0.485   6.949   7.582 -1.2670  2.4738 -0.2679
  164SAPE  H10Y18499  -0.559   6.793   7.599  0.9249 -0.2928 -0.2163
  164SAPE  C31118500  -0.707   6.971   7.576 -0.3137 -0.5045 -0.2185
  164SAPE  H11X18501  -0.798   6.923   7.536 -0.5005  1.1776 -1.8607
  164SAPE  H11Y18502  -0.710   7.066   7.518 -0.3662 -0.2961  0.1200
  164SAPE  C31218503  -0.746   6.997   7.718  0.2488 -0.3280  0.3870
  164SAPE  H12X18504  -0.843   7.050   7.712 -1.1397 -2.8014  0.2380
  164SAPE  H12Y18505  -0.664   7.062   7.756 -1.5792  0.9149  2.3115
  164SAPE  C31318506  -0.757   6.869   7.792 -0.3713  0.1917  0.3197
  164SAPE  H13X18507  -0.654   6.828   7.799  0.8396  3.3161  1.5987
  164SAPE  H13Y18508  -0.822   6.797   7.738  0.9984 -1.8790  1.3603
  164SAPE  C31418509  -0.825   6.887   7.927 -0.2055 -0.7405  0.1672
  164SAPE  H14X18510  -0.884   6.981   7.929 -0.1479 -0.7303  1.5793
  164SAPE  H14Y18511  -0.748   6.887   8.006 -0.0375 -1.1821  0.0035
  164SAPE  C31518512  -0.911   6.767   7.969 -0.7591  0.4724 -0.5048
  164SAPE  H15X18513  -0.846   6.677   7.966  0.5505  1.4092 -0.5991
  164SAPE  H15Y18514  -0.998   6.750   7.901 -1.0339  0.3302 -0.1228
  164SAPE  C31618515  -0.961   6.768   8.121  0.3602  0.1624 -0.4613
  164SAPE  H16X18516  -0.868   6.770   8.181  2.5705 -0.2736 -3.7487
  164SAPE  H16Y18517  -1.010   6.670   8.136  0.6918  0.0687  0.0027
  164SAPE  C31718518  -1.054   6.884   8.161 -0.0800  0.4318  0.0464
  164SAPE  H17X18519  -1.134   6.911   8.089  1.8832 -1.8180 -3.1674
  164SAPE  H17Y18520  -0.985   6.971   8.173 -0.3075  0.4792  1.0026
  164SAPE  C31818521  -1.122   6.867   8.293 -0.4449 -0.8531 -0.3937
  164SAPE  H18X18522  -1.065   6.894   8.385  0.7880 -0.1202 -1.3564
  164SAPE  H18Y18523  -1.161   6.764   8.309 -0.8866 -0.5881  0.2971
  164SAPE  H18Z18524  -1.217   6.924   8.298 -1.2641 -2.2305  0.0666
  165SAPE     N18525   6.639   3.023   6.461  0.0580 -0.1003 -0.1703
  165SAPE   HN118526   6.577   3.001   6.381 -0.9143 -2.5635  1.2193
  165SAPE   HN218527   6.723   3.079   6.435 -1.4829  2.9661  1.2458
  165SAPE   HN318528   6.669   2.929   6.493  0.7735  0.2798  0.3065
  165SAPE   C1218529   6.556   3.096   6.565 -0.0000 -0.3302  0.1886
  165SAPE  H12A18530   6.623   3.155   6.630 -0.7450  0.3482  0.3553
  165SAPE  H12B18531   6.480   3.032   6.617 -0.3871 -0.9751 -1.1489
  165SAPE   C1118532   6.490   3.212   6.487 -0.3541 -0.3075  0.3034
  165SAPE  H11A18533   6.570   3.277   6.446 -0.9342  0.0643 -0.2715
  165SAPE  H11B18534   6.422   3.276   6.547  1.3500  0.4841  1.4134
  165SAPE     P18535   6.249   3.153   6.382 -0.0202  0.2111 -0.1264
  165SAPE   O1318536   6.190   3.288   6.379  0.5459 -0.0992 -0.3233
  165SAPE   O1418537   6.220   3.057   6.268  0.1465 -0.2449  0.7817
  165SAPE   O1218538   6.409   3.155   6.380  0.6710 -0.2672  0.3730
  165SAPE   O1118539   6.214   3.091   6.519  0.8302  0.1664 -0.2255
  165SAPE    C118540   6.193   2.950   6.523  0.7623  1.1879  0.6309
  165SAPE    HA18541   6.117   2.918   6.448  1.4608  0.2757  0.2929
  165SAPE    HB18542   6.276   2.882   6.494  2.0628  3.7747 -1.9991
  165SAPE    C218543   6.141   2.888   6.658  0.2633 -0.7958 -0.1473
  165SAPE    HS18544   6.049   2.946   6.681  1.2209 -0.0143  1.8381
  165SAPE   O2118545   6.233   2.901   6.766 -0.1194  0.3038 -0.1505
  165SAPE   C2118546   6.227   3.003   6.849 -0.6932  0.2155 -0.2962
  165SAPE   O2218547   6.154   3.100   6.844 -0.2754  0.6584  0.3188
  165SAPE   C2218548   6.343   3.001   6.953 -0.1348 -0.3817 -0.1773
  165SAPE   H2R18549   6.430   3.042   6.897  0.3959 -1.2616 -0.0096
  165SAPE   H2S18550   6.318   3.070   7.036 -1.0296 -0.1716 -0.6213
  165SAPE    C318551   6.098   2.736   6.652 -0.4696 -0.8930 -0.1475
  165SAPE    HX18552   6.190   2.676   6.640  0.1018 -0.2165  0.7941
  165SAPE    HY18553   6.041   2.715   6.559 -1.3351  1.9056 -0.3085
  165SAPE   O3118554   6.026   2.679   6.765  0.2479 -0.5800 -0.1420
  165SAPE   C3118555   5.897   2.708   6.777  0.4629  0.7231  0.1165
  165SAPE   O3218556   5.837   2.793   6.715 -0.4811 -0.0678 -0.2505
  165SAPE   C3218557   5.830   2.630   6.886  0.2604  0.0495 -0.6849
  165SAPE   H2X18558   5.913   2.577   6.937 -0.1327  1.6254  1.6263
  165SAPE   H2Y18559   5.767   2.552   6.837 -0.1120  0.4998 -0.9282
  165SAPE   C2318560   6.372   2.860   7.008  0.3084 -0.0223  0.4614
  165SAPE   H3R18561   6.467   2.858   7.066  1.0740  2.0722 -0.6537
  165SAPE   H3S18562   6.383   2.787   6.926 -2.9958  0.7568 -0.7509
  165SAPE   C2418563   6.262   2.815   7.112 -0.1009  0.2019  0.0615
  165SAPE   H4R18564   6.285   2.708   7.134 -1.2153 -0.5308 -2.2183
  165SAPE   H4S18565   6.165   2.796   7.062  0.9179 -2.1248 -1.1238
  165SAPE   C2518566   6.243   2.899   7.233  0.0451  0.6623  0.6324
  165SAPE   H5R18567   6.205   2.999   7.208  1.0987  1.0255  0.4843
  165SAPE   C2618568   6.263   2.866   7.361  0.0363  0.4306 -0.1895
  165SAPE   H6R18569   6.229   2.936   7.439  1.4097 -1.0703  1.7969
  165SAPE   C2718570   6.297   2.726   7.418  0.2161 -0.7880  0.3856
  165SAPE   H7R18571   6.277   2.659   7.332  0.4663  0.9463 -1.0382
  165SAPE   H7S18572   6.224   2.695   7.496  1.5371 -3.1753  0.7207
  165SAPE   C2818573   6.437   2.722   7.475 -0.8797  0.3921  0.1735
  165SAPE   H8R18574   6.502   2.729   7.387 -2.5491  0.9746 -1.0417
  165SAPE   C2918575   6.481   2.721   7.599  0.4790 -0.5795 -0.3889
  165SAPE   H9R18576   6.588   2.698   7.608  0.2366 -1.9781 -1.0475
  165SAPE  C21018577   6.394   2.724   7.719  0.1244  0.0404  0.4322
  165SAPE  H10R18578   6.372   2.620   7.749  0.7990 -0.5820 -1.1971
  165SAPE  H10S18579   6.292   2.765   7.701 -0.0993 -1.9004 -2.9224
  165SAPE  C21118580   6.460   2.790   7.844 -0.2448 -0.5300 -0.2646
  165SAPE  H11R18581   6.569   2.777   7.839 -0.1688  0.0820 -0.1723
  165SAPE  C21218582   6.405   2.859   7.947 -0.2602 -0.1636  0.0298
  165SAPE  H12R18583   6.469   2.901   8.026 -1.4765 -1.3787  1.6805
  165SAPE  C21318584   6.254   2.880   7.961 -0.2193  0.5799 -0.3285
  165SAPE  H13R18585   6.221   2.837   8.058 -3.3226 -0.0227 -1.5780
  165SAPE  H13S18586   6.196   2.825   7.884  1.3846 -2.0128  0.2582
  165SAPE  C21418587   6.223   3.026   7.961 -0.1087  0.6136 -0.0646
  165SAPE  H14R18588   6.210   3.066   7.859 -0.1426  0.0122 -0.3003
  165SAPE  C21518589   6.247   3.109   8.066  0.8307  0.1151  0.1683
  165SAPE  H15R18590   6.220   3.215   8.061  0.5577 -0.0269 -1.7647
  165SAPE  C21618591   6.300   3.068   8.199  0.0867  0.5356 -0.0557
  165SAPE  H16R18592   6.392   3.126   8.220  1.5747 -1.2336 -1.4402
  165SAPE  H16S18593   6.328   2.961   8.208 -2.3553 -0.0175  1.4142
  165SAPE  C21718594   6.200   3.091   8.315  0.8830  0.3164 -0.3645
  165SAPE  H17R18595   6.140   3.180   8.287  0.3014 -0.1826 -0.7333
  165SAPE  H17S18596   6.266   3.104   8.403  1.2157  0.0776 -0.5727
  165SAPE  C21818597   6.105   2.974   8.344  0.4484 -0.7441 -0.6611
  165SAPE  H18R18598   6.087   2.913   8.252  0.2211 -0.1821 -0.9884
  165SAPE  H18S18599   6.005   3.011   8.373 -0.5843 -0.6858 -4.1190
  165SAPE  C21918600   6.163   2.874   8.447 -0.1657  0.4642 -0.7186
  165SAPE  H19R18601   6.176   2.929   8.543 -0.6904  1.1171 -1.0120
  165SAPE  H19S18602   6.265   2.843   8.415  0.5688 -0.1633  2.1498
  165SAPE  C22018603   6.067   2.754   8.477 -0.1163  0.0222 -0.3071
  165SAPE  H20R18604   5.969   2.780   8.522 -0.3294 -1.1459 -0.0844
  165SAPE  H20S18605   6.116   2.685   8.549 -1.0029 -3.1713 -2.6514
  165SAPE  H20T18606   6.054   2.693   8.385  0.1150 -2.2557  1.1314
  165SAPE   C3318607   5.744   2.724   6.989  0.0740  0.0719  0.8299
  165SAPE   H3X18608   5.682   2.655   7.050 -0.8688 -1.3781 -1.6977
  165SAPE   H3Y18609   5.669   2.780   6.929  2.0369  0.5374 -1.2748
  165SAPE   C3418610   5.836   2.813   7.076 -0.4039  0.4435  0.7747
  165SAPE   H4X18611   5.897   2.889   7.023  0.7429 -0.2405  1.0968
  165SAPE   H4Y18612   5.916   2.750   7.121  1.7661  1.6242 -1.3789
  165SAPE   C3518613   5.753   2.877   7.190  0.1762  0.5051 -0.1491
  165SAPE   H5X18614   5.686   2.793   7.220  0.3246 -0.0939 -1.4792
  165SAPE   H5Y18615   5.683   2.956   7.155  0.1791  0.1983 -0.8709
  165SAPE   C3618616   5.849   2.931   7.299 -0.5129  0.4415 -0.5696
  165SAPE   H6X18617   5.915   3.009   7.255 -1.6482  2.1132  0.6179
  165SAPE   H6Y18618   5.907   2.844   7.338  0.7528  1.4297 -0.1801
  165SAPE   C3718619   5.776   2.984   7.423 -0.1882 -0.6192 -0.2586
  165SAPE   H7X18620   5.720   2.898   7.463  1.0300 -1.4881 -0.3988
  165SAPE   H7Y18621   5.703   3.063   7.396 -0.0268  0.0747  1.2963
  165SAPE   C3818622   5.880   3.011   7.536 -0.3282 -0.4868  0.4177
  165SAPE   H8X18623   5.936   3.101   7.504 -0.7294 -0.9780 -1.7146
  165SAPE   H8Y18624   5.949   2.926   7.552 -1.5963 -2.3624 -3.5496
  165SAPE   C3918625   5.811   3.024   7.675  0.4449  0.2016 -0.3753
  165SAPE   H9X18626   5.739   2.939   7.678  0.3415  0.2794 -0.5798
  165SAPE   H9Y18627   5.756   3.118   7.695 -1.7139 -1.3687  1.3248
  165SAPE  C31018628   5.913   3.006   7.792  0.3895 -0.4547  0.1071
  165SAPE  H10X18629   6.001   3.072   7.775  1.0487 -1.7286 -1.6264
  165SAPE  H10Y18630   5.953   2.903   7.786  1.3203 -0.1196  0.4444
  165SAPE  C31118631   5.850   3.035   7.926  0.9657 -0.3247  0.0585
  165SAPE  H11X18632   5.917   2.991   8.002  0.0431 -0.4026  0.8352
  165SAPE  H11Y18633   5.761   2.968   7.933  1.6751 -1.1390  1.6422
  165SAPE  C31218634   5.825   3.185   7.954  0.1509  0.2392 -1.0167
  165SAPE  H12X18635   5.781   3.241   7.869  1.0705  1.4509 -0.7100
  165SAPE  H12Y18636   5.925   3.230   7.969 -0.3811  1.1791 -0.2237
  165SAPE  C31318637   5.742   3.212   8.082  0.2203  0.7543  0.1296
  165SAPE  H13X18638   5.657   3.142   8.095  0.2610  0.5311 -0.7367
  165SAPE  H13Y18639   5.690   3.310   8.075 -2.9772 -0.7769  1.6210
  165SAPE  C31418640   5.823   3.204   8.212  0.2140 -0.7553 -0.6409
  165SAPE  H14X18641   5.831   3.308   8.251  2.1160 -0.5948 -1.3917
  165SAPE  H14Y18642   5.929   3.171   8.205  0.4051 -0.2323 -0.2305
  165SAPE  C31518643   5.751   3.129   8.328  0.3389 -0.0191 -0.3116
  165SAPE  H15X18644   5.752   3.020   8.304 -1.0567 -0.2274  0.5392
  165SAPE  H15Y18645   5.645   3.161   8.316 -0.3849 -2.4540 -0.5762
  165SAPE  C31618646   5.795   3.175   8.470  0.3385  0.6346  0.3019
  165SAPE  H16X18647   5.788   3.286   8.471 -1.7750  0.5286  0.1803
  165SAPE  H16Y18648   5.904   3.153   8.479  0.0056 -0.3177  2.1783
  165SAPE  C31718649   5.722   3.112   8.590 -0.1966 -0.5621 -0.3125
  165SAPE  H17X18650   5.613   3.099   8.575 -0.6453 -0.6515  2.7319
  165SAPE  H17Y18651   5.738   3.181   8.676 -0.4246 -1.3890  0.4074
  165SAPE  C31818652   5.778   2.977   8.641 -0.2470  0.7569 -0.1612
  165SAPE  H18X18653   5.888   2.983   8.659 -0.3314  2.0376 -0.0041
  165SAPE  H18Y18654   5.758   2.897   8.567 -1.9934  3.4983 -2.7668
  165SAPE  H18Z18655   5.727   2.939   8.732 -0.0772  1.1073  0.0843
  166SAPE     N18656   5.003   6.699   6.033  0.0236 -0.4686 -0.2074
  166SAPE   HN118657   5.104   6.708   6.009 -0.3644  0.3696 -1.5294
  166SAPE   HN218658   4.952   6.672   5.947  2.0895  1.8125 -2.2200
  166SAPE   HN318659   4.967   6.785   6.079  1.2231 -0.0634 -0.0072
  166SAPE   C1218660   5.003   6.582   6.137 -0.4466  1.2502 -1.2482
  166SAPE  H12A18661   4.915   6.589   6.204  1.0684 -1.5913  1.1298
  166SAPE  H12B18662   5.096   6.587   6.198 -2.0266  0.4816  1.2937
  166SAPE   C1118663   4.999   6.445   6.067  0.1875  0.2693  0.3711
  166SAPE  H11A18664   4.912   6.434   5.999  0.1957 -2.5260  0.7522
  166SAPE  H11B18665   4.998   6.372   6.150  0.0436 -0.0112  0.1217
  166SAPE     P18666   5.190   6.282   5.983  0.0155  0.0849  0.0579
  166SAPE   O1318667   5.079   6.189   5.961  0.4702  0.1935 -0.0696
  166SAPE   O1418668   5.311   6.276   5.898 -0.3786 -0.6306  0.3451
  166SAPE   O1218669   5.128   6.427   5.989  0.2942 -0.1718  0.2313
  166SAPE   O1118670   5.241   6.261   6.134  0.1781 -0.2233  0.3891
  166SAPE    C118671   5.350   6.339   6.179 -0.9396 -0.9162  0.2763
  166SAPE    HA18672   5.442   6.306   6.125  1.3206  3.9491  0.9002
  166SAPE    HB18673   5.330   6.447   6.166 -0.7498 -0.7698  1.1375
  166SAPE    C218674   5.364   6.330   6.335  0.5288  0.5086 -0.3435
  166SAPE    HS18675   5.358   6.225   6.369  1.7446  0.8714  1.0601
  166SAPE   O2118676   5.276   6.424   6.403  0.3130  0.2803 -0.3829
  166SAPE   C2118677   5.166   6.364   6.440  0.3608  0.5438  0.5074
  166SAPE   O2218678   5.133   6.251   6.413 -0.5629 -0.0119  0.5626
  166SAPE   C2218679   5.087   6.445   6.536 -0.2965  0.5270  0.0534
  166SAPE   H2R18680   5.075   6.548   6.498 -0.7024  0.8139  0.9598
  166SAPE   H2S18681   4.984   6.405   6.524 -0.1636  0.8565 -2.3841
  166SAPE    C318682   5.508   6.371   6.378 -0.2322  0.5487  0.3694
  166SAPE    HX18683   5.533   6.470   6.334 -0.2999  0.8496  0.9987
  166SAPE    HY18684   5.582   6.296   6.343 -2.3282 -2.5672  2.4029
  166SAPE   O3118685   5.526   6.389   6.523  0.0694  0.0371 -0.0161
  166SAPE   C3118686   5.531   6.286   6.599 -0.5083 -0.1418 -0.5056
  166SAPE   O3218687   5.512   6.172   6.558 -0.3209 -0.5094  0.8583
  166SAPE   C3218688   5.599   6.319   6.732 -0.1885 -0.0591  0.6227
  166SAPE   H2X18689   5.633   6.424   6.723 -0.5409 -0.1970 -3.2369
  166SAPE   H2Y18690   5.676   6.239   6.741 -1.3586 -1.2898 -0.0736
  166SAPE   C2318691   5.120   6.425   6.690  0.5681  0.3747  0.1283
  166SAPE   H3R18692   5.223   6.457   6.716  0.4474 -0.3348  1.5827
  166SAPE   H3S18693   5.104   6.317   6.712 -1.7534  0.6670  0.0270
  166SAPE   C2418694   5.019   6.498   6.781  0.0714 -0.1470 -0.2295
  166SAPE   H4R18695   5.041   6.445   6.876 -0.3477 -0.7423 -0.4574
  166SAPE   H4S18696   4.917   6.467   6.747 -0.6020  0.0163  1.6015
  166SAPE   C2518697   5.048   6.647   6.779  0.3126  0.1124 -0.1182
  166SAPE   H5R18698   5.037   6.694   6.680  0.8803  1.5053  0.4679
  166SAPE   C2618699   5.092   6.723   6.875  0.5120 -0.0297 -0.0499
  166SAPE   H6R18700   5.095   6.830   6.850 -1.1831 -0.0613 -0.4730
  166SAPE   C2718701   5.118   6.688   7.017 -0.7513 -0.0497 -0.7610
  166SAPE   H7R18702   5.035   6.627   7.058  0.9044 -1.4077  0.6552
  166SAPE   H7S18703   5.109   6.781   7.077 -0.6405 -0.0074 -0.8103
  166SAPE   C2818704   5.257   6.626   7.033  0.0124  0.0608 -0.1108
  166SAPE   H8R18705   5.292   6.562   6.951 -0.5654  2.0515 -1.9773
  166SAPE   C2918706   5.334   6.632   7.143  0.0955  0.8958 -0.5708
  166SAPE   H9R18707   5.437   6.592   7.142  0.4401  1.7838 -2.0802
  166SAPE  C21018708   5.299   6.690   7.283 -0.4733 -0.4698  0.2624
  166SAPE  H10R18709   5.335   6.619   7.361  0.4406  1.5149  1.6877
  166SAPE  H10S18710   5.191   6.712   7.295  0.3643  3.1168  1.5964
  166SAPE  C21118711   5.362   6.831   7.310 -0.1150  0.1230  0.7061
  166SAPE  H11R18712   5.406   6.873   7.218  1.5565  1.8345  2.2320
  166SAPE  C21218713   5.383   6.900   7.422  0.7136  0.5418  0.5977
  166SAPE  H12R18714   5.423   7.003   7.417 -0.7003  1.2117  2.5888
  166SAPE  C21318715   5.353   6.849   7.557  0.2721 -0.1965  0.0459
  166SAPE  H13R18716   5.290   6.758   7.551 -0.2726  0.1146  0.9819
  166SAPE  H13S18717   5.292   6.926   7.610 -0.5227 -0.0708 -1.0222
  166SAPE  C21418718   5.473   6.826   7.644 -0.0456  0.0359  0.5143
  166SAPE  H14R18719   5.477   6.725   7.687  0.8204 -0.2938 -0.3240
  166SAPE  C21518720   5.568   6.916   7.695  0.5717 -0.2728  0.4930
  166SAPE  H15R18721   5.648   6.887   7.764  0.7532 -0.1891  0.3175
  166SAPE  C21618722   5.561   7.067   7.671  0.2476  0.5675  0.2985
  166SAPE  H16R18723   5.469   7.091   7.615  0.9377 -0.2418 -1.2062
  166SAPE  H16S18724   5.645   7.104   7.607  1.1136  0.8989  1.5993
  166SAPE  C21718725   5.558   7.123   7.819  0.8233  0.5585 -0.6037
  166SAPE  H17R18726   5.644   7.083   7.877 -0.9591 -2.1795  0.2016
  166SAPE  H17S18727   5.476   7.089   7.886  0.8167 -0.4005 -1.0958
  166SAPE  C21818728   5.553   7.276   7.816  0.4650 -0.6909 -0.1163
  166SAPE  H18R18729   5.450   7.317   7.814  1.1967  1.1421 -1.3747
  166SAPE  H18S18730   5.621   7.294   7.731  0.7575  0.4408  0.3482
  166SAPE  C21918731   5.616   7.347   7.941  0.7532 -0.3240  0.3373
  166SAPE  H19R18732   5.647   7.454   7.937  0.2759 -0.2176 -0.5932
  166SAPE  H19S18733   5.714   7.302   7.970 -1.0437 -3.1368  2.3567
  166SAPE  C22018734   5.528   7.337   8.061 -0.2998 -0.5531  0.2633
  166SAPE  H20R18735   5.582   7.381   8.147  1.7520  0.2380 -1.3918
  166SAPE  H20S18736   5.509   7.234   8.097  1.0542 -0.5726  0.9591
  166SAPE  H20T18737   5.432   7.387   8.037  0.9450  0.9074 -1.8200
  166SAPE   C3318738   5.498   6.310   6.855  0.2831 -0.0948 -0.0168
  166SAPE   H3X18739   5.394   6.332   6.823  0.3182 -1.4483 -1.0734
  166SAPE   H3Y18740   5.534   6.378   6.936  1.7961 -0.5461 -0.3014
  166SAPE   C3418741   5.486   6.168   6.911 -0.5792  0.9662  0.1873
  166SAPE   H4X18742   5.589   6.131   6.932 -0.0473  1.9766 -0.6082
  166SAPE   H4Y18743   5.451   6.105   6.827  0.7546  0.8391 -0.2719
  166SAPE   C3518744   5.414   6.148   7.044  0.1605 -0.3005 -0.9909
  166SAPE   H5X18745   5.458   6.059   7.094 -1.3640 -0.8318 -0.5732
  166SAPE   H5Y18746   5.310   6.112   7.028  0.7639 -2.2061 -0.7893
  166SAPE   C3618747   5.412   6.266   7.145  0.0393 -0.0895 -0.0141
  166SAPE   H6X18748   5.346   6.338   7.091 -0.3158 -1.8617 -2.0377
  166SAPE   H6Y18749   5.511   6.315   7.154  0.1428 -0.2796 -0.1198
  166SAPE   C3718750   5.347   6.232   7.280 -0.0890  0.0849 -0.9451
  166SAPE   H7X18751   5.243   6.192   7.272  0.0898 -0.2299 -1.8087
  166SAPE   H7Y18752   5.354   6.324   7.341 -0.8404  0.6190 -1.6490
  166SAPE   C3818753   5.435   6.132   7.363 -0.2591  0.0457  0.7717
  166SAPE   H8X18754   5.540   6.167   7.370 -0.5894  0.8332  2.0342
  166SAPE   H8Y18755   5.449   6.034   7.314 -0.1537  0.7003 -0.5370
  166SAPE   C3918756   5.367   6.089   7.497 -0.4950  0.1726 -0.3802
  166SAPE   H9X18757   5.260   6.085   7.467 -0.4337  1.5752 -0.7763
  166SAPE   H9Y18758   5.378   6.165   7.577  1.5976 -0.7343  0.2408
  166SAPE  C31018759   5.421   5.956   7.545  0.7252  0.2167 -0.1430
  166SAPE  H10X18760   5.531   5.971   7.550  1.0236 -1.7808 -0.0778
  166SAPE  H10Y18761   5.419   5.874   7.470  1.9701  1.5125 -1.6243
  166SAPE  C31118762   5.339   5.902   7.669  0.4840  0.7620  0.2527
  166SAPE  H11X18763   5.370   5.797   7.687 -3.7215 -0.6861 -0.3903
  166SAPE  H11Y18764   5.231   5.886   7.650  0.7899 -0.7303 -0.2786
  166SAPE  C31218765   5.350   5.986   7.798 -0.0109 -0.5513 -0.7106
  166SAPE  H12X18766   5.278   6.071   7.794  0.3195 -0.2067  0.5142
  166SAPE  H12Y18767   5.445   6.039   7.817 -0.3966 -0.0244 -0.2071
  166SAPE  C31318768   5.307   5.911   7.929  0.4459  0.1994  0.4775
  166SAPE  H13X18769   5.387   5.836   7.947  1.4906  1.4844  1.3112
  166SAPE  H13Y18770   5.211   5.856   7.921  0.5363 -0.0306  0.9971
  166SAPE  C31418771   5.298   6.010   8.051  0.9145  0.1212  0.3771
  166SAPE  H14X18772   5.384   6.080   8.048  0.6323  0.5483  2.1295
  166SAPE  H14Y18773   5.301   5.941   8.138  2.0655 -0.4426 -0.0941
  166SAPE  C31518774   5.159   6.070   8.049  0.0980 -0.2655 -0.7467
  166SAPE  H15X18775   5.080   5.991   8.051 -2.0704  1.8364  1.2093
  166SAPE  H15Y18776   5.132   6.126   7.957 -3.6883 -0.9674 -0.1581
  166SAPE  C31618777   5.136   6.164   8.159 -0.5538 -0.2946 -0.2547
  166SAPE  H16X18778   5.219   6.237   8.164 -0.4020 -0.5730  1.6065
  166SAPE  H16Y18779   5.134   6.121   8.262  2.0323  1.2643  0.5094
  166SAPE  C31718780   5.006   6.246   8.137  0.3479  0.4211  0.4237
  166SAPE  H17X18781   4.911   6.189   8.130  0.8558 -0.5988  1.6352
  166SAPE  H17Y18782   5.036   6.296   8.042  1.7629  0.6591  0.9742
  166SAPE  C31818783   4.991   6.357   8.240 -0.9323  0.0277  0.4452
  166SAPE  H18X18784   5.094   6.384   8.272 -0.5032  0.6736 -1.4470
  166SAPE  H18Y18785   4.941   6.324   8.334  2.6389 -0.2330  2.3440
  166SAPE  H18Z18786   4.939   6.446   8.201 -0.0310  0.0541 -0.7007
  167SAPE     N18787   0.838   6.446   6.304 -0.7162  0.0779 -0.1903
  167SAPE   HN118788   0.827   6.518   6.229  2.4102  0.1357 -0.6848
  167SAPE   HN218789   0.907   6.475   6.376 -0.7732 -2.4052  0.9211
  167SAPE   HN318790   0.882   6.362   6.260  2.9150  1.5163  0.5178
  167SAPE   C1218791   0.702   6.409   6.360  0.4516 -0.5863 -0.3625
  167SAPE  H12A18792   0.658   6.503   6.400  2.3536  1.2467 -2.4432
  167SAPE  H12B18793   0.717   6.337   6.444  2.1412 -1.4433 -1.3522
  167SAPE   C1118794   0.615   6.342   6.256  0.4007  0.1403  0.0488
  167SAPE  H11A18795   0.587   6.409   6.173  1.0198 -1.2921 -1.3379
  167SAPE  H11B18796   0.522   6.309   6.307  1.7582 -2.1815  1.1497
  167SAPE     P18797   0.636   6.083   6.212 -0.1947  0.0740 -0.2561
  167SAPE   O1318798   0.526   6.071   6.112 -0.2700  0.4461  0.1141
  167SAPE   O1418799   0.757   5.992   6.197  0.2011 -0.1928 -0.5602
  167SAPE   O1218800   0.683   6.227   6.203 -0.0426  0.1229 -0.0374
  167SAPE   O1118801   0.573   6.079   6.353 -0.3494 -0.4362 -0.1714
  167SAPE    C118802   0.565   5.951   6.420 -0.3410 -0.4790  0.0278
  167SAPE    HA18803   0.652   5.883   6.404  0.6396  0.8863 -0.4866
  167SAPE    HB18804   0.564   5.961   6.531  1.4668 -0.4419  0.0547
  167SAPE    C218805   0.439   5.869   6.400  0.2344  0.5089 -0.1535
  167SAPE    HS18806   0.414   5.877   6.292 -0.3682  1.9057  0.0793
  167SAPE   O2118807   0.322   5.914   6.478  0.2843 -0.2253  0.5725
  167SAPE   C2118808   0.263   6.022   6.433 -1.9691 -0.0004 -0.0764
  167SAPE   O2218809   0.297   6.091   6.339 -0.1386  0.6057 -0.1855
  167SAPE   C2218810   0.138   6.046   6.515 -0.6105  0.4983 -0.4029
  167SAPE   H2R18811   0.087   6.139   6.484 -0.4024  0.9290  0.5421
  167SAPE   H2S18812   0.068   5.959   6.517 -0.5985  0.5034  0.7388
  167SAPE    C318813   0.461   5.722   6.434  0.8637  0.2931 -0.4823
  167SAPE    HX18814   0.551   5.695   6.374  0.8388  2.1418 -1.3717
  167SAPE    HY18815   0.377   5.656   6.405  2.1466 -0.8783 -1.6609
  167SAPE   O3118816   0.506   5.713   6.572  0.2055  1.0518 -0.6590
  167SAPE   C3118817   0.419   5.664   6.660 -0.0079  0.0942  0.0524
  167SAPE   O3218818   0.309   5.623   6.638  0.3900 -0.1582  1.0632
  167SAPE   C3218819   0.483   5.698   6.796  0.5570  0.5364 -0.1602
  167SAPE   H2X18820   0.489   5.809   6.804 -2.5161  0.6781  0.7283
  167SAPE   H2Y18821   0.584   5.652   6.797  0.2729 -0.1034 -0.8374
  167SAPE   C2318822   0.181   6.080   6.661  0.4882 -0.0998  0.4779
  167SAPE   H3R18823   0.238   6.175   6.660  1.4191 -0.6471 -1.1696
  167SAPE   H3S18824   0.232   5.987   6.694  0.3663 -0.4602 -0.3161
  167SAPE   C2418825   0.061   6.104   6.755  0.4170  0.4968  0.1603
  167SAPE   H4R18826  -0.014   6.160   6.695  1.6321  0.4925 -1.3916
  167SAPE   H4S18827   0.097   6.165   6.841  3.0697 -0.5270 -0.1925
  167SAPE   C2518828  -0.008   5.970   6.775  0.7249 -0.1167 -0.7987
  167SAPE   H5R18829  -0.039   5.919   6.683  1.3858  0.6783 -1.4688
  167SAPE   C2618830  -0.009   5.906   6.888  0.0890  0.7878 -0.1937
  167SAPE   H6R18831  -0.065   5.812   6.900 -1.1503  1.3470 -1.4669
  167SAPE   C2718832   0.040   5.959   7.021  0.2240  0.4549  0.2452
  167SAPE   H7R18833   0.020   6.068   7.027  1.1888  0.6321  0.2484
  167SAPE   H7S18834   0.151   5.954   7.024  0.3887  3.3679  0.6049
  167SAPE   C2818835  -0.003   5.884   7.141  0.0030  0.0363  0.1252
  167SAPE   H8R18836  -0.085   5.811   7.128  0.4921 -0.4719 -0.1016
  167SAPE   C2918837   0.029   5.899   7.273  0.1142  0.0271 -0.5157
  167SAPE   H9R18838  -0.013   5.830   7.348  0.1956  0.0041 -0.4908
  167SAPE  C21018839   0.110   6.007   7.343 -0.5555 -0.4141  0.0646
  167SAPE  H10R18840   0.182   6.036   7.264 -0.1184 -0.4855  0.4340
  167SAPE  H10S18841   0.175   5.970   7.425 -0.7819  0.3030  0.5768
  167SAPE  C21118842   0.018   6.125   7.376  0.3736 -0.0293  1.1455
  167SAPE  H11R18843  -0.026   6.176   7.290  2.9848 -0.5928 -0.6009
  167SAPE  C21218844  -0.030   6.149   7.504  0.7227  0.2849  0.0676
  167SAPE  H12R18845  -0.103   6.229   7.524  0.3669  0.1021 -0.4880
  167SAPE  C21318846  -0.008   6.051   7.619 -0.0513 -0.1999 -0.4466
  167SAPE  H13R18847   0.046   6.118   7.689 -1.5659  0.2009  0.3631
  167SAPE  H13S18848   0.063   5.969   7.598  0.3760  0.2754 -0.8740
  167SAPE  C21418849  -0.134   5.988   7.665  0.3972 -0.9106  0.4148
  167SAPE  H14R18850  -0.207   5.965   7.586  0.1754  0.6892  0.1197
  167SAPE  C21518851  -0.165   5.950   7.793  0.3812 -0.5710 -0.2067
  167SAPE  H15R18852  -0.268   5.928   7.824 -0.0375  0.3364 -0.9421
  167SAPE  C21618853  -0.083   5.976   7.920  0.0375 -0.5416  1.1155
  167SAPE  H16R18854  -0.140   6.055   7.973 -0.3018 -0.2913  0.3763
  167SAPE  H16S18855   0.014   6.028   7.902 -0.1882 -0.1836  0.9207
  167SAPE  C21718856  -0.072   5.849   8.004  0.1432  0.0094  0.6450
  167SAPE  H17R18857  -0.054   5.754   7.949 -2.4521 -0.7907  1.1212
  167SAPE  H17S18858  -0.174   5.833   8.046 -1.2506  1.3191 -2.1258
  167SAPE  C21818859   0.027   5.857   8.117  0.0566  0.6679 -0.4937
  167SAPE  H18R18860   0.135   5.869   8.092  0.3806 -0.5338  0.2318
  167SAPE  H18S18861   0.011   5.761   8.171  0.8319  0.2415 -1.0181
  167SAPE  C21918862   0.010   5.979   8.207 -0.5671 -0.5142 -0.4622
  167SAPE  H19R18863  -0.099   5.976   8.227 -0.7808 -0.8323 -1.6204
  167SAPE  H19S18864   0.043   6.066   8.147 -1.6359 -0.3503 -0.8224
  167SAPE  C22018865   0.071   5.971   8.346  0.8699  0.1948 -0.5382
  167SAPE  H20R18866   0.077   5.869   8.391  0.8378 -0.0741 -1.1321
  167SAPE  H20S18867   0.003   6.022   8.417  1.6952 -0.3166  0.6309
  167SAPE  H20T18868   0.176   6.005   8.353  0.9811 -0.5198  1.6375
  167SAPE   C3318869   0.403   5.647   6.921 -0.1148 -0.4307  0.1286
  167SAPE   H3X18870   0.405   5.536   6.913 -2.4999 -0.7036  2.5438
  167SAPE   H3Y18871   0.301   5.687   6.906  0.3109  0.4822 -0.4167
  167SAPE   C3418872   0.453   5.694   7.058  0.8853  0.2787  0.4876
  167SAPE   H4X18873   0.440   5.805   7.057  0.1431  0.2172  1.7232
  167SAPE   H4Y18874   0.562   5.673   7.065  0.4618 -1.8806  0.8533
  167SAPE   C3518875   0.379   5.645   7.183 -0.0348  0.0039 -0.6665
  167SAPE   H5X18876   0.376   5.534   7.183  1.0114 -0.0595  2.0889
  167SAPE   H5Y18877   0.277   5.684   7.161  0.3869  1.3697 -0.2684
  167SAPE   C3618878   0.428   5.710   7.310  0.3708 -0.4341  0.8124
  167SAPE   H6X18879   0.399   5.817   7.305  0.9224 -0.3488 -1.8543
  167SAPE   H6Y18880   0.540   5.706   7.311  0.5307  2.8949 -0.2354
  167SAPE   C3718881   0.388   5.630   7.446  0.8007  0.0568 -0.3114
  167SAPE   H7X18882   0.425   5.526   7.445  2.7967  0.7443  1.0106
  167SAPE   H7Y18883   0.277   5.626   7.435  0.2731  1.0023  3.8562
  167SAPE   C3818884   0.423   5.710   7.575  0.5843  0.6892 -1.1736
  167SAPE   H8X18885   0.391   5.815   7.560 -0.1230  0.5792 -0.4674
  167SAPE   H8Y18886   0.529   5.699   7.608  0.0643 -1.0447  0.0257
  167SAPE   C3918887   0.354   5.660   7.709 -0.5992 -0.4163  1.5792
  167SAPE   H9X18888   0.245   5.664   7.687 -0.8103 -1.4612  2.4037
  167SAPE   H9Y18889   0.379   5.737   7.785 -0.5184  0.7928  0.3491
  167SAPE  C31018890   0.406   5.525   7.765 -0.3674 -0.4155 -0.3398
  167SAPE  H10X18891   0.482   5.480   7.697 -0.3780  0.6054 -1.0247
  167SAPE  H10Y18892   0.327   5.450   7.787  0.1108 -0.2439  2.1769
  167SAPE  C31118893   0.474   5.539   7.901  0.0851 -0.1083 -0.5526
  167SAPE  H11X18894   0.568   5.598   7.890  0.3104 -0.3496  0.0794
  167SAPE  H11Y18895   0.507   5.438   7.934  1.3745  0.2579 -0.6879
  167SAPE  C31218896   0.381   5.598   8.013 -0.0931 -0.2681  0.2438
  167SAPE  H12X18897   0.281   5.550   8.003 -0.5233  0.2795  1.7477
  167SAPE  H12Y18898   0.361   5.705   7.991  2.3504  0.7669  2.6866
  167SAPE  C31318899   0.446   5.583   8.144 -0.1304 -0.8068  0.4931
  167SAPE  H13X18900   0.545   5.631   8.130  0.1074 -1.2970  0.4824
  167SAPE  H13Y18901   0.474   5.479   8.170  1.5282 -0.5760 -0.2881
  167SAPE  C31418902   0.373   5.648   8.260 -0.0228  0.2885  0.6973
  167SAPE  H14X18903   0.297   5.576   8.298 -0.6316 -0.8381 -2.4576
  167SAPE  H14Y18904   0.319   5.734   8.217  0.6136 -0.4669 -1.7263
  167SAPE  C31518905   0.454   5.689   8.381  0.1551 -0.4781  0.0092
  167SAPE  H15X18906   0.515   5.778   8.353  1.7726 -1.2358  1.0611
  167SAPE  H15Y18907   0.528   5.610   8.408  2.3101  1.2392 -0.6643
  167SAPE  C31618908   0.372   5.721   8.501  0.1253  0.7113  0.1290
  167SAPE  H16X18909   0.327   5.630   8.545  0.6963  0.0955 -0.5464
  167SAPE  H16Y18910   0.283   5.777   8.467  0.0930  0.4981 -0.1316
  167SAPE  C31718911   0.452   5.810   8.598  0.3839  0.0947 -0.0592
  167SAPE  H17X18912   0.513   5.895   8.559  0.3170  1.1159  2.0246
  167SAPE  H17Y18913   0.529   5.741   8.638 -0.7863 -0.7362  0.7731
  167SAPE  C31818914   0.370   5.859   8.720 -0.3014  0.0295 -0.3808
  167SAPE  H18X18915   0.298   5.940   8.698 -1.0431  0.7669  4.3041
  167SAPE  H18Y18916   0.437   5.899   8.800  2.2889  0.6779 -2.7950
  167SAPE  H18Z18917   0.311   5.775   8.764 -0.1008 -0.0842 -0.3281
  168SAPE     N18918   2.639   1.593   6.339 -0.1818  0.4115  0.0959
  168SAPE   HN118919   2.714   1.664   6.322 -0.8587  1.1598  0.1870
  168SAPE   HN218920   2.643   1.532   6.255  0.9264  0.5430  0.0448
  168SAPE   HN318921   2.552   1.650   6.335  0.0373  0.6702 -1.2681
  168SAPE   C1218922   2.673   1.521   6.469 -0.2099 -0.8077 -0.4389
  168SAPE  H12A18923   2.691   1.599   6.546 -0.2159  0.5412 -1.7704
  168SAPE  H12B18924   2.766   1.462   6.457 -0.3455 -0.5695 -3.0194
  168SAPE   C1118925   2.556   1.433   6.514  0.2213  0.4341  0.3065
  168SAPE  H11A18926   2.468   1.496   6.541  1.7329  3.0987 -0.7715
  168SAPE  H11B18927   2.588   1.388   6.611 -0.3404 -1.1409 -0.2326
  168SAPE     P18928   2.597   1.193   6.412  0.3971  0.0266  0.3592
  168SAPE   O1318929   2.545   1.111   6.299  0.0457  0.0321 -0.3428
  168SAPE   O1418930   2.741   1.219   6.421  0.4233  0.1898 -0.4693
  168SAPE   O1218931   2.519   1.334   6.413 -0.0534 -0.5049 -0.0920
  168SAPE   O1118932   2.543   1.127   6.539 -0.4018  0.5283 -0.1806
  168SAPE    C118933   2.405   1.087   6.562 -0.2202  0.0959  0.3818
  168SAPE    HA18934   2.343   1.179   6.572 -0.3004  0.1550 -0.6408
  168SAPE    HB18935   2.367   1.027   6.477 -0.2402  2.2192 -1.1352
  168SAPE    C218936   2.405   1.008   6.696 -0.0024  0.0557 -0.7076
  168SAPE    HS18937   2.455   0.910   6.681 -0.4890 -0.3069  0.0298
  168SAPE   O2118938   2.272   0.983   6.747  0.3378 -0.0840 -0.0241
  168SAPE   C2118939   2.213   0.884   6.690 -0.2313 -0.3301 -0.3987
  168SAPE   O2218940   2.264   0.807   6.606  0.2013 -0.3363 -0.1657
  168SAPE   C2218941   2.065   0.895   6.715  0.5049 -0.0665  0.1428
  168SAPE   H2R18942   2.045   0.889   6.824 -1.0893 -3.2850 -0.2889
  168SAPE   H2S18943   2.048   1.001   6.687  0.9131 -0.7438 -2.7326
  168SAPE    C318944   2.493   1.083   6.809  0.1555 -0.3968 -0.3858
  168SAPE    HX18945   2.445   1.182   6.821  1.1411  0.1341 -0.7850
  168SAPE    HY18946   2.599   1.091   6.779  0.2243 -0.8431 -0.2714
  168SAPE   O3118947   2.492   1.004   6.937 -0.6024 -0.4342  0.8253
  168SAPE   C3118948   2.532   1.064   7.042 -0.0305  0.0844 -0.0333
  168SAPE   O3218949   2.562   1.185   7.046  0.4372  0.6044  0.2742
  168SAPE   C3218950   2.548   0.965   7.160 -0.8372  0.2518  0.2740
  168SAPE   H2X18951   2.641   0.908   7.140 -0.9209  0.4232 -0.6271
  168SAPE   H2Y18952   2.459   0.898   7.153 -0.6522  0.1378 -0.9754
  168SAPE   C2318953   1.969   0.805   6.636 -0.3511  0.0919 -0.3910
  168SAPE   H3R18954   1.985   0.803   6.527 -2.7337 -0.3263 -0.7702
  168SAPE   H3S18955   1.864   0.841   6.646 -0.1696  0.0853  1.8864
  168SAPE   C2418956   1.970   0.659   6.688 -0.1917  0.0116 -0.9002
  168SAPE   H4R18957   1.963   0.657   6.799  0.9076 -1.4909 -0.8287
  168SAPE   H4S18958   2.071   0.621   6.659  0.1068  0.5995 -0.6355
  168SAPE   C2518959   1.858   0.577   6.632 -0.4190 -0.4503  0.8205
  168SAPE   H5R18960   1.874   0.534   6.532 -1.6656  0.0817  0.3843
  168SAPE   C2618961   1.740   0.546   6.674 -0.0440 -0.4537  0.1094
  168SAPE   H6R18962   1.665   0.497   6.610 -0.3838  2.0679 -1.4942
  168SAPE   C2718963   1.676   0.581   6.802  0.3935  0.1635  0.5352
  168SAPE   H7R18964   1.748   0.582   6.887 -1.0157  1.8201  1.7531
  168SAPE   H7S18965   1.616   0.496   6.840 -1.0264  1.3624  1.0268
  168SAPE   C2818966   1.573   0.691   6.787 -0.9295  0.6021  0.2867
  168SAPE   H8R18967   1.473   0.666   6.746 -0.3272  0.3703 -1.0813
  168SAPE   C2918968   1.589   0.825   6.823  0.5773 -0.2372 -0.9429
  168SAPE   H9R18969   1.506   0.896   6.815 -0.4301 -1.4185 -1.0886
  168SAPE  C21018970   1.715   0.884   6.884 -0.4070 -0.6662  0.8542
  168SAPE  H10R18971   1.806   0.820   6.881 -0.7232 -1.1493  1.5008
  168SAPE  H10S18972   1.693   0.888   6.993 -0.0084  0.6251  0.8937
  168SAPE  C21118973   1.745   1.019   6.825 -0.5815 -0.5174 -0.3176
  168SAPE  H11R18974   1.728   1.021   6.716 -0.8401  0.4309 -0.2628
  168SAPE  C21218975   1.795   1.118   6.898 -0.3970  0.5887 -0.4484
  168SAPE  H12R18976   1.810   1.218   6.854 -1.7307  0.8336 -0.3740
  168SAPE  C21318977   1.822   1.131   7.048 -0.8144  0.9000 -0.1282
  168SAPE  H13R18978   1.724   1.121   7.099 -1.3953 -2.7659 -1.7814
  168SAPE  H13S18979   1.857   1.235   7.062 -0.3420  0.8660 -0.9959
  168SAPE  C21418980   1.928   1.042   7.108 -0.7091  0.7677 -0.0243
  168SAPE  H14R18981   2.015   1.014   7.046  1.3827  1.6963  2.4137
  168SAPE  C21518982   1.936   1.004   7.235 -0.2824 -0.2675 -0.3311
  168SAPE  H15R18983   2.025   0.945   7.261  0.8476  1.4168 -0.2917
  168SAPE  C21618984   1.838   1.038   7.348  0.0535 -0.4786 -0.1204
  168SAPE  H16R18985   1.751   0.969   7.342 -0.6291  0.2945  0.7276
  168SAPE  H16S18986   1.799   1.142   7.343  1.3128 -0.0123 -0.4298
  168SAPE  C21718987   1.895   1.020   7.487  0.8543  0.0020 -0.8586
  168SAPE  H17R18988   1.823   1.057   7.562 -0.8156 -1.3542 -1.7544
  168SAPE  H17S18989   1.974   1.098   7.490 -0.5351  1.3799  0.1072
  168SAPE  C21818990   1.930   0.876   7.522 -0.0555 -0.1982  0.5880
  168SAPE  H18R18991   1.994   0.832   7.443  0.0633 -1.1273  1.1980
  168SAPE  H18S18992   1.841   0.812   7.539 -1.3862  2.2925  3.7625
  168SAPE  C21918993   2.025   0.861   7.650  0.3703 -0.4394 -0.2509
  168SAPE  H19R18994   1.978   0.916   7.735 -1.3693 -0.0637 -1.4346
  168SAPE  H19S18995   2.119   0.918   7.638  0.0917  0.1253  0.1922
  168SAPE  C22018996   2.036   0.715   7.688  0.5918  0.2849 -0.6343
  168SAPE  H20R18997   2.119   0.691   7.758  0.9061  1.9365 -0.4210
  168SAPE  H20S18998   2.065   0.651   7.602  2.5174  1.3365 -0.7956
  168SAPE  H20T18999   1.943   0.674   7.731 -1.1582  1.9711 -2.6733
  168SAPE   C3319000   2.553   1.027   7.296  0.2823  0.6357  1.1776
  168SAPE   H3X19001   2.540   0.947   7.372  1.6193 -0.9105 -0.1674
  168SAPE   H3Y19002   2.470   1.097   7.318 -0.3896  0.4376 -0.6731
  168SAPE   C3419003   2.691   1.086   7.332  0.2299 -0.3454  0.6196
  168SAPE   H4X19004   2.714   1.171   7.264  0.9388 -0.4233  0.7622
  168SAPE   H4Y19005   2.758   0.999   7.316  0.2714 -0.3326  0.7209
  168SAPE   C3519006   2.710   1.138   7.478  0.0788 -0.0987 -0.2656
  168SAPE   H5X19007   2.639   1.218   7.506  1.2968  0.4199  1.3535
  168SAPE   H5Y19008   2.814   1.176   7.483 -0.3780  1.1980 -0.6114
  168SAPE   C3619009   2.695   1.035   7.596  0.2933  0.1709  0.4999
  168SAPE   H6X19010   2.742   0.936   7.577 -0.7890 -0.0349 -1.1744
  168SAPE   H6Y19011   2.585   1.020   7.598  0.6756 -2.9471  0.8252
  168SAPE   C3719012   2.754   1.093   7.725 -0.1035  0.6048 -0.1111
  168SAPE   H7X19013   2.716   1.195   7.750  3.1619  1.3334  2.1314
  168SAPE   H7Y19014   2.863   1.109   7.721 -0.1333  0.8734  0.0691
  168SAPE   C3819015   2.737   1.008   7.846  0.1252 -0.1261  0.0918
  168SAPE   H8X19016   2.797   0.914   7.841  2.3012  1.1837  1.1993
  168SAPE   H8Y19017   2.633   0.976   7.867  0.0765  0.7726  1.2747
  168SAPE   C3919018   2.786   1.080   7.977  0.4757  0.2431 -0.4635
  168SAPE   H9X19019   2.700   1.142   8.011 -0.2079 -0.5140 -0.7774
  168SAPE   H9Y19020   2.870   1.151   7.966  0.1434  1.4074  3.5926
  168SAPE  C31019021   2.826   0.990   8.100 -0.9412  0.1831 -0.3826
  168SAPE  H10X19022   2.852   1.043   8.194 -0.1232 -1.6657  0.4562
  168SAPE  H10Y19023   2.915   0.933   8.068  0.3068  2.0431 -0.2581
  168SAPE  C31119024   2.713   0.895   8.148  0.4395  0.8112  0.3647
  168SAPE  H11X19025   2.667   0.855   8.055  0.3667 -1.7498  1.4711
  168SAPE  H11Y19026   2.632   0.952   8.199 -0.4668 -1.3168  1.3726
  168SAPE  C31219027   2.753   0.780   8.238 -0.1866  0.0171 -0.1233
  168SAPE  H12X19028   2.806   0.827   8.324  0.2328  0.0300 -0.3889
  168SAPE  H12Y19029   2.827   0.710   8.195 -0.0056 -0.6159  1.1991
  168SAPE  C31319030   2.641   0.696   8.298 -1.2065 -0.7062 -0.4895
  168SAPE  H13X19031   2.598   0.632   8.218  0.6452 -1.1944 -1.1101
  168SAPE  H13Y19032   2.562   0.756   8.348  0.6273  0.7176  0.7799
  168SAPE  C31419033   2.689   0.609   8.416 -0.3322  0.3990 -1.1114
  168SAPE  H14X19034   2.596   0.563   8.456  0.9543  0.6691  2.4226
  168SAPE  H14Y19035   2.736   0.664   8.501 -2.4157  2.4257 -1.2220
  168SAPE  C31519036   2.781   0.489   8.388 -0.0364 -0.0432 -0.6115
  168SAPE  H15X19037   2.868   0.526   8.329  1.5800  0.3098  1.9002
  168SAPE  H15Y19038   2.725   0.414   8.329  0.6743  0.4615 -1.9564
  168SAPE  C31619039   2.837   0.426   8.521  0.6512  0.7578  0.0237
  168SAPE  H16X19040   2.888   0.510   8.571 -1.1547  1.0848  1.3575
  168SAPE  H16Y19041   2.909   0.344   8.499  1.9523  1.5799  1.1421
  168SAPE  C31719042   2.718   0.381   8.615  0.8005 -0.2568  0.9203
  168SAPE  H17X19043   2.653   0.311   8.558 -0.3929  2.4405 -1.1840
  168SAPE  H17Y19044   2.651   0.466   8.639 -0.0497 -0.7451  0.2887
  168SAPE  C31819045   2.764   0.321   8.745  0.3976 -0.5338  0.3845
  168SAPE  H18X19046   2.679   0.294   8.811  2.3641 -1.4203  2.6338
  168SAPE  H18Y19047   2.827   0.392   8.802  2.9513 -1.3847 -1.2943
  168SAPE  H18Z19048   2.824   0.228   8.737  1.5676 -0.1229  3.6244
  169SAPE     N19049   0.633   2.772   6.161  0.6915  0.0134 -0.6886
  169SAPE   HN119050   0.611   2.795   6.260  1.2861  1.2273 -0.8297
  169SAPE   HN219051   0.731   2.743   6.142  1.6939  2.8572 -0.1290
  169SAPE   HN319052   0.608   2.858   6.108 -0.5441 -0.1436 -0.3750
  169SAPE   C1219053   0.543   2.658   6.123 -0.1228 -0.1548  0.6453
  169SAPE  H12A19054   0.578   2.632   6.021  0.6436 -1.5089  1.2383
  169SAPE  H12B19055   0.438   2.688   6.103  0.2772 -0.9430 -3.1281
  169SAPE   C1119056   0.561   2.533   6.214 -0.3099 -0.0092  0.1602
  169SAPE  H11A19057   0.671   2.532   6.228 -0.1131 -1.9470 -1.3326
  169SAPE  H11B19058   0.524   2.461   6.138 -0.8286  0.6474 -0.2123
  169SAPE     P19059   0.390   2.431   6.376 -0.5726 -0.2385 -0.1107
  169SAPE   O1319060   0.310   2.373   6.264 -0.0501  0.4720 -0.2813
  169SAPE   O1419061   0.475   2.340   6.457  0.0261 -0.3346  0.7103
  169SAPE   O1219062   0.481   2.551   6.329 -0.2544  0.7701 -0.2521
  169SAPE   O1119063   0.291   2.507   6.469  0.2027 -0.3119  0.5894
  169SAPE    C119064   0.322   2.608   6.570 -0.1319  0.4749  0.5256
  169SAPE    HA19065   0.432   2.610   6.585 -0.1658  1.9246  0.6006
  169SAPE    HB19066   0.287   2.707   6.535  0.7520  0.3478 -0.7387
  169SAPE    C219067   0.255   2.571   6.699 -0.0941 -0.7402 -0.1861
  169SAPE    HS19068   0.148   2.583   6.672 -0.0237 -3.0979 -1.6049
  169SAPE   O2119069   0.309   2.655   6.799 -0.3886 -0.4724 -1.3258
  169SAPE   C2119070   0.231   2.767   6.814  0.0990  0.1083 -0.2178
  169SAPE   O2219071   0.132   2.789   6.750  0.8035 -0.3969  0.1446
  169SAPE   C2219072   0.289   2.849   6.925  0.2740 -0.1229  0.0938
  169SAPE   H2R19073   0.276   2.797   7.022  0.8495  0.6886  0.6108
  169SAPE   H2S19074   0.395   2.864   6.895  0.3630  0.5997  0.7647
  169SAPE    C319075   0.277   2.428   6.737  0.5408 -0.0077 -0.4127
  169SAPE    HX19076   0.386   2.420   6.754  0.4084 -2.8578 -0.6252
  169SAPE    HY19077   0.255   2.367   6.647 -0.6047  0.1047 -0.2127
  169SAPE   O3119078   0.207   2.382   6.852 -0.1104  0.1080 -0.2372
  169SAPE   C3119079   0.245   2.262   6.888  1.0448 -0.2592 -0.6375
  169SAPE   O3219080   0.336   2.200   6.828 -0.5173  0.3712  0.4576
  169SAPE   C3219081   0.161   2.224   7.014  0.0412 -0.1219 -0.7459
  169SAPE   H2X19082   0.168   2.114   7.016 -1.0458 -0.1855 -0.6147
  169SAPE   H2Y19083   0.055   2.241   6.987  0.0849  1.3026 -0.0607
  169SAPE   C2319084   0.219   2.983   6.943  0.9321 -0.1293  0.2664
  169SAPE   H3R19085   0.109   2.968   6.943  1.0306 -0.9305 -0.4300
  169SAPE   H3S19086   0.237   3.045   6.853  1.7760  1.0813  1.2599
  169SAPE   C2419087   0.261   3.056   7.066  0.0911 -0.2126 -0.4595
  169SAPE   H4R19088   0.255   2.986   7.152 -1.9180  0.2822 -0.1785
  169SAPE   H4S19089   0.186   3.133   7.094  1.5710  0.5825  1.4646
  169SAPE   C2519090   0.387   3.131   7.043 -0.0054 -0.0051  0.2308
  169SAPE   H5R19091   0.386   3.155   6.935 -0.2835 -1.0778 -0.0069
  169SAPE   C2619092   0.477   3.186   7.129 -0.3708 -0.1591  0.2685
  169SAPE   H6R19093   0.566   3.231   7.083 -2.5243  3.3117 -0.6952
  169SAPE   C2719094   0.467   3.178   7.278 -0.1719  0.4712 -1.3098
  169SAPE   H7R19095   0.368   3.138   7.310  1.1670  0.9403  3.8473
  169SAPE   H7S19096   0.469   3.278   7.327 -1.8019  0.9121 -2.1030
  169SAPE   C2819097   0.578   3.099   7.341 -0.8469  0.5063 -0.3681
  169SAPE   H8R19098   0.661   3.066   7.276 -0.4837  2.4085 -0.8865
  169SAPE   C2919099   0.584   3.064   7.469  0.9913  0.0551 -0.6180
  169SAPE   H9R19100   0.670   3.012   7.513  2.6408  1.0296 -2.6029
  169SAPE  C21019101   0.480   3.104   7.571 -0.2684  0.0907 -0.6324
  169SAPE  H10R19102   0.378   3.101   7.528  0.4356 -2.9250 -2.2683
  169SAPE  H10S19103   0.515   3.200   7.615  0.7281  0.1948 -1.6121
  169SAPE  C21119104   0.476   2.995   7.678 -0.0758  0.7892  0.8993
  169SAPE  H11R19105   0.436   2.906   7.628 -0.2272  1.0558  0.5473
  169SAPE  C21219106   0.492   2.990   7.810  0.6398 -0.3899 -0.5942
  169SAPE  H12R19107   0.472   2.892   7.856  0.1562 -0.1807 -0.3662
  169SAPE  C21319108   0.544   3.096   7.910  0.5203  0.1463 -0.1781
  169SAPE  H13R19109   0.575   3.188   7.857  2.4103 -1.7067 -2.3990
  169SAPE  H13S19110   0.633   3.058   7.964  0.3251 -1.4816 -0.9598
  169SAPE  C21419111   0.438   3.149   8.006  0.1549  0.3619 -0.0972
  169SAPE  H14R19112   0.360   3.208   7.957  1.1720  1.1017 -0.8474
  169SAPE  C21519113   0.436   3.128   8.140 -0.9071 -1.3601  0.3902
  169SAPE  H15R19114   0.356   3.185   8.190  0.6091  0.5966  0.6322
  169SAPE  C21619115   0.547   3.064   8.229  0.3427  0.2370  0.1673
  169SAPE  H16R19116   0.647   3.063   8.181  0.4688  1.6737  0.3902
  169SAPE  H16S19117   0.518   2.962   8.262 -1.0515 -0.3442 -2.7090
  169SAPE  C21719118   0.551   3.136   8.370  0.0479 -0.3792  0.0676
  169SAPE  H17R19119   0.450   3.134   8.416  0.8710 -0.1574  1.9146
  169SAPE  H17S19120   0.556   3.246   8.351 -1.1765 -0.5630 -1.4392
  169SAPE  C21819121   0.663   3.101   8.470 -0.1128  0.2003 -0.6638
  169SAPE  H18R19122   0.760   3.118   8.418  0.6873 -1.9226  0.0647
  169SAPE  H18S19123   0.667   2.996   8.508  0.2671  1.0672  1.8118
  169SAPE  C21919124   0.668   3.195   8.597 -0.4173 -0.2541 -0.5151
  169SAPE  H19R19125   0.595   3.166   8.676  0.4541 -3.5212 -0.8291
  169SAPE  H19S19126   0.634   3.293   8.559  0.0319  0.2278  0.3083
  169SAPE  C22019127   0.809   3.219   8.641 -0.5091  0.9264  0.5389
  169SAPE  H20R19128   0.796   3.260   8.744 -3.0085  0.8078  0.2860
  169SAPE  H20S19129   0.856   3.288   8.568 -1.4036  0.9790  0.0211
  169SAPE  H20T19130   0.870   3.126   8.640 -0.0565  1.2245 -0.6937
  169SAPE   C3319131   0.205   2.291   7.144  0.9239  0.3954  0.0290
  169SAPE   H3X19132   0.120   2.274   7.214  1.0247  3.0240  0.8350
  169SAPE   H3Y19133   0.216   2.401   7.139  2.3330  0.1470 -3.7012
  169SAPE   C3419134   0.336   2.223   7.201  0.3329 -0.6929  0.3462
  169SAPE   H4X19135   0.383   2.303   7.262 -1.3268  1.0243 -0.6045
  169SAPE   H4Y19136   0.408   2.196   7.121 -1.8222  2.2283 -2.7225
  169SAPE   C3519137   0.320   2.100   7.294  0.4217 -0.1634 -0.2745
  169SAPE   H5X19138   0.421   2.057   7.303  0.1803 -0.7978 -0.6427
  169SAPE   H5Y19139   0.253   2.021   7.255  0.4301 -0.5777  0.5428
  169SAPE   C3619140   0.260   2.154   7.429 -0.4413  0.1461  0.1721
  169SAPE   H6X19141   0.151   2.169   7.415 -0.6501  0.2592  1.7933
  169SAPE   H6Y19142   0.312   2.247   7.461  2.3674 -0.8752 -1.2713
  169SAPE   C3719143   0.277   2.063   7.555  0.9048 -1.2368  0.5425
  169SAPE   H7X19144   0.384   2.033   7.552  1.2828  0.1285 -0.3350
  169SAPE   H7Y19145   0.204   1.981   7.538 -2.8074  1.5575  2.3046
  169SAPE   C3819146   0.259   2.148   7.686  0.2829 -0.4815 -0.3854
  169SAPE   H8X19147   0.149   2.161   7.694  0.4448 -0.3540  1.9855
  169SAPE   H8Y19148   0.316   2.244   7.686 -0.6442  0.0826 -1.3534
  169SAPE   C3919149   0.323   2.078   7.808 -1.1710  0.3849 -0.0705
  169SAPE   H9X19150   0.413   2.026   7.768  0.0477  3.4813 -1.4498
  169SAPE   H9Y19151   0.248   2.006   7.848 -3.1166  0.9918 -2.5388
  169SAPE  C31019152   0.360   2.181   7.922 -0.3234  0.6355  0.3722
  169SAPE  H10X19153   0.273   2.243   7.953 -0.4511  0.4697  0.3445
  169SAPE  H10Y19154   0.441   2.240   7.875  0.6089 -0.8326  0.1322
  169SAPE  C31119155   0.405   2.097   8.041  0.0604 -0.4042 -0.0615
  169SAPE  H11X19156   0.474   2.018   8.006 -0.8966 -1.1527 -0.2853
  169SAPE  H11Y19157   0.313   2.051   8.082  0.0470  0.5707  1.0145
  169SAPE  C31219158   0.479   2.191   8.141  0.0647 -0.4757 -0.5306
  169SAPE  H12X19159   0.425   2.287   8.157 -1.6339 -1.4415 -0.3547
  169SAPE  H12Y19160   0.579   2.216   8.099 -0.7314  1.2399 -1.4829
  169SAPE  C31319161   0.489   2.124   8.271  0.2901 -1.0808  0.1002
  169SAPE  H13X19162   0.523   2.019   8.254 -0.8443 -1.5240  0.5260
  169SAPE  H13Y19163   0.393   2.121   8.327  0.0894 -1.0028 -0.2366
  169SAPE  C31419164   0.585   2.192   8.364 -0.6170 -0.0463  0.1396
  169SAPE  H14X19165   0.534   2.289   8.382 -1.5081 -0.3711 -0.6192
  169SAPE  H14Y19166   0.680   2.220   8.313 -0.2706  0.1691  0.8953
  169SAPE  C31519167   0.623   2.129   8.503 -0.0327  1.1146  0.0314
  169SAPE  H15X19168   0.694   2.047   8.479  0.5655  1.8674 -0.8116
  169SAPE  H15Y19169   0.533   2.079   8.544 -0.0249  1.7790  0.8547
  169SAPE  C31619170   0.689   2.231   8.599  0.0278  0.7254 -0.8710
  169SAPE  H16X19171   0.638   2.329   8.586 -1.6224 -0.0872 -0.6968
  169SAPE  H16Y19172   0.793   2.251   8.567  0.6046  4.1472  2.7579
  169SAPE  C31719173   0.668   2.195   8.749 -0.2951  0.2117 -0.0510
  169SAPE  H17X19174   0.727   2.102   8.767 -1.8019 -0.6200  0.7799
  169SAPE  H17Y19175   0.563   2.163   8.768 -1.1182  2.0199 -1.4748
  169SAPE  C31819176   0.711   2.305   8.844 -0.1037  0.2228 -0.7811
  169SAPE  H18X19177   0.641   2.390   8.827 -0.9252 -0.4805 -0.9441
  169SAPE  H18Y19178   0.814   2.335   8.815  0.0023  0.5565 -0.0627
  169SAPE  H18Z19179   0.730   2.273   8.948  0.5327 -0.6887 -1.1679
  170SAPE     N19180   0.934   6.528   5.869 -0.8039 -0.0929  0.2616
  170SAPE   HN119181   0.944   6.620   5.915  1.7030 -0.5757  0.7729
  170SAPE   HN219182   0.968   6.531   5.770  0.2868  1.1637  0.6657
  170SAPE   HN319183   0.832   6.509   5.866 -0.4165 -2.4447  0.4945
  170SAPE   C1219184   0.989   6.412   5.941  0.1907 -0.6411 -0.1890
  170SAPE  H12A19185   1.015   6.325   5.877 -2.9697 -2.0035  0.3021
  170SAPE  H12B19186   0.914   6.363   6.007 -0.3233 -0.6552 -0.7839
  170SAPE   C1119187   1.098   6.460   6.042 -0.1661  0.2215 -0.7403
  170SAPE  H11A19188   1.123   6.385   6.120  0.8582  1.4606  0.1563
  170SAPE  H11B19189   1.054   6.549   6.093  1.9417  0.5848  0.5388
  170SAPE     P19190   1.369   6.466   6.022 -0.1049  0.1976  0.0443
  170SAPE   O1319191   1.397   6.321   5.997 -0.2985  0.2047 -0.3813
  170SAPE   O1419192   1.450   6.566   5.946  0.0211 -0.3721  0.2135
  170SAPE   O1219193   1.219   6.499   5.976 -0.0291  0.3233  0.1503
  170SAPE   O1119194   1.376   6.495   6.175  0.3139  0.3285 -0.3521
  170SAPE    C119195   1.452   6.411   6.268  0.2748  0.8106 -0.6009
  170SAPE    HA19196   1.406   6.311   6.279  3.1568 -0.4158  0.9989
  170SAPE    HB19197   1.556   6.393   6.234 -0.2385 -3.0548 -0.2939
  170SAPE    C219198   1.444   6.467   6.415  0.6238  0.0807  0.2970
  170SAPE    HS19199   1.333   6.469   6.421  0.5117 -1.9398 -0.5465
  170SAPE   O2119200   1.529   6.586   6.412 -0.3212 -0.2685 -0.0426
  170SAPE   C2119201   1.468   6.694   6.449  0.8842 -0.7988  0.0605
  170SAPE   O2219202   1.352   6.708   6.488 -0.1142  1.0321  0.5052
  170SAPE   C2219203   1.570   6.807   6.459  0.9854 -0.4966 -0.3855
  170SAPE   H2R19204   1.626   6.806   6.363 -0.3388  1.6280 -1.1970
  170SAPE   H2S19205   1.500   6.892   6.475  0.3516 -0.9841 -0.6010
  170SAPE    C319206   1.496   6.367   6.510 -0.3260 -0.6076 -0.1722
  170SAPE    HX19207   1.605   6.367   6.487 -0.6990  1.0838 -2.0951
  170SAPE    HY19208   1.454   6.267   6.490 -2.4719  0.0484  0.9092
  170SAPE   O3119209   1.478   6.417   6.648  0.0230 -0.0583  0.1010
  170SAPE   C3119210   1.361   6.420   6.698  0.9769  0.0737 -0.1228
  170SAPE   O3219211   1.258   6.388   6.644  1.0593  0.4683 -0.1955
  170SAPE   C3219212   1.355   6.462   6.839 -0.3999 -0.2911  0.0546
  170SAPE   H2X19213   1.404   6.562   6.839  1.2307 -1.0570  1.5870
  170SAPE   H2Y19214   1.417   6.394   6.901  0.2962  0.8057  0.5831
  170SAPE   C2319215   1.663   6.771   6.581 -0.5701 -0.7786  0.4001
  170SAPE   H3R19216   1.764   6.812   6.559  0.1679 -0.8943  3.4615
  170SAPE   H3S19217   1.691   6.663   6.582 -1.8380 -1.1160  0.8949
  170SAPE   C2419218   1.611   6.828   6.714 -0.2098 -0.2125 -0.3708
  170SAPE   H4R19219   1.504   6.804   6.726 -0.0388 -0.2503  1.0708
  170SAPE   H4S19220   1.625   6.938   6.701 -0.4615 -0.1513 -0.1153
  170SAPE   C2519221   1.684   6.760   6.828 -0.8637 -0.0417  0.0444
  170SAPE   H5R19222   1.698   6.652   6.814  0.9151  0.1427  0.2939
  170SAPE   C2619223   1.739   6.817   6.936 -0.1278  0.3271 -0.7852
  170SAPE   H6R19224   1.787   6.755   7.013  0.0071  1.1167 -0.2235
  170SAPE   C2719225   1.739   6.963   6.975 -0.3299 -0.6354  0.4058
  170SAPE   H7R19226   1.751   6.970   7.086  5.1727  0.8932 -0.1471
  170SAPE   H7S19227   1.636   7.005   6.974 -0.6393 -1.3952 -0.3709
  170SAPE   C2819228   1.842   7.054   6.899 -0.4303  0.4502 -0.3774
  170SAPE   H8R19229   1.796   7.099   6.810  1.1883 -0.5241 -1.7415
  170SAPE   C2919230   1.968   7.083   6.939  0.4731  0.0169  0.8100
  170SAPE   H9R19231   2.027   7.156   6.883 -0.1154 -0.1689 -0.0608
  170SAPE  C21019232   2.030   7.034   7.069  0.2031 -0.4323 -0.1142
  170SAPE  H10R19233   2.043   6.924   7.058  1.3740 -0.3206  0.0182
  170SAPE  H10S19234   1.958   7.034   7.153  0.3590 -0.4294  0.0208
  170SAPE  C21119235   2.171   7.075   7.106  0.0350  0.6361 -0.0059
  170SAPE  H11R19236   2.235   7.121   7.030  0.0136 -1.7766 -1.5162
  170SAPE  C21219237   2.232   7.083   7.236  0.2484  0.3883  0.4673
  170SAPE  H12R19238   2.334   7.124   7.235  0.9031 -1.1991  0.2200
  170SAPE  C21319239   2.170   7.056   7.367  0.2308  0.0493 -0.0099
  170SAPE  H13R19240   2.160   6.947   7.388  0.9438  0.1535  0.8950
  170SAPE  H13S19241   2.063   7.084   7.366  0.2143  0.0641  1.9367
  170SAPE  C21419242   2.238   7.106   7.492  0.1178  0.7755 -0.1092
  170SAPE  H14R19243   2.345   7.128   7.479  0.7074 -1.8168  0.0985
  170SAPE  C21519244   2.169   7.132   7.610 -0.3645  0.7669  1.0742
  170SAPE  H15R19245   2.230   7.166   7.695  0.9411  0.3046  0.3352
  170SAPE  C21619246   2.020   7.104   7.641  0.3281 -0.2165  0.6443
  170SAPE  H16R19247   1.989   7.033   7.562  0.5197  0.0396  0.3381
  170SAPE  H16S19248   1.957   7.195   7.641  1.5877  0.6931  2.0965
  170SAPE  C21719249   2.002   7.039   7.777  0.2891  0.2786  0.3837
  170SAPE  H17R19250   2.081   6.962   7.793 -0.5394 -1.2032 -2.2731
  170SAPE  H17S19251   1.906   6.981   7.778  0.9718 -0.8785  0.1737
  170SAPE  C21819252   2.004   7.129   7.900 -0.7551 -0.5641  0.1940
  170SAPE  H18R19253   1.922   7.201   7.877  0.5201  1.1027  0.7813
  170SAPE  H18S19254   2.097   7.189   7.905 -0.3476 -1.2008  0.3623
  170SAPE  C21919255   1.992   7.057   8.031 -0.6752 -0.6735  0.0108
  170SAPE  H19R19256   2.081   6.990   8.036 -0.5590 -0.3997  2.0110
  170SAPE  H19S19257   1.905   6.989   8.026 -1.9841  1.0712 -1.7559
  170SAPE  C22019258   1.991   7.148   8.153  0.2530  0.3390  0.5287
  170SAPE  H20R19259   2.088   7.197   8.177 -0.4847  1.7994  0.5875
  170SAPE  H20S19260   1.959   7.101   8.249  3.2738 -0.5956  1.1169
  170SAPE  H20T19261   1.922   7.231   8.125 -0.2031 -0.5535 -1.0450
  170SAPE   C3319262   1.214   6.473   6.899  0.0520  0.8942  0.2635
  170SAPE   H3X19263   1.156   6.537   6.829 -0.9709  0.4484  0.6908
  170SAPE   H3Y19264   1.217   6.529   6.995  1.7179 -0.9658  1.3227
  170SAPE   C3419265   1.145   6.337   6.915 -0.1092 -0.0622  0.1014
  170SAPE   H4X19266   1.216   6.255   6.890  0.2573  0.6326 -1.2028
  170SAPE   H4Y19267   1.063   6.324   6.841 -1.0199 -2.6098  1.4909
  170SAPE   C3519268   1.100   6.307   7.060 -0.2834  0.5186  0.1953
  170SAPE   H5X19269   1.184   6.322   7.131 -1.3818  0.2888  1.5477
  170SAPE   H5Y19270   1.074   6.199   7.064 -4.6360  1.3733 -1.9357
  170SAPE   C3619271   0.983   6.404   7.102  0.2631  0.1890  0.1334
  170SAPE   H6X19272   0.897   6.390   7.033  1.3295 -1.8008 -0.8252
  170SAPE   H6Y19273   1.024   6.507   7.097  0.1528  0.1852 -1.1100
  170SAPE   C3719274   0.924   6.367   7.235 -0.1588 -0.7351 -0.0885
  170SAPE   H7X19275   0.892   6.261   7.230 -1.7382 -0.3866  1.9840
  170SAPE   H7Y19276   0.824   6.412   7.255  0.4983  0.8978 -0.3163
  170SAPE   C3819277   1.015   6.384   7.347 -0.6247  0.1026 -0.4957
  170SAPE   H8X19278   1.031   6.490   7.378  0.7505 -0.0509 -0.6500
  170SAPE   H8Y19279   1.118   6.354   7.318 -1.9605 -3.9293 -1.3418
  170SAPE   C3919280   0.978   6.307   7.469  0.0055 -0.4959 -0.3952
  170SAPE   H9X19281   0.977   6.198   7.447 -0.1671 -0.2216 -1.7667
  170SAPE   H9Y19282   0.874   6.337   7.494  0.8259  1.5794  0.6359
  170SAPE  C31019283   1.078   6.318   7.581  0.7135  0.4270 -0.2600
  170SAPE  H10X19284   1.094   6.425   7.607  2.2935  0.1789 -0.1631
  170SAPE  H10Y19285   1.182   6.291   7.551  0.2324  0.0704 -1.6373
  170SAPE  C31119286   1.052   6.215   7.693  0.0128 -0.0056  0.0790
  170SAPE  H11X19287   1.139   6.218   7.762 -0.4806 -0.3045  0.7185
  170SAPE  H11Y19288   1.042   6.109   7.660 -0.0857 -0.6760  2.1982
  170SAPE  C31219289   0.925   6.247   7.779  0.2570 -0.1378 -0.0984
  170SAPE  H12X19290   0.829   6.215   7.734 -0.9882  1.5455  1.2862
  170SAPE  H12Y19291   0.916   6.358   7.787  1.2393  0.1533 -2.6137
  170SAPE  C31319292   0.931   6.186   7.920 -1.1286  0.4036 -0.6700
  170SAPE  H13X19293   1.037   6.201   7.948 -0.9161 -0.1411 -1.1758
  170SAPE  H13Y19294   0.893   6.083   7.906 -3.0061  0.9435  0.3034
  170SAPE  C31419295   0.849   6.267   8.029 -0.2076  0.6054  0.2498
  170SAPE  H14X19296   0.740   6.255   8.008 -0.7109  1.7233  2.1081
  170SAPE  H14Y19297   0.882   6.373   8.038 -0.9233  1.0426 -2.0669
  170SAPE  C31519298   0.879   6.206   8.168 -0.0104  0.3007  0.1382
  170SAPE  H15X19299   0.990   6.206   8.178 -0.0051  3.2547  0.2313
  170SAPE  H15Y19300   0.840   6.102   8.180  1.9070 -0.3880  0.6910
  170SAPE  C31619301   0.826   6.291   8.284 -0.2048  0.2225  0.6288
  170SAPE  H16X19302   0.719   6.295   8.257 -0.1297 -0.4375  0.2243
  170SAPE  H16Y19303   0.872   6.391   8.270 -0.3057  0.1780 -0.0011
  170SAPE  C31719304   0.828   6.233   8.426 -0.9207 -0.1658 -0.0636
  170SAPE  H17X19305   0.932   6.213   8.458 -1.5970 -0.1097  2.2326
  170SAPE  H17Y19306   0.785   6.132   8.436 -0.2355 -0.7050 -2.2444
  170SAPE  C31819307   0.758   6.325   8.533  0.0236  0.3857  0.4161
  170SAPE  H18X19308   0.809   6.423   8.544 -2.8795  1.8696  1.3115
  170SAPE  H18Y19309   0.749   6.271   8.630  2.6466  2.5455  1.9101
  170SAPE  H18Z19310   0.655   6.351   8.499  0.4508 -0.1553 -1.3382
  171SAPE     N19311   3.643   6.751   6.092 -0.1094  0.6024  0.1813
  171SAPE   HN119312   3.706   6.824   6.132  1.8803  1.1744 -3.8143
  171SAPE   HN219313   3.660   6.738   5.991 -0.9308 -1.9755  0.3471
  171SAPE   HN319314   3.543   6.771   6.114 -0.0026  0.6847  0.6096
  171SAPE   C1219315   3.663   6.620   6.167  0.2879  0.2339 -0.6750
  171SAPE  H12A19316   3.646   6.633   6.276 -1.1556 -2.4837 -0.5322
  171SAPE  H12B19317   3.769   6.597   6.145  0.2305 -0.7580  0.0557
  171SAPE   C1119318   3.558   6.517   6.126 -1.5564 -0.3834  0.1909
  171SAPE  H11A19319   3.575   6.433   6.198 -0.7548  0.0388  0.5057
  171SAPE  H11B19320   3.575   6.481   6.022  0.5389  1.8973 -0.2945
  171SAPE     P19321   3.318   6.495   6.210 -0.1978 -0.3261 -0.3045
  171SAPE   O1319322   3.188   6.570   6.203  0.0715 -0.9148 -0.2858
  171SAPE   O1419323   3.303   6.361   6.153 -0.0841 -0.4266  0.4096
  171SAPE   O1219324   3.429   6.579   6.132  0.0007 -0.5650  0.6351
  171SAPE   O1119325   3.362   6.484   6.364  0.3937  0.3253 -0.3141
  171SAPE    C119326   3.409   6.599   6.432 -0.6002  0.1037 -0.2161
  171SAPE    HA19327   3.519   6.586   6.436 -0.5405  1.2285  2.3452
  171SAPE    HB19328   3.397   6.692   6.372 -1.8606 -0.0841 -0.2866
  171SAPE    C219329   3.345   6.618   6.571  0.2085 -0.3245 -0.7288
  171SAPE    HS19330   3.238   6.647   6.565  0.5280  0.9457 -0.4360
  171SAPE   O2119331   3.418   6.728   6.629  0.1475 -0.3382 -0.5833
  171SAPE   C2119332   3.347   6.821   6.693  0.4766 -0.4070  0.0846
  171SAPE   O2219333   3.226   6.812   6.703 -0.2228 -0.6411 -0.0397
  171SAPE   C2219334   3.442   6.921   6.759 -0.2735 -0.4238  0.5365
  171SAPE   H2R19335   3.484   6.871   6.849  1.1179  0.2493  0.2778
  171SAPE   H2S19336   3.523   6.943   6.685  0.9943 -1.0451  1.7199
  171SAPE    C319337   3.349   6.486   6.654 -0.0944  0.2119 -0.0222
  171SAPE    HX19338   3.454   6.449   6.647  0.5580  1.5334  2.3267
  171SAPE    HY19339   3.283   6.414   6.601 -1.4271  0.5457  1.1540
  171SAPE   O3119340   3.307   6.511   6.793  0.5958 -0.2858  0.2333
  171SAPE   C3119341   3.171   6.508   6.810  0.2083 -0.3437  0.0700
  171SAPE   O3219342   3.087   6.484   6.724  0.0763  0.2165  0.1625
  171SAPE   C3219343   3.127   6.516   6.957 -0.2545  0.0757  0.5420
  171SAPE   H2X19344   3.062   6.429   6.978 -1.1066  0.8621  1.2275
  171SAPE   H2Y19345   3.059   6.604   6.962  0.7588  0.9463 -0.5885
  171SAPE   C2319346   3.372   7.054   6.806 -0.2700  0.0410 -0.3052
  171SAPE   H3R19347   3.308   7.013   6.887 -1.4777 -1.5238 -2.0207
  171SAPE   H3S19348   3.302   7.086   6.726 -1.0762  1.5226  0.9428
  171SAPE   C2419349   3.470   7.161   6.853  1.2586 -0.7644  0.3152
  171SAPE   H4R19350   3.543   7.184   6.773 -0.8726  0.0613 -1.4517
  171SAPE   H4S19351   3.527   7.106   6.931 -1.5485 -1.3713  2.0213
  171SAPE   C2519352   3.397   7.282   6.903 -0.0403  0.5337 -0.2985
  171SAPE   H5R19353   3.320   7.317   6.833  0.0056  2.2196  0.4789
  171SAPE   C2619354   3.407   7.330   7.031 -0.7717 -0.2055 -0.3393
  171SAPE   H6R19355   3.336   7.412   7.051 -0.4057 -0.3517  1.6287
  171SAPE   C2719356   3.492   7.302   7.158  0.2677  0.1878  0.1017
  171SAPE   H7R19357   3.567   7.383   7.172  0.6315 -0.2039  0.4324
  171SAPE   H7S19358   3.550   7.210   7.134  1.6901  0.9356  0.5839
  171SAPE   C2819359   3.418   7.269   7.281 -0.3483 -0.8140  0.3854
  171SAPE   H8R19360   3.329   7.209   7.255  0.1580 -0.6796 -1.7690
  171SAPE   C2919361   3.442   7.310   7.402 -0.2681 -0.2797 -0.5874
  171SAPE   H9R19362   3.375   7.278   7.483  1.2160 -1.2642  0.2505
  171SAPE  C21019363   3.544   7.414   7.445 -0.3451  0.0539 -0.1964
  171SAPE  H10R19364   3.593   7.452   7.352  1.8214  0.3335  1.0344
  171SAPE  H10S19365   3.622   7.360   7.503  0.9585  2.9099  0.7889
  171SAPE  C21119366   3.493   7.527   7.538 -0.2800 -0.4612 -0.0318
  171SAPE  H11R19367   3.451   7.613   7.483  0.1952  0.3715  0.8959
  171SAPE  C21219368   3.469   7.526   7.671 -0.0345 -0.6566  0.6878
  171SAPE  H12R19369   3.415   7.610   7.716  0.0005 -0.3109  0.0793
  171SAPE  C21319370   3.514   7.420   7.771 -0.4773 -0.2645 -0.3987
  171SAPE  H13R19371   3.559   7.338   7.711  0.3618  0.1284 -0.3138
  171SAPE  H13S19372   3.421   7.386   7.822  0.5017 -2.1938  0.1513
  171SAPE  C21419373   3.609   7.483   7.868 -0.4564  0.0588  0.5030
  171SAPE  H14R19374   3.694   7.537   7.823  0.7929 -1.5816  0.8458
  171SAPE  C21519375   3.602   7.463   8.001  0.2353 -0.1622 -0.0273
  171SAPE  H15R19376   3.669   7.527   8.060  1.1995  1.0785 -2.3818
  171SAPE  C21619377   3.497   7.379   8.078 -0.1050 -0.0270  0.0007
  171SAPE  H16R19378   3.555   7.327   8.157 -0.0632  2.2613  1.5128
  171SAPE  H16S19379   3.446   7.303   8.014 -1.3020  0.4849  0.3190
  171SAPE  C21719380   3.388   7.460   8.145 -0.4394 -0.0367 -0.1454
  171SAPE  H17R19381   3.338   7.523   8.068 -0.8577  2.2262  1.9284
  171SAPE  H17S19382   3.431   7.533   8.217 -0.1979 -0.5922  0.2761
  171SAPE  C21819383   3.288   7.378   8.218  0.4884 -0.5161 -0.4548
  171SAPE  H18R19384   3.247   7.282   8.180  0.6933 -0.7184 -0.1714
  171SAPE  H18S19385   3.195   7.438   8.229 -0.7826 -2.5025 -0.0821
  171SAPE  C21919386   3.332   7.330   8.356  0.5104  0.4880  0.5056
  171SAPE  H19R19387   3.331   7.421   8.419 -1.7100  0.7998  0.0857
  171SAPE  H19S19388   3.434   7.287   8.343  0.6721  0.8504  0.5832
  171SAPE  C22019389   3.243   7.229   8.415 -0.5285  0.0169  0.7863
  171SAPE  H20R19390   3.259   7.220   8.525  0.1734 -2.6153  0.4976
  171SAPE  H20S19391   3.260   7.128   8.374  0.6935 -0.2310  1.8351
  171SAPE  H20T19392   3.139   7.265   8.403 -0.3905  0.4754  0.9185
  171SAPE   C3319393   3.233   6.530   7.068  0.3141 -0.0185 -0.8600
  171SAPE   H3X19394   3.302   6.614   7.045 -0.1422  0.2077 -1.4039
  171SAPE   H3Y19395   3.281   6.431   7.083 -1.9874 -0.7238  2.5174
  171SAPE   C3419396   3.168   6.566   7.203 -0.0039  0.1830  0.1464
  171SAPE   H4X19397   3.082   6.496   7.214  1.7897 -1.8259  2.0181
  171SAPE   H4Y19398   3.135   6.671   7.192  2.3246  1.2245  2.4994
  171SAPE   C3519399   3.261   6.543   7.325 -0.0785 -0.9517 -0.1890
  171SAPE   H5X19400   3.344   6.616   7.336 -0.4608 -0.5474  0.0253
  171SAPE   H5Y19401   3.311   6.444   7.321  2.2553  0.1758 -0.1867
  171SAPE   C3619402   3.172   6.543   7.448 -0.0789 -0.0140 -0.2630
  171SAPE   H6X19403   3.115   6.450   7.424 -0.7689  0.3213  0.0636
  171SAPE   H6Y19404   3.106   6.632   7.457  1.6211  1.0981  1.8539
  171SAPE   C3719405   3.255   6.530   7.581 -0.3753  0.1811  0.9847
  171SAPE   H7X19406   3.327   6.614   7.585 -1.1328  0.9077 -0.2761
  171SAPE   H7Y19407   3.317   6.439   7.598 -1.7686 -0.9470  0.2249
  171SAPE   C3819408   3.159   6.537   7.705 -0.2102 -0.4855 -0.8296
  171SAPE   H8X19409   3.098   6.630   7.698 -0.5107 -0.4430  1.7378
  171SAPE   H8Y19410   3.221   6.540   7.798 -0.0532 -2.6292 -0.8288
  171SAPE   C3919411   3.065   6.415   7.716 -0.0646 -0.8426 -0.8525
  171SAPE   H9X19412   3.123   6.320   7.719  0.9700 -0.2082 -0.0800
  171SAPE   H9Y19413   3.006   6.397   7.624  0.1880  0.1510 -1.2264
  171SAPE  C31019414   2.985   6.410   7.851  0.0419 -1.0806  0.5844
  171SAPE  H10X19415   2.896   6.475   7.839 -0.6552 -2.1755 -0.2097
  171SAPE  H10Y19416   3.038   6.440   7.945 -1.3078 -2.8564  1.9513
  171SAPE  C31119417   2.946   6.271   7.886  0.8371  0.2588  0.4066
  171SAPE  H11X19418   3.042   6.214   7.890  1.2615  0.7852 -1.6099
  171SAPE  H11Y19419   2.884   6.234   7.802  1.6022  1.7708 -0.8401
  171SAPE  C31219420   2.852   6.261   8.006 -0.9922  0.0599 -0.3493
  171SAPE  H12X19421   2.752   6.303   7.984 -0.4688  1.2323 -0.5027
  171SAPE  H12Y19422   2.890   6.320   8.092  1.8224 -1.7524 -0.2878
  171SAPE  C31319423   2.841   6.117   8.058 -0.8144 -0.0194 -0.3365
  171SAPE  H13X19424   2.801   6.132   8.160 -2.9349 -1.9344 -0.8550
  171SAPE  H13Y19425   2.942   6.071   8.057 -1.6464 -1.8661 -0.2928
  171SAPE  C31419426   2.736   6.027   7.980 -0.8087 -0.0017 -0.1988
  171SAPE  H14X19427   2.783   6.006   7.881 -1.7058 -0.8279 -0.4553
  171SAPE  H14Y19428   2.652   6.100   7.975  1.1685  2.3522 -0.1856
  171SAPE  C31519429   2.695   5.897   8.051 -0.3123  0.7228  0.2963
  171SAPE  H15X19430   2.786   5.840   8.078 -0.3583  0.0101 -0.9893
  171SAPE  H15Y19431   2.621   5.856   7.978  0.1640  1.3719 -0.5595
  171SAPE  C31619432   2.606   5.931   8.172  0.1760 -0.3246  0.0037
  171SAPE  H16X19433   2.542   6.021   8.156 -1.2151 -1.2752  0.1648
  171SAPE  H16Y19434   2.668   5.964   8.258 -0.1370 -0.4494  0.2768
  171SAPE  C31719435   2.520   5.810   8.212 -0.3715 -0.4874  0.3305
  171SAPE  H17X19436   2.571   5.712   8.220 -0.5820 -0.6406 -0.2127
  171SAPE  H17Y19437   2.444   5.794   8.132 -1.6006 -3.8584  2.0406
  171SAPE  C31819438   2.444   5.841   8.343 -0.6825 -1.0971  0.1852
  171SAPE  H18X19439   2.525   5.871   8.413 -2.3547 -0.4248  1.8892
  171SAPE  H18Y19440   2.403   5.748   8.388 -1.4377 -0.4579  0.8285
  171SAPE  H18Z19441   2.374   5.927   8.331  0.2737 -0.3020  0.2312
  172SAPE     N19442   3.113   6.197   6.259  0.1894 -0.6216  0.3249
  172SAPE   HN119443   3.210   6.228   6.237 -0.0877  0.2036  0.2278
  172SAPE   HN219444   3.065   6.262   6.325  0.0018 -1.4423  1.0022
  172SAPE   HN319445   3.112   6.099   6.295 -1.2596 -1.3079 -1.4887
  172SAPE   C1219446   3.025   6.213   6.135  0.0356 -0.3666  0.0324
  172SAPE  H12A19447   3.064   6.138   6.063 -0.0349 -0.6153  0.2510
  172SAPE  H12B19448   3.035   6.314   6.090  1.3221 -0.8009 -0.6751
  172SAPE   C1119449   2.876   6.190   6.162 -0.5112 -0.0502  0.0305
  172SAPE  H11A19450   2.824   6.163   6.068 -2.0943 -1.3986  1.2761
  172SAPE  H11B19451   2.834   6.287   6.197 -1.8657 -0.6513  0.0975
  172SAPE     P19452   2.693   6.065   6.300 -0.1144 -0.4069  0.2684
  172SAPE   O1319453   2.604   6.059   6.182 -0.1928  0.1181  0.1236
  172SAPE   O1419454   2.680   5.953   6.396  0.6726  0.0661 -0.5276
  172SAPE   O1219455   2.844   6.088   6.254 -0.8228 -0.0229 -0.4267
  172SAPE   O1119456   2.645   6.186   6.384  0.0945  0.0328 -0.0226
  172SAPE    C119457   2.704   6.243   6.499 -0.3012  0.3824 -0.6821
  172SAPE    HA19458   2.804   6.201   6.523 -0.5064 -0.2474 -0.9296
  172SAPE    HB19459   2.724   6.350   6.473 -1.4106  0.3683 -1.6509
  172SAPE    C219460   2.622   6.240   6.636  0.2678  0.2457  0.7144
  172SAPE    HS19461   2.664   6.318   6.702  0.9316  0.6161 -0.1294
  172SAPE   O2119462   2.611   6.104   6.686 -0.0071  0.5286  0.2701
  172SAPE   C2119463   2.697   6.079   6.779 -0.4696  0.6016  0.2087
  172SAPE   O2219464   2.771   6.163   6.833 -0.6792 -0.7331 -0.4952
  172SAPE   C2219465   2.688   5.932   6.825 -0.5764 -0.5949  0.1293
  172SAPE   H2R19466   2.583   5.903   6.844 -1.2460  0.6094 -1.6105
  172SAPE   H2S19467   2.726   5.888   6.730 -2.0897  0.8336 -1.1744
  172SAPE    C319468   2.485   6.300   6.607  0.2782 -0.1952  0.2476
  172SAPE    HX19469   2.433   6.246   6.525 -1.2015  0.2197  0.8886
  172SAPE    HY19470   2.504   6.406   6.580 -0.0370  0.0406  0.9314
  172SAPE   O3119471   2.402   6.296   6.732  0.0510  0.2178  0.1812
  172SAPE   C3119472   2.326   6.193   6.753 -0.3252  0.6550 -0.1125
  172SAPE   O3219473   2.310   6.095   6.680 -0.2066  0.0146  0.2359
  172SAPE   C3219474   2.260   6.212   6.887 -0.1496  0.1870 -0.1158
  172SAPE   H2X19475   2.181   6.134   6.898  1.0161 -1.0328 -0.2264
  172SAPE   H2Y19476   2.213   6.312   6.882  1.3450  0.9870  1.4406
  172SAPE   C2319477   2.771   5.908   6.950 -0.2064 -0.2714 -0.1478
  172SAPE   H3R19478   2.861   5.973   6.950 -0.1698 -0.3071  1.0321
  172SAPE   H3S19479   2.795   5.802   6.969 -1.0846 -0.9928 -2.8789
  172SAPE   C2419480   2.692   5.955   7.072 -0.0390  0.2465 -0.3064
  172SAPE   H4R19481   2.599   5.896   7.091 -0.5748  1.8262  2.2427
  172SAPE   H4S19482   2.653   6.057   7.051  0.9302  0.8911  0.9653
  172SAPE   C2519483   2.779   5.929   7.193 -0.1957  0.5333  0.0833
  172SAPE   H5R19484   2.776   5.824   7.228 -1.1789  0.3516 -0.5101
  172SAPE   C2619485   2.834   6.017   7.267 -0.1362  0.4444 -0.2030
  172SAPE   H6R19486   2.908   5.989   7.344 -0.1488 -0.1880 -0.4163
  172SAPE   C2719487   2.829   6.169   7.256  0.2217 -0.3912  0.1286
  172SAPE   H7R19488   2.725   6.196   7.229 -0.0623  0.8257  2.3635
  172SAPE   H7S19489   2.899   6.212   7.180  0.7288  1.1368  1.4353
  172SAPE   C2819490   2.848   6.236   7.394 -0.3468 -1.1818 -0.3695
  172SAPE   H8R19491   2.943   6.289   7.410 -0.6922 -0.6950  0.1049
  172SAPE   C2919492   2.752   6.242   7.490 -0.0003  0.6463  0.5296
  172SAPE   H9R19493   2.773   6.287   7.588  0.6560  0.9539  0.2456
  172SAPE  C21019494   2.615   6.182   7.473 -0.2330  0.2677 -0.9178
  172SAPE  H10R19495   2.610   6.111   7.388  1.5696  0.8867 -1.5512
  172SAPE  H10S19496   2.539   6.261   7.453 -1.4747 -0.0525  2.2457
  172SAPE  C21119497   2.578   6.101   7.597 -0.2230 -0.5386 -0.4075
  172SAPE  H11R19498   2.604   5.994   7.605 -0.8688 -0.7365 -0.8836
  172SAPE  C21219499   2.534   6.156   7.712 -0.6242 -0.3021  0.2433
  172SAPE  H12R19500   2.505   6.087   7.793 -0.2685 -0.7130  0.0260
  172SAPE  C21319501   2.508   6.303   7.734 -0.1333 -0.3290 -0.0194
  172SAPE  H13R19502   2.503   6.363   7.641  1.4841 -0.0595  0.0611
  172SAPE  H13S19503   2.587   6.348   7.798  0.8266 -0.6059 -0.9868
  172SAPE  C21419504   2.366   6.324   7.791 -0.5812  0.0625  0.3000
  172SAPE  H14R19505   2.287   6.257   7.754 -0.4464  0.9086 -1.5631
  172SAPE  C21519506   2.329   6.391   7.900  0.2134  0.3380  0.0387
  172SAPE  H15R19507   2.225   6.391   7.936  0.4551  1.0095  0.7637
  172SAPE  C21619508   2.420   6.464   7.994 -0.1582 -0.0973 -0.4972
  172SAPE  H16R19509   2.394   6.570   8.015  1.0998  0.1413 -0.0655
  172SAPE  H16S19510   2.524   6.452   7.956  0.8600 -0.5499  2.3102
  172SAPE  C21719511   2.411   6.397   8.130  0.0881 -0.5058  0.5418
  172SAPE  H17R19512   2.450   6.293   8.133  0.9206 -0.3057 -2.3826
  172SAPE  H17S19513   2.304   6.404   8.160 -0.2022 -0.9545 -0.3871
  172SAPE  C21819514   2.505   6.475   8.227  0.0577  0.7534 -0.0749
  172SAPE  H18R19515   2.476   6.581   8.209  0.8605  1.1992  1.1671
  172SAPE  H18S19516   2.613   6.458   8.209  0.3422 -0.6210  2.6847
  172SAPE  C21919517   2.485   6.434   8.377  0.0939  0.0759  0.0894
  172SAPE  H19R19518   2.394   6.473   8.427  0.7629  0.7737  0.7644
  172SAPE  H19S19519   2.567   6.483   8.435  0.6937  0.1415 -0.8062
  172SAPE  C22019520   2.485   6.283   8.399 -0.3561 -0.2344  0.2844
  172SAPE  H20R19521   2.569   6.239   8.341  1.6171  0.9822  2.1124
  172SAPE  H20S19522   2.394   6.231   8.364  0.5265 -0.1492 -2.1734
  172SAPE  H20T19523   2.512   6.258   8.505  1.8245  2.3307  0.3825
  172SAPE   C3319524   2.354   6.213   7.007  0.2457 -1.2093 -0.0137
  172SAPE   H3X19525   2.428   6.292   6.981  0.0487 -0.3859  1.8394
  172SAPE   H3Y19526   2.400   6.114   7.029 -0.3740 -1.2015  1.3404
  172SAPE   C3419527   2.293   6.267   7.133  0.0809  0.1035  0.2387
  172SAPE   H4X19528   2.232   6.358   7.119 -1.4042 -0.9972 -0.5425
  172SAPE   H4Y19529   2.383   6.282   7.197 -0.0502  0.1719  0.4058
  172SAPE   C3519530   2.203   6.161   7.204 -0.4515  0.6318 -0.3250
  172SAPE   H5X19531   2.211   6.059   7.160  0.4179 -0.3938  2.1011
  172SAPE   H5Y19532   2.097   6.193   7.192 -1.0349 -0.9592  0.3772
  172SAPE   C3619533   2.243   6.164   7.357 -0.0308 -0.2690 -0.5640
  172SAPE   H6X19534   2.254   6.271   7.385  0.0372 -0.1083 -1.1926
  172SAPE   H6Y19535   2.342   6.115   7.367  0.2892  0.5999  0.6214
  172SAPE   C3719536   2.133   6.104   7.444  0.3425  0.9228  0.2767
  172SAPE   H7X19537   2.171   6.008   7.486  1.4911  0.2059 -2.2318
  172SAPE   H7Y19538   2.043   6.073   7.386  0.0901  0.1572  1.0674
  172SAPE   C3819539   2.074   6.183   7.555 -0.4277 -0.0571 -0.3182
  172SAPE   H8X19540   2.007   6.269   7.532 -1.3729 -1.1572 -1.8562
  172SAPE   H8Y19541   2.153   6.221   7.622 -0.6553 -1.5715  0.8362
  172SAPE   C3919542   1.996   6.084   7.642 -0.0101 -0.2446 -0.3642
  172SAPE   H9X19543   2.049   5.988   7.655 -1.9710 -1.2225  0.5848
  172SAPE   H9Y19544   1.901   6.064   7.587 -2.4877  2.0500  2.8626
  172SAPE  C31019545   1.951   6.150   7.770  0.0205 -0.0696 -0.3735
  172SAPE  H10X19546   2.021   6.231   7.799 -0.2709  0.9077 -2.3328
  172SAPE  H10Y19547   1.948   6.075   7.852  0.5536  0.3460  0.0310
  172SAPE  C31119548   1.816   6.212   7.768  0.1091  0.3063  0.7631
  172SAPE  H11X19549   1.741   6.147   7.717  0.5259  1.6214 -1.5714
  172SAPE  H11Y19550   1.833   6.290   7.692  0.6312 -1.1820 -0.6872
  172SAPE  C31219551   1.779   6.285   7.894 -0.3450 -0.5213  0.0260
  172SAPE  H12X19552   1.862   6.320   7.958 -1.2792 -0.7864  1.3955
  172SAPE  H12Y19553   1.720   6.208   7.947 -1.5878 -0.1535 -0.7803
  172SAPE  C31319554   1.682   6.400   7.864  1.3049  0.4210 -0.3990
  172SAPE  H13X19555   1.721   6.456   7.776  0.9962  2.7920  0.9334
  172SAPE  H13Y19556   1.677   6.480   7.941  0.7590 -1.7853  1.9185
  172SAPE  C31419557   1.538   6.352   7.831  0.5786 -0.2938 -0.3390
  172SAPE  H14X19558   1.487   6.285   7.903  0.9706 -0.7479 -0.4810
  172SAPE  H14Y19559   1.537   6.291   7.738  0.4701 -1.4231  0.4013
  172SAPE  C31519560   1.449   6.474   7.801 -0.4501  0.3812 -0.0200
  172SAPE  H15X19561   1.351   6.431   7.773  1.4065 -2.2148 -2.8300
  172SAPE  H15Y19562   1.489   6.536   7.718 -3.2815 -0.6491 -2.2318
  172SAPE  C31619563   1.421   6.561   7.925  0.5673 -0.0564 -0.0547
  172SAPE  H16X19564   1.386   6.658   7.884  0.7309  0.8638  1.9049
  172SAPE  H16Y19565   1.517   6.589   7.974 -1.0615  0.8168  2.7734
  172SAPE  C31719566   1.330   6.489   8.022  0.0708 -0.4513  0.0207
  172SAPE  H17X19567   1.380   6.401   8.068 -0.4607  0.1765  1.8710
  172SAPE  H17Y19568   1.240   6.449   7.970 -0.7031  2.3542 -0.9092
  172SAPE  C31819569   1.285   6.567   8.145  0.1229 -0.0889 -0.3219
  172SAPE  H18X19570   1.220   6.654   8.121 -0.7879 -0.6189  0.1929
  172SAPE  H18Y19571   1.373   6.616   8.193 -1.1226  2.0354 -0.1065
  172SAPE  H18Z19572   1.224   6.490   8.197  0.8930 -1.2971 -1.1975
  173SOPE     N19573   3.771   2.931  10.689  0.4540  0.6898 -0.3157
  173SOPE   HN119574   3.762   2.859  10.615 -0.0137  0.8292 -0.3992
  173SOPE   HN219575   3.828   3.008  10.650  2.1534  0.0117  0.7589
  173SOPE   HN319576   3.823   2.894  10.771 -0.1892  0.9149  0.2050
  173SOPE   C1219577   3.634   2.978  10.724 -0.0148 -0.5909 -0.1449
  173SOPE  H12A19578   3.577   2.897  10.775  0.5174 -1.1385 -0.4142
  173SOPE  H12B19579   3.591   3.004  10.625 -0.5841 -2.0965 -0.2964
  173SOPE   C1119580   3.629   3.089  10.829 -0.4759  0.3680  1.3670
  173SOPE  H11A19581   3.649   3.050  10.931  0.1050  0.7443  1.3968
  173SOPE  H11B19582   3.524   3.125  10.832 -1.2339 -1.7216  0.7690
  173SOPE     P19583   3.746   3.319  10.899  0.1716 -0.2175  0.0149
  173SOPE   O1319584   3.888   3.354  10.903  0.8964  0.4280  0.7340
  173SOPE   O1419585   3.689   3.277  11.029  0.7909 -0.0796  0.2178
  173SOPE   O1219586   3.726   3.192  10.798 -0.4152  0.1505  0.8366
  173SOPE   O1119587   3.662   3.428  10.825 -0.5573 -0.6616 -0.5343
  173SOPE    C119588   3.711   3.515  10.729 -0.0533 -0.0779 -0.0949
  173SOPE    HA19589   3.822   3.522  10.723 -0.0746  0.1925 -0.1750
  173SOPE    HB19590   3.669   3.613  10.758 -0.8696 -1.0744  2.2155
  173SOPE    C219591   3.668   3.485  10.585 -0.3101  0.2451 -0.4982
  173SOPE    HS19592   3.667   3.578  10.525  3.8036 -0.7343 -2.2474
  173SOPE   O2119593   3.537   3.424  10.584  0.3929 -0.0420  0.0963
  173SOPE   C2119594   3.427   3.504  10.569 -0.3513 -0.3512  0.2551
  173SOPE   O2219595   3.432   3.623  10.580  0.0886 -0.4657  0.2394
  173SOPE   C2219596   3.303   3.418  10.542  0.8503  0.1532  0.0460
  173SOPE   H2R19597   3.213   3.482  10.552 -0.2661 -1.4394  0.5341
  173SOPE   H2S19598   3.297   3.343  10.625 -1.1978 -0.4439 -0.6228
  173SOPE    C319599   3.748   3.377  10.513  0.0956  0.3093  0.4366
  173SOPE    HX19600   3.745   3.282  10.571 -1.4461 -0.0877 -0.2788
  173SOPE    HY19601   3.851   3.416  10.523  0.5754 -0.5015 -1.2174
  173SOPE   O3119602   3.709   3.355  10.374 -0.4337 -0.8302  0.0929
  173SOPE   C3119603   3.764   3.249  10.314 -0.1772 -0.2000  0.2499
  173SOPE   O3219604   3.869   3.196  10.342  0.4268 -0.1662  0.3761
  173SOPE   C3219605   3.664   3.210  10.201 -0.2202 -0.1429 -0.1826
  173SOPE   H2X19606   3.718   3.235  10.107 -0.1318 -1.5224 -0.5157
  173SOPE   H2Y19607   3.574   3.272  10.219  0.8583  0.7778  2.2740
  173SOPE   C2319608   3.315   3.353  10.400 -0.4572 -0.2919 -0.3128
  173SOPE   H3R19609   3.218   3.303  10.377  0.2811 -0.0384 -4.3340
  173SOPE   H3S19610   3.390   3.272  10.408  0.2654  0.2854 -1.1597
  173SOPE   C2419611   3.350   3.449  10.278  0.1670 -0.2258  0.5573
  173SOPE   H4R19612   3.291   3.541  10.300 -0.5297 -0.5506  0.0619
  173SOPE   H4S19613   3.454   3.488  10.273 -0.3810  1.5033  2.2593
  173SOPE   C2519614   3.306   3.385  10.145  0.0899 -0.0004 -0.6606
  173SOPE   H5R19615   3.329   3.277  10.136 -3.1453 -0.8103 -0.0067
  173SOPE   H5S19616   3.195   3.374  10.147  0.0480  0.4509 -0.5389
  173SOPE   C2619617   3.347   3.452  10.020  0.4139 -0.7429  0.5576
  173SOPE   H6R19618   3.303   3.554  10.024 -0.1616 -0.9360 -0.5136
  173SOPE   H6S19619   3.457   3.462  10.005  0.2119  1.0929  0.1686
  173SOPE   C2719620   3.282   3.394   9.895  0.0522  0.6062 -0.0813
  173SOPE   H7R19621   3.323   3.292   9.880 -0.7278  0.4183 -1.0360
  173SOPE   H7S19622   3.174   3.375   9.916  0.1613  0.0749 -0.0016
  173SOPE   C2819623   3.283   3.491   9.773 -0.5926  0.2966  0.1879
  173SOPE   H8R19624   3.258   3.594   9.804 -1.0823  0.6844 -1.4576
  173SOPE   H8S19625   3.391   3.502   9.748 -0.4749 -1.8348 -0.3468
  173SOPE   C2919626   3.198   3.450   9.659  0.1561  0.2204  0.1576
  173SOPE   H9119627   3.094   3.476   9.684 -0.1306 -1.6343  0.9518
  173SOPE  C21019628   3.231   3.396   9.542  0.4788 -0.3108 -0.1139
  173SOPE  H10119629   3.156   3.396   9.462 -1.1200 -2.3356  1.3095
  173SOPE  C21119630   3.372   3.359   9.506 -0.3062 -0.1639  0.0591
  173SOPE  H11R19631   3.385   3.251   9.527  1.7454  0.2058  0.8591
  173SOPE  H11S19632   3.449   3.414   9.565  0.4924  2.4012 -3.2120
  173SOPE  C21219633   3.405   3.394   9.364 -0.1793 -0.6987 -0.5323
  173SOPE  H12R19634   3.499   3.340   9.338  0.3438  0.0072 -0.1514
  173SOPE  H12S19635   3.426   3.503   9.349 -1.5847 -0.1788  1.1948
  173SOPE  C21319636   3.304   3.342   9.261 -0.3105 -0.4633  0.0249
  173SOPE  H13R19637   3.215   3.408   9.267  0.1493  0.0816  0.8375
  173SOPE  H13S19638   3.273   3.239   9.289  2.8900 -1.2663  0.7346
  173SOPE  C21419639   3.356   3.333   9.113 -0.6837 -0.5519  0.0680
  173SOPE  H14R19640   3.456   3.285   9.114 -0.7986 -0.8264 -1.1040
  173SOPE  H14S19641   3.365   3.439   9.082 -1.3384 -0.2574  0.8547
  173SOPE  C21519642   3.255   3.273   9.018 -0.3602 -0.8865 -0.5690
  173SOPE  H15R19643   3.149   3.282   9.050 -0.6620  1.0401 -2.0068
  173SOPE  H15S19644   3.273   3.164   9.022 -0.7648 -1.0148 -1.9391
  173SOPE  C21619645   3.269   3.309   8.871 -0.2541  0.6194 -0.2514
  173SOPE  H16R19646   3.245   3.220   8.809 -0.4071  0.4956 -0.0189
  173SOPE  H16S19647   3.377   3.321   8.847 -0.1952 -2.3322 -1.6907
  173SOPE  C21719648   3.182   3.432   8.838  0.6957  0.0107 -0.8974
  173SOPE  H17R19649   3.203   3.504   8.921 -1.6701 -0.5487  0.2392
  173SOPE  H17S19650   3.073   3.419   8.855  1.0441 -1.8959 -0.0454
  173SOPE  C21819651   3.216   3.487   8.701  0.2407  0.2701  0.0631
  173SOPE  H18R19652   3.324   3.501   8.681 -0.1345  0.9964 -1.5569
  173SOPE  H18S19653   3.173   3.589   8.696  1.0446  0.5908 -0.3674
  173SOPE  H18T19654   3.180   3.429   8.613 -0.8937 -1.0868  1.3794
  173SOPE   C3319655   3.618   3.056  10.205 -0.3277 -0.3811  0.6256
  173SOPE   H3X19656   3.567   3.024  10.298  1.3970 -0.9230  1.3928
  173SOPE   H3Y19657   3.708   2.992  10.200  0.6758  1.0409  0.0041
  173SOPE   C3419658   3.527   3.025  10.080  0.6017 -0.7193  0.2372
  173SOPE   H4X19659   3.424   3.065  10.092  0.8134  0.0339 -0.4477
  173SOPE   H4Y19660   3.522   2.914  10.070  2.8894 -0.7267 -0.9913
  173SOPE   C3519661   3.576   3.065   9.939  0.1915  0.9577  0.8566
  173SOPE   H5X19662   3.673   3.018   9.912 -0.6428 -1.1129  1.3564
  173SOPE   H5Y19663   3.596   3.174   9.933 -0.1598  0.9484 -0.7618
  173SOPE   C3619664   3.479   3.023   9.831  0.6023  0.3500 -0.3892
  173SOPE   H6X19665   3.382   3.074   9.853  1.6000  2.2996 -0.4548
  173SOPE   H6Y19666   3.462   2.913   9.835 -0.2957  0.5435  1.7269
  173SOPE   C3719667   3.523   3.067   9.691  0.7519 -0.2392 -0.4015
  173SOPE   H7X19668   3.634   3.058   9.686  0.9395  0.9063  1.2580
  173SOPE   H7Y19669   3.505   3.176   9.679  1.4678  0.0508  1.0195
  173SOPE   C3819670   3.463   2.980   9.579  1.2445 -0.0176  0.5757
  173SOPE   H8X19671   3.353   2.990   9.566  1.3018 -0.7982 -0.5490
  173SOPE   H8Y19672   3.489   2.873   9.595  0.0596 -0.3027  0.5893
  173SOPE   C3919673   3.524   3.022   9.439  0.6481  0.1249  0.1466
  173SOPE   H9X19674   3.634   3.014   9.450  1.0898  0.1680 -3.6851
  173SOPE   H9Y19675   3.502   3.124   9.401  0.7846  0.5761  1.2548
  173SOPE  C31019676   3.478   2.910   9.344 -0.2851  0.4253 -0.0494
  173SOPE  H10X19677   3.368   2.891   9.335 -0.2630 -0.0934  0.7598
  173SOPE  H10Y19678   3.529   2.819   9.381  0.1628  0.7039  0.0129
  173SOPE  C31119679   3.512   2.945   9.195 -0.0110  0.5944  0.1124
  173SOPE  H11X19680   3.619   2.961   9.169 -0.4471  0.0718 -2.0808
  173SOPE  H11Y19681   3.461   3.039   9.167 -0.4453  0.5504  0.7580
  173SOPE  C31219682   3.474   2.832   9.106 -0.6435 -0.0942  0.1689
  173SOPE  H12X19683   3.364   2.828   9.097 -0.9314 -0.8494  3.4503
  173SOPE  H12Y19684   3.517   2.731   9.120  0.8830  0.3912 -0.8460
  173SOPE  C31319685   3.520   2.871   8.963  0.2037  0.4622 -0.3620
  173SOPE  H13X19686   3.612   2.933   8.957 -0.3352  1.3099 -0.0155
  173SOPE  H13Y19687   3.438   2.927   8.913 -0.7440  0.1002  0.7705
  173SOPE  C31419688   3.545   2.757   8.863 -0.4946 -0.1837 -0.2237
  173SOPE  H14X19689   3.631   2.697   8.900 -1.6509 -2.1380 -0.6039
  173SOPE  H14Y19690   3.571   2.805   8.766  0.7844  0.3445  0.3800
  173SOPE  C31519691   3.426   2.667   8.821  0.0855  0.4047 -0.3427
  173SOPE  H15X19692   3.330   2.719   8.798 -1.1482 -1.9138 -0.6528
  173SOPE  H15Y19693   3.395   2.596   8.900 -1.1541  0.9112 -0.3531
  173SOPE  C31619694   3.476   2.593   8.700  0.0222  0.2255  0.4844
  173SOPE  H16X19695   3.568   2.533   8.717  0.3430  0.5320 -0.1435
  173SOPE  H16Y19696   3.503   2.666   8.621 -0.4205  0.9490  1.0021
  173SOPE  C31719697   3.377   2.491   8.633  0.6006  0.1146  0.4745
  173SOPE  H17X19698   3.280   2.541   8.611  1.6048  2.3906  1.0244
  173SOPE  H17Y19699   3.355   2.411   8.707  0.2376 -2.5406 -2.4571
  173SOPE  C31819700   3.425   2.434   8.499 -0.2753  0.1038  0.0470
  173SOPE  H18X19701   3.345   2.372   8.454  0.1544 -0.2372 -0.2560
  173SOPE  H18Y19702   3.521   2.379   8.504 -1.0226 -1.2864 -0.7905
  173SOPE  H18Z19703   3.458   2.520   8.437 -0.2363 -0.1577 -0.2951
  174SOPE     N19704   3.425   2.506  11.079 -1.3687 -0.1015  0.7988
  174SOPE   HN119705   3.518   2.551  11.071 -0.6935 -1.7842 -1.1003
  174SOPE   HN219706   3.382   2.577  11.143 -0.8373 -0.1046  1.1631
  174SOPE   HN319707   3.443   2.418  11.133  0.9269  0.4767  1.0282
  174SOPE   C1219708   3.374   2.477  10.940  0.5268  0.4898  0.5407
  174SOPE  H12A19709   3.361   2.570  10.882  0.1435  0.5673  0.7490
  174SOPE  H12B19710   3.272   2.436  10.954 -0.1955  1.6474 -1.1957
  174SOPE   C1119711   3.462   2.374  10.861  0.2878  0.1122  0.2368
  174SOPE  H11A19712   3.402   2.347  10.772  0.7548 -2.0999  0.5647
  174SOPE  H11B19713   3.470   2.279  10.919  0.5751 -0.2522 -0.3990
  174SOPE     P19714   3.627   2.497  10.698  0.2784 -0.0864 -0.0782
  174SOPE   O1319715   3.761   2.553  10.711 -0.1293  1.1054 -0.1782
  174SOPE   O1419716   3.522   2.597  10.656 -0.2556 -0.1280  0.0208
  174SOPE   O1219717   3.588   2.435  10.838 -0.1549  0.0783  0.1700
  174SOPE   O1119718   3.614   2.377  10.593 -0.2962 -0.2663 -0.0814
  174SOPE    C119719   3.716   2.275  10.574 -0.3679 -0.6162  0.1172
  174SOPE    HA19720   3.678   2.189  10.514 -0.1195  0.6132 -1.8334
  174SOPE    HB19721   3.751   2.236  10.672  0.4078  1.3749  0.6627
  174SOPE    C219722   3.823   2.331  10.483 -0.2024  0.7885 -0.0401
  174SOPE    HS19723   3.853   2.433  10.511 -0.1665  0.6615  0.3815
  174SOPE   O2119724   3.784   2.316  10.346  0.4936 -0.1952 -0.0197
  174SOPE   C2119725   3.724   2.415  10.293  0.1610  0.2597 -0.2940
  174SOPE   O2219726   3.717   2.527  10.342 -0.4952  0.5451 -0.0476
  174SOPE   C2219727   3.679   2.382  10.149  0.8205 -0.0842 -0.4945
  174SOPE   H2R19728   3.675   2.273  10.130 -0.8667 -0.1846  0.3195
  174SOPE   H2S19729   3.765   2.425  10.093  0.1343 -0.4570 -1.8606
  174SOPE    C319730   3.959   2.236  10.507  0.0977  0.0083  0.1362
  174SOPE    HX19731   3.915   2.135  10.491 -1.7159  0.7952  0.0119
  174SOPE    HY19732   3.991   2.244  10.613 -1.3160  0.4680  0.5318
  174SOPE   O3119733   4.070   2.253  10.418  0.3706 -0.3318  0.0580
  174SOPE   C3119734   4.131   2.371  10.423  0.6687  0.4189 -0.1057
  174SOPE   O3219735   4.115   2.458  10.506  0.3615 -0.5917  0.2449
  174SOPE   C3219736   4.204   2.383  10.291 -0.5537  0.3277  0.6119
  174SOPE   H2X19737   4.295   2.320  10.298 -1.0584 -0.7872 -2.1654
  174SOPE   H2Y19738   4.253   2.483  10.287  0.3975 -0.0447  2.5774
  174SOPE   C2319739   3.540   2.445  10.130 -0.1776 -0.7120 -0.4391
  174SOPE   H3R19740   3.543   2.556  10.138 -1.4410 -0.7832  1.2143
  174SOPE   H3S19741   3.460   2.402  10.193 -0.9012  0.8143 -0.2954
  174SOPE   C2419742   3.480   2.423   9.984  0.0530  0.6079  0.3285
  174SOPE   H4R19743   3.516   2.322   9.953 -2.0082 -1.0032  3.0018
  174SOPE   H4S19744   3.370   2.414   9.998  0.0020  0.8331  0.0622
  174SOPE   C2519745   3.544   2.513   9.878 -0.5741  0.4865  0.3366
  174SOPE   H5R19746   3.538   2.619   9.911  0.1742  0.3324  0.9955
  174SOPE   H5S19747   3.653   2.488   9.874 -1.1504 -2.2096  0.3672
  174SOPE   C2619748   3.485   2.489   9.745  1.0597 -0.2569  0.2609
  174SOPE   H6R19749   3.482   2.379   9.725  2.1018 -0.1100 -0.7657
  174SOPE   H6S19750   3.376   2.509   9.748  0.7475 -1.4948 -1.8946
  174SOPE   C2719751   3.545   2.581   9.635  0.3360 -0.3541 -0.3553
  174SOPE   H7R19752   3.473   2.586   9.550  0.3887 -2.0011 -0.5012
  174SOPE   H7S19753   3.546   2.682   9.682 -1.8953 -1.0055  1.1838
  174SOPE   C2819754   3.687   2.546   9.598  0.9972  0.2651  0.2701
  174SOPE   H8R19755   3.762   2.548   9.679  1.7330  1.5283 -0.4265
  174SOPE   H8S19756   3.690   2.438   9.571  1.7990 -0.1861  2.1013
  174SOPE   C2919757   3.735   2.622   9.471  0.6207 -0.0566  0.3651
  174SOPE   H9119758   3.722   2.573   9.373  1.3086 -1.2852  0.8704
  174SOPE  C21019759   3.786   2.740   9.473 -0.4355 -0.5867  0.0860
  174SOPE  H10119760   3.817   2.785   9.378 -1.7884 -0.7346 -0.4402
  174SOPE  C21119761   3.805   2.817   9.600 -0.2010  0.5700 -0.4613
  174SOPE  H11R19762   3.762   2.757   9.683 -0.0935  1.9791  0.6329
  174SOPE  H11S19763   3.741   2.908   9.604  0.0771  0.6910  2.8058
  174SOPE  C21219764   3.945   2.857   9.648 -0.1998 -1.0857 -0.1077
  174SOPE  H12R19765   3.981   2.938   9.580 -1.7150  0.6132  1.0742
  174SOPE  H12S19766   4.022   2.777   9.641  3.3890  2.1591  0.4655
  174SOPE  C21319767   3.940   2.931   9.787  0.6428  0.3588  0.0783
  174SOPE  H13R19768   3.850   2.995   9.781  0.3252 -0.0771  0.1458
  174SOPE  H13S19769   4.029   2.998   9.792 -0.6995  2.0391  2.6707
  174SOPE  C21419770   3.938   2.843   9.910 -0.5808 -0.1449 -0.1411
  174SOPE  H14R19771   4.009   2.761   9.890 -1.4452 -0.5140 -1.7842
  174SOPE  H14S19772   3.840   2.792   9.916  0.1876 -1.6539 -0.3027
  174SOPE  C21519773   3.960   2.919  10.045 -0.0566 -0.2842 -0.0636
  174SOPE  H15R19774   3.878   2.993  10.057  0.4384  0.1731  0.6182
  174SOPE  H15S19775   4.057   2.973  10.036  0.8321 -1.9257 -0.3632
  174SOPE  C21619776   3.961   2.814  10.162 -1.1381  0.7713  0.9868
  174SOPE  H16R19777   4.023   2.726  10.136 -2.2383  0.1112  0.5582
  174SOPE  H16S19778   3.856   2.777  10.161 -1.2775  1.1466 -1.8529
  174SOPE  C21719779   4.011   2.864  10.296 -0.0996 -0.3134 -0.6594
  174SOPE  H17R19780   3.939   2.944  10.323 -1.3521 -1.8718  0.7109
  174SOPE  H17S19781   4.112   2.912  10.293 -0.2236 -0.0749 -0.9685
  174SOPE  C21819782   4.014   2.757  10.396 -0.2159  0.3065  0.7249
  174SOPE  H18R19783   4.079   2.787  10.481  0.9345 -0.1855  0.0122
  174SOPE  H18S19784   4.053   2.663  10.353  0.6194  1.8265 -1.9554
  174SOPE  H18T19785   3.918   2.734  10.448  0.7865 -0.2711  2.3619
  174SOPE   C3319786   4.107   2.364  10.169 -0.5287  0.7042  0.3360
  174SOPE   H3X19787   4.009   2.416  10.169 -0.4623  0.8387 -1.0768
  174SOPE   H3Y19788   4.080   2.256  10.159 -0.1679  0.5160  1.3168
  174SOPE   C3419789   4.172   2.410  10.036 -0.2702 -0.1570 -0.0869
  174SOPE   H4X19790   4.275   2.372  10.055 -1.3032 -2.6902  0.5988
  174SOPE   H4Y19791   4.175   2.521  10.047 -0.6777 -0.0687 -0.8087
  174SOPE   C3519792   4.112   2.356   9.906  0.0553 -0.3970  0.3896
  174SOPE   H5X19793   4.001   2.361   9.898 -0.0754 -1.4980  1.2483
  174SOPE   H5Y19794   4.143   2.249   9.898 -1.7386 -0.7432 -2.6536
  174SOPE   C3619795   4.172   2.432   9.785 -0.2084 -0.2308  0.4478
  174SOPE   H6X19796   4.277   2.401   9.768  0.1888 -0.4764  3.1142
  174SOPE   H6Y19797   4.170   2.543   9.789 -0.2184 -0.2162  0.0105
  174SOPE   C3719798   4.092   2.380   9.660 -0.6993 -0.2760  0.2951
  174SOPE   H7X19799   3.985   2.403   9.677 -0.8070 -0.0728 -0.5987
  174SOPE   H7Y19800   4.101   2.270   9.652 -4.1807 -0.5487 -0.5500
  174SOPE   C3819801   4.125   2.455   9.535 -0.3049 -0.8769 -0.6640
  174SOPE   H8X19802   4.232   2.439   9.509 -0.3460 -2.1839 -0.0768
  174SOPE   H8Y19803   4.104   2.563   9.550 -0.6688 -0.9570 -0.6025
  174SOPE   C3919804   4.039   2.406   9.423 -0.3527 -1.3669  0.2892
  174SOPE   H9X19805   3.929   2.410   9.437 -0.6227  0.6107 -1.9763
  174SOPE   H9Y19806   4.068   2.300   9.405  0.8087 -1.0628  0.3325
  174SOPE  C31019807   4.074   2.489   9.297 -0.1370 -0.7475  0.5201
  174SOPE  H10X19808   4.172   2.451   9.259  0.1856  0.3781  0.1951
  174SOPE  H10Y19809   4.085   2.595   9.330 -0.1214 -0.3651 -0.6747
  174SOPE  C31119810   3.977   2.484   9.175 -0.0191 -0.8977  0.3752
  174SOPE  H11X19811   3.990   2.572   9.110 -2.9795  0.2625  1.2721
  174SOPE  H11Y19812   3.871   2.491   9.208  0.0052  1.1471  0.0552
  174SOPE  C31219813   3.995   2.359   9.094  0.6171  0.0192 -0.2417
  174SOPE  H12X19814   3.940   2.388   9.002 -0.3366  1.5367  0.7626
  174SOPE  H12Y19815   3.952   2.282   9.162  0.2149  1.8534  1.6559
  174SOPE  C31319816   4.133   2.308   9.045  0.3247  0.0734 -0.5662
  174SOPE  H13X19817   4.190   2.296   9.139  0.1323  3.0846 -0.0295
  174SOPE  H13Y19818   4.182   2.388   8.985  1.5399  0.7933  1.3372
  174SOPE  C31419819   4.130   2.163   8.979 -0.3339  0.2478  0.2284
  174SOPE  H14X19820   4.032   2.151   8.928 -0.7882  0.1826  1.1206
  174SOPE  H14Y19821   4.125   2.083   9.055  3.5272 -2.9740 -2.6792
  174SOPE  C31519822   4.247   2.133   8.878 -0.5070 -0.2510 -0.3230
  174SOPE  H15X19823   4.344   2.138   8.932 -1.8061 -1.3371  2.1705
  174SOPE  H15Y19824   4.261   2.222   8.813 -1.3610  0.3799  0.3596
  174SOPE  C31619825   4.233   2.003   8.797 -0.2812 -0.2921  0.3897
  174SOPE  H16X19826   4.260   2.029   8.692  1.5399 -1.2568  0.5984
  174SOPE  H16Y19827   4.129   1.965   8.807 -1.0010  1.4778 -0.2796
  174SOPE  C31719828   4.330   1.886   8.842  0.2426  0.1666 -0.5151
  174SOPE  H17X19829   4.289   1.819   8.921 -1.1845  2.4932  0.7608
  174SOPE  H17Y19830   4.418   1.940   8.884  0.6662 -1.5991  0.9768
  174SOPE  C31819831   4.362   1.797   8.726  0.1085  0.4902 -0.3863
  174SOPE  H18X19832   4.280   1.736   8.682  0.7227 -0.6614  0.0336
  174SOPE  H18Y19833   4.432   1.721   8.765 -0.1764 -0.8223 -2.3595
  174SOPE  H18Z19834   4.417   1.854   8.649 -0.1649 -0.5908 -1.4033
  175SOPE     N19835   5.713   4.762  10.460 -0.2261  0.0228 -0.0635
  175SOPE   HN119836   5.634   4.763  10.393 -0.3302 -1.4949  0.0143
  175SOPE   HN219837   5.803   4.764  10.408 -0.3892 -0.5137 -0.3668
  175SOPE   HN319838   5.717   4.670  10.509  1.9556  0.8360  1.3606
  175SOPE   C1219839   5.705   4.877  10.558  1.0958 -0.1542  0.1390
  175SOPE  H12A19840   5.729   4.971  10.503  1.0768 -0.2090  0.0370
  175SOPE  H12B19841   5.778   4.860  10.640 -1.4273 -0.4863  2.3746
  175SOPE   C1119842   5.559   4.901  10.621  0.5385 -0.4020  0.1997
  175SOPE  H11A19843   5.485   4.909  10.539  1.8318 -0.3158 -0.9757
  175SOPE  H11B19844   5.568   4.994  10.682  0.7936  0.7145 -1.5221
  175SOPE     P19845   5.370   4.764  10.748  0.3593 -0.8009 -0.0197
  175SOPE   O1319846   5.323   4.873  10.832  0.5327 -0.3143 -0.2245
  175SOPE   O1419847   5.364   4.630  10.804  0.6537  0.1330 -0.4717
  175SOPE   O1219848   5.519   4.790  10.700  0.0066  0.0362  0.0227
  175SOPE   O1119849   5.289   4.764  10.617  0.6111 -0.2845  0.4130
  175SOPE    C119850   5.290   4.652  10.527  0.9033  0.0856 -0.7414
  175SOPE    HA19851   5.242   4.566  10.580  0.8115  0.8582  0.4445
  175SOPE    HB19852   5.393   4.619  10.503  1.4165 -0.5116  2.0927
  175SOPE    C219853   5.207   4.682  10.402  0.2578  0.0654  0.5615
  175SOPE    HS19854   5.244   4.780  10.365 -2.4056  1.2493  0.9069
  175SOPE   O2119855   5.070   4.684  10.436  0.2402 -0.3637  0.0423
  175SOPE   C2119856   4.995   4.770  10.372  0.3926  0.0740  0.0911
  175SOPE   O2219857   5.040   4.866  10.306 -0.7016  0.2597  0.2427
  175SOPE   C2219858   4.850   4.745  10.399  0.1282 -0.2367 -0.1400
  175SOPE   H2R19859   4.825   4.821  10.475 -1.9395 -1.6252  0.6244
  175SOPE   H2S19860   4.836   4.650  10.455  0.2516  0.8104  1.7036
  175SOPE    C319861   5.232   4.569  10.299  0.0942  0.0569  0.3936
  175SOPE    HX19862   5.192   4.477  10.348  1.2771 -0.0009  1.2984
  175SOPE    HY19863   5.340   4.562  10.277 -0.0472 -2.5037  0.3710
  175SOPE   O3119864   5.165   4.590  10.178 -0.4978 -0.6293  0.0110
  175SOPE   C3119865   5.218   4.674  10.092 -0.2299  0.7888  0.2550
  175SOPE   O3219866   5.317   4.745  10.113 -0.2439  0.0866  0.3825
  175SOPE   C3219867   5.134   4.653   9.963 -0.1375  0.2322  0.6126
  175SOPE   H2X19868   5.067   4.741   9.950 -0.2653 -0.2187 -1.9340
  175SOPE   H2Y19869   5.081   4.556   9.973  3.1811 -1.9322 -1.5356
  175SOPE   C2319870   4.750   4.765  10.285 -0.1661 -0.2340  0.7082
  175SOPE   H3R19871   4.739   4.870  10.250  0.6027  0.1238  1.5188
  175SOPE   H3S19872   4.648   4.753  10.327 -1.2172  1.9528 -1.1292
  175SOPE   C2419873   4.775   4.659  10.178  0.0958 -0.0274 -0.0160
  175SOPE   H4R19874   4.886   4.666  10.169 -0.1764  2.0287 -2.2900
  175SOPE   H4S19875   4.750   4.562  10.226 -0.5074 -0.6225 -1.5305
  175SOPE   C2519876   4.716   4.679  10.035 -0.5875 -0.1362  0.5958
  175SOPE   H5R19877   4.607   4.665  10.051 -0.8679  0.6740 -0.5767
  175SOPE   H5S19878   4.738   4.783  10.002 -1.6019 -0.0809  0.0908
  175SOPE   C2619879   4.762   4.578   9.930  0.3685 -0.3622 -0.1742
  175SOPE   H6R19880   4.696   4.582   9.841  0.5116 -2.4003 -0.4155
  175SOPE   H6S19881   4.870   4.589   9.905  0.4897 -0.1486  0.4338
  175SOPE   C2719882   4.746   4.431   9.978  0.1702  0.1038 -0.2591
  175SOPE   H7R19883   4.787   4.415  10.080  0.7415  1.8092 -0.1979
  175SOPE   H7S19884   4.637   4.408   9.982 -0.1533  1.2673 -1.7768
  175SOPE   C2819885   4.806   4.333   9.879 -0.4541 -0.3343  0.4594
  175SOPE   H8R19886   4.792   4.363   9.773 -0.5850 -1.9464  0.0052
  175SOPE   H8S19887   4.916   4.345   9.887 -0.2203 -1.8213 -0.3172
  175SOPE   C2919888   4.769   4.190   9.905  0.4255 -0.1918 -0.3865
  175SOPE   H9119889   4.757   4.156  10.009  0.0738 -0.5339 -0.5378
  175SOPE  C21019890   4.752   4.097   9.803  0.2389  0.1184 -0.2162
  175SOPE  H10119891   4.710   4.002   9.839  0.1603  0.4695  0.6253
  175SOPE  C21119892   4.761   4.112   9.652  0.1996  0.3740 -0.0974
  175SOPE  H11R19893   4.856   4.066   9.616 -0.8518 -1.8648 -0.0295
  175SOPE  H11S19894   4.768   4.219   9.621  0.5049 -0.0243 -1.4629
  175SOPE  C21219895   4.653   4.029   9.575 -0.4300 -0.1137 -0.0287
  175SOPE  H12R19896   4.555   4.079   9.593  0.1083  0.6613  0.7646
  175SOPE  H12S19897   4.659   3.931   9.629  0.8801  0.0253  0.0945
  175SOPE  C21319898   4.692   4.019   9.432 -0.0420  0.2846  0.0322
  175SOPE  H13R19899   4.793   3.973   9.435 -0.8984 -1.5333  3.2628
  175SOPE  H13S19900   4.702   4.124   9.398 -0.7473  0.7925  1.3663
  175SOPE  C21419901   4.586   3.958   9.351  0.6495  0.1400 -0.4637
  175SOPE  H14R19902   4.480   3.991   9.365 -0.6258 -3.0006 -2.1109
  175SOPE  H14S19903   4.587   3.848   9.367 -0.5091 -0.0874 -1.7998
  175SOPE  C21519904   4.606   3.991   9.205  0.0792  0.5346 -0.2159
  175SOPE  H15R19905   4.706   3.944   9.190 -0.0464  0.0533  0.4318
  175SOPE  H15S19906   4.607   4.102   9.195 -1.3302  0.6782  1.0393
  175SOPE  C21619907   4.487   3.949   9.120 -0.2966 -0.0007 -0.5544
  175SOPE  H16R19908   4.400   4.015   9.141  1.0882  2.4362 -2.2460
  175SOPE  H16S19909   4.457   3.843   9.137 -0.6617  0.3678  1.0969
  175SOPE  C21719910   4.516   3.965   8.969  0.0447 -0.1741 -0.4675
  175SOPE  H17R19911   4.609   3.909   8.945  0.1603 -1.4330  2.6376
  175SOPE  H17S19912   4.528   4.075   8.968  0.8894 -0.2199  1.7724
  175SOPE  C21819913   4.412   3.906   8.878 -0.0217  0.0190  0.5735
  175SOPE  H18R19914   4.457   3.880   8.780 -3.8194  1.4269 -1.6327
  175SOPE  H18S19915   4.324   3.972   8.865 -2.5644 -3.9210 -3.7497
  175SOPE  H18T19916   4.378   3.811   8.924  0.5537 -0.5780 -0.2137
  175SOPE   C3319917   5.217   4.645   9.832 -0.9664 -0.4447  0.7691
  175SOPE   H3X19918   5.302   4.574   9.846 -2.3352 -2.7722 -2.0347
  175SOPE   H3Y19919   5.275   4.739   9.825 -1.0220 -0.5117 -0.6989
  175SOPE   C3419920   5.129   4.614   9.711  0.1589 -0.6688  0.2682
  175SOPE   H4X19921   5.052   4.693   9.700  0.5923 -0.4214 -1.0686
  175SOPE   H4Y19922   5.066   4.523   9.721 -0.3814 -0.6028 -2.0862
  175SOPE   C3519923   5.218   4.607   9.585  0.6894  1.4053 -0.5528
  175SOPE   H5X19924   5.292   4.524   9.590 -0.7987  0.1097  0.5306
  175SOPE   H5Y19925   5.278   4.701   9.584  2.9190  0.0747  2.0525
  175SOPE   C3619926   5.138   4.624   9.454 -0.2351  0.8884  0.1211
  175SOPE   H6X19927   5.080   4.719   9.446  0.9351  1.4421 -2.0354
  175SOPE   H6Y19928   5.060   4.545   9.456 -0.6669  1.3263  1.3040
  175SOPE   C3719929   5.221   4.610   9.323 -0.1874  0.0680 -0.5687
  175SOPE   H7X19930   5.272   4.512   9.332 -0.4507 -0.0490 -0.3174
  175SOPE   H7Y19931   5.287   4.696   9.298 -0.2314  0.0567 -0.7232
  175SOPE   C3819932   5.127   4.594   9.197 -0.1081 -0.6662 -0.3210
  175SOPE   H8X19933   5.067   4.687   9.188 -1.3063 -1.3430  0.3682
  175SOPE   H8Y19934   5.054   4.510   9.210 -1.9458  0.9585  0.1445
  175SOPE   C3919935   5.210   4.576   9.066  0.8747 -0.0155  0.6024
  175SOPE   H9X19936   5.267   4.481   9.063  1.5868  0.3945  0.9613
  175SOPE   H9Y19937   5.282   4.660   9.058  2.4232 -1.1843  1.9478
  175SOPE  C31019938   5.107   4.585   8.951  0.7049  0.0592 -0.2376
  175SOPE  H10X19939   5.065   4.687   8.936 -0.3926 -0.7058 -2.5705
  175SOPE  H10Y19940   5.025   4.515   8.978 -0.0104  1.5323  1.5549
  175SOPE  C31119941   5.169   4.508   8.833 -0.1624 -0.3461  0.1537
  175SOPE  H11X19942   5.167   4.400   8.855 -1.0102 -0.1899  0.8496
  175SOPE  H11Y19943   5.277   4.536   8.827 -0.1199  0.0765  2.5020
  175SOPE  C31219944   5.101   4.540   8.701  1.1355  0.1674 -0.4403
  175SOPE  H12X19945   5.133   4.641   8.669 -1.9411  0.9282 -1.3114
  175SOPE  H12Y19946   4.990   4.539   8.712  0.9872  3.8078 -0.8210
  175SOPE  C31319947   5.138   4.438   8.595  0.4307  0.2753  0.3004
  175SOPE  H13X19948   5.248   4.441   8.583  0.6618  1.8038  2.5347
  175SOPE  H13Y19949   5.089   4.473   8.502 -1.5769 -0.7103  0.9518
  175SOPE  C31419950   5.091   4.296   8.627 -0.1711 -0.2007 -0.4211
  175SOPE  H14X19951   5.145   4.256   8.715  1.3294  0.2636 -1.1097
  175SOPE  H14Y19952   5.114   4.234   8.538  0.3265 -0.3987 -0.1602
  175SOPE  C31519953   4.940   4.278   8.647  0.0518 -0.6550  0.9883
  175SOPE  H15X19954   4.885   4.338   8.571  2.2723 -0.6197 -0.6148
  175SOPE  H15Y19955   4.910   4.336   8.738 -0.2490  0.7079  0.0341
  175SOPE  C31619956   4.895   4.128   8.652 -0.4544  0.3001 -0.3383
  175SOPE  H16X19957   4.946   4.092   8.743 -1.5954  1.1204  0.6360
  175SOPE  H16Y19958   4.922   4.082   8.554 -0.4071  2.1965 -1.2285
  175SOPE  C31719959   4.742   4.107   8.670  0.0786 -0.3874  0.3793
  175SOPE  H17X19960   4.696   4.164   8.754  0.0059  0.9749 -0.5660
  175SOPE  H17Y19961   4.713   4.001   8.681 -0.2979 -0.3627 -0.3365
  175SOPE  C31819962   4.665   4.164   8.548 -0.0147 -0.5278 -0.8010
  175SOPE  H18X19963   4.557   4.142   8.536 -0.8749  1.3205  2.9014
  175SOPE  H18Y19964   4.720   4.129   8.457  0.9639 -1.0613 -0.0123
  175SOPE  H18Z19965   4.681   4.273   8.544 -2.7223  0.0099  1.6659
  176SOPE     N19966   4.046   4.358  10.838  0.8118 -0.6079 -0.5265
  176SOPE   HN119967   4.041   4.458  10.864 -0.5076 -0.6959 -0.3887
  176SOPE   HN219968   3.949   4.336  10.807  0.2523  0.5775  0.3578
  176SOPE   HN319969   4.052   4.306  10.928 -0.9035  1.4864  0.8454
  176SOPE   C1219970   4.138   4.341  10.722  0.1045  0.0158 -0.1026
  176SOPE  H12A19971   4.238   4.383  10.745  0.4835 -0.3382 -1.0472
  176SOPE  H12B19972   4.082   4.399  10.645 -2.4464 -0.8921  1.0196
  176SOPE   C1119973   4.149   4.198  10.671  0.0469 -0.4924  0.7499
  176SOPE  H11A19974   4.199   4.195  10.572 -0.4009  0.9515  0.4763
  176SOPE  H11B19975   4.057   4.147  10.636 -0.3576  0.6138  0.1685
  176SOPE     P19976   4.365   4.118  10.802  0.2888 -0.2952  0.3200
  176SOPE   O1319977   4.390   4.009  10.901  0.1170 -0.0049  0.1696
  176SOPE   O1419978   4.436   4.251  10.818  0.3870 -0.0727  0.2493
  176SOPE   O1219979   4.208   4.126  10.774  0.0602  0.0703  0.0754
  176SOPE   O1119980   4.403   4.064  10.660  0.3263 -0.0463 -0.1696
  176SOPE    C119981   4.354   3.939  10.609 -0.0486 -0.0788 -0.7169
  176SOPE    HA19982   4.292   3.961  10.520  1.3605 -1.7745 -2.1545
  176SOPE    HB19983   4.290   3.876  10.675  0.8283 -0.0489  0.1764
  176SOPE    C219984   4.482   3.856  10.585  0.5614 -0.8560  0.0213
  176SOPE    HS19985   4.553   3.886  10.666 -0.4548 -0.1371  0.6520
  176SOPE   O2119986   4.528   3.894  10.455 -0.1190  0.0408 -0.1649
  176SOPE   C2119987   4.655   3.861  10.425  0.6802  0.0211  0.3296
  176SOPE   O2219988   4.720   3.801  10.509 -0.5838 -0.0366  0.1442
  176SOPE   C2219989   4.704   3.938  10.306 -0.0590  0.5449  0.2585
  176SOPE   H2R19990   4.699   4.045  10.335  0.2962  0.7001 -0.2532
  176SOPE   H2S19991   4.636   3.918  10.220  0.5368  1.6661 -0.4869
  176SOPE    C319992   4.458   3.703  10.598  0.0571 -1.0798  0.1602
  176SOPE    HX19993   4.432   3.670  10.701  1.2398  0.0962  0.8544
  176SOPE    HY19994   4.552   3.650  10.575  0.1284 -0.5814 -0.7259
  176SOPE   O3119995   4.362   3.658  10.508  0.3771 -0.6311  0.0527
  176SOPE   C3119996   4.366   3.531  10.484  0.7176  0.3855  0.5893
  176SOPE   O3219997   4.434   3.453  10.545 -0.2493  0.2434 -0.0574
  176SOPE   C3219998   4.278   3.499  10.360 -0.1924  0.1354  0.0056
  176SOPE   H2X19999   4.353   3.509  10.278  0.0403 -0.0283  0.1988
  176SOPE   H2Y20000   4.193   3.570  10.353 -0.5235 -0.4553 -2.8869
  176SOPE   C2320001   4.845   3.885  10.259 -0.6864  0.6252  0.5207
  176SOPE   H3R20002   4.906   3.899  10.350  1.1658  0.4125 -0.6523
  176SOPE   H3S20003   4.875   3.956  10.179  2.7453 -0.5903  0.6050
  176SOPE   C2420004   4.852   3.736  10.208  0.2095 -0.2637 -0.3913
  176SOPE   H4R20005   4.858   3.678  10.303 -1.8325  0.2313  0.0596
  176SOPE   H4S20006   4.752   3.713  10.166 -0.7775  3.1102 -0.0160
  176SOPE   C2520007   4.973   3.701  10.120  0.5546  0.3731 -0.0081
  176SOPE   H5R20008   5.067   3.698  10.179 -0.1660  0.0682  1.1400
  176SOPE   H5S20009   4.969   3.592  10.098 -0.4144  0.5434 -0.7144
  176SOPE   C2620010   4.977   3.783   9.988 -0.2784  0.8045 -0.5130
  176SOPE   H6R20011   4.890   3.788   9.920  0.1126 -0.1547 -1.0996
  176SOPE   H6S20012   4.996   3.888  10.020  0.7242  0.3819  0.3165
  176SOPE   C2720013   5.090   3.738   9.899  0.6734 -0.5037 -0.4746
  176SOPE   H7R20014   5.184   3.731   9.957 -1.0560  1.0850  2.6118
  176SOPE   H7S20015   5.073   3.639   9.850  0.4636 -1.2360  1.0622
  176SOPE   C2820016   5.132   3.848   9.793 -0.2657  0.0412 -0.2180
  176SOPE   H8R20017   5.127   3.947   9.843  2.6139 -0.7411  1.7796
  176SOPE   H8S20018   5.240   3.847   9.767  0.0883 -1.5365  1.2613
  176SOPE   C2920019   5.050   3.837   9.662 -0.4296  0.2866 -0.0166
  176SOPE   H9120020   4.948   3.878   9.653 -0.3875  0.7854  1.6656
  176SOPE  C21020021   5.079   3.765   9.555  1.1308 -0.0658  0.6817
  176SOPE  H10120022   5.014   3.783   9.468  0.4249 -0.5420  1.0981
  176SOPE  C21120023   5.203   3.677   9.544 -0.2863 -0.1257 -0.1785
  176SOPE  H11R20024   5.171   3.570   9.544  0.9464 -0.5417  2.3639
  176SOPE  H11S20025   5.279   3.690   9.625  0.3590  3.5589 -1.3144
  176SOPE  C21220026   5.290   3.716   9.417  0.5645 -0.3876  0.6778
  176SOPE  H12R20027   5.379   3.653   9.400 -0.3534 -0.7921 -2.9566
  176SOPE  H12S20028   5.323   3.822   9.427  0.5752 -0.3264  0.0060
  176SOPE  C21320029   5.215   3.676   9.282  0.1473 -0.1888 -0.4557
  176SOPE  H13R20030   5.117   3.728   9.276 -0.0385 -0.7182 -2.1147
  176SOPE  H13S20031   5.209   3.565   9.284 -0.6390 -0.1520 -0.7214
  176SOPE  C21420032   5.292   3.725   9.159 -0.0918  0.3655 -0.4990
  176SOPE  H14R20033   5.401   3.710   9.168  0.0094  1.1651 -0.3281
  176SOPE  H14S20034   5.274   3.834   9.144  2.5237  0.9092  0.0188
  176SOPE  C21520035   5.250   3.646   9.031 -0.0278 -0.3129  0.1921
  176SOPE  H15R20036   5.279   3.540   9.047  2.4292  0.8789  4.3763
  176SOPE  H15S20037   5.317   3.672   8.946 -0.3643  0.0438  0.0354
  176SOPE  C21620038   5.102   3.644   8.998 -0.5632  0.3635  0.1838
  176SOPE  H16R20039   5.038   3.624   9.087 -2.4680 -1.6622 -1.5966
  176SOPE  H16S20040   5.083   3.562   8.926  1.2219  1.0358 -1.0797
  176SOPE  C21720041   5.059   3.774   8.925 -0.8873 -0.9576  0.5011
  176SOPE  H17R20042   5.066   3.845   9.010 -1.7013 -0.8211  0.4527
  176SOPE  H17S20043   4.955   3.762   8.888 -1.5978 -0.2881  2.2628
  176SOPE  C21820044   5.148   3.819   8.809 -0.1403 -0.2139  0.3911
  176SOPE  H18R20045   5.164   3.741   8.731 -0.7574  1.8427 -1.8425
  176SOPE  H18S20046   5.249   3.850   8.843 -0.4034  1.3579 -0.2276
  176SOPE  H18T20047   5.101   3.906   8.760  2.4352  1.4239  0.7437
  176SOPE   C3320048   4.207   3.358  10.358 -0.2896 -0.0417 -0.0097
  176SOPE   H3X20049   4.123   3.362  10.431 -1.4639 -2.0598 -1.2402
  176SOPE   H3Y20050   4.282   3.290  10.402 -0.5172 -1.8169 -2.2940
  176SOPE   C3420051   4.167   3.309  10.222  0.2771 -0.4926 -0.2787
  176SOPE   H4X20052   4.109   3.219  10.252  2.3062 -1.1742  1.7686
  176SOPE   H4Y20053   4.260   3.292  10.163  0.5540 -1.6506  0.4697
  176SOPE   C3520054   4.071   3.408  10.154  1.4207 -0.5220 -0.6109
  176SOPE   H5X20055   4.134   3.495  10.124 -0.2556  1.0656  0.3565
  176SOPE   H5Y20056   3.988   3.447  10.217  2.7629  0.3470  0.6611
  176SOPE   C3620057   4.004   3.342  10.031  0.0896 -0.5293  0.0752
  176SOPE   H6X20058   3.952   3.251  10.068  0.0770 -0.6100 -0.1378
  176SOPE   H6Y20059   4.087   3.295   9.974  0.4269  1.1883 -0.8700
  176SOPE   C3720060   3.912   3.427   9.945  0.3578 -0.3164 -0.3726
  176SOPE   H7X20061   3.965   3.512   9.898 -2.2098  0.8416 -1.2917
  176SOPE   H7Y20062   3.832   3.459  10.015  1.3875  0.9097  0.2526
  176SOPE   C3820063   3.828   3.351   9.838 -0.1073 -0.0461 -0.2354
  176SOPE   H8X20064   3.724   3.385   9.817 -1.2146 -1.8499  2.0157
  176SOPE   H8Y20065   3.813   3.246   9.872  0.8650 -0.8131 -2.0576
  176SOPE   C3920066   3.896   3.352   9.696  0.9586  0.1246 -0.3061
  176SOPE   H9X20067   4.000   3.318   9.711  1.0025  0.0942 -0.6586
  176SOPE   H9Y20068   3.904   3.453   9.650 -1.4293  0.2925 -0.4087
  176SOPE  C31020069   3.837   3.249   9.594  0.7524  0.2249  0.2992
  176SOPE  H10X20070   3.734   3.271   9.560 -0.1811 -0.9994  2.2451
  176SOPE  H10Y20071   3.821   3.145   9.629  2.0059 -0.3965 -0.9099
  176SOPE  C31120072   3.924   3.248   9.467  0.5380 -0.2251 -0.2729
  176SOPE  H11X20073   3.895   3.158   9.408 -0.9537 -1.7420  2.6673
  176SOPE  H11Y20074   4.024   3.236   9.515  0.5472  1.7035  0.2112
  176SOPE  C31220075   3.916   3.378   9.375 -0.1579 -0.0289  0.3773
  176SOPE  H12X20076   3.989   3.453   9.412 -0.2556 -0.9072  2.4417
  176SOPE  H12Y20077   3.816   3.423   9.360  0.8257  2.0665 -0.1299
  176SOPE  C31320078   3.964   3.340   9.235 -0.1374  0.0027  0.3195
  176SOPE  H13X20079   3.885   3.283   9.183 -1.3366  2.3473 -0.5317
  176SOPE  H13Y20080   4.056   3.280   9.253  0.8053  1.6018  1.0087
  176SOPE  C31420081   3.999   3.461   9.145  0.2740 -0.2272 -0.4082
  176SOPE  H14X20082   3.930   3.546   9.163  0.4288  0.0475 -1.0709
  176SOPE  H14Y20083   3.996   3.437   9.037  1.6933  2.0651 -0.9956
  176SOPE  C31520084   4.134   3.514   9.182 -0.2789  0.5460 -0.4086
  176SOPE  H15X20085   4.215   3.440   9.166  1.5226  2.0758  1.3315
  176SOPE  H15Y20086   4.139   3.545   9.288 -1.3367  1.7468 -0.6955
  176SOPE  C31620087   4.172   3.645   9.116  0.2860 -0.0331  0.5028
  176SOPE  H16X20088   4.121   3.652   9.017 -1.0766  2.3334  1.3445
  176SOPE  H16Y20089   4.282   3.647   9.108  0.4041 -0.6579  1.8225
  176SOPE  C31720090   4.141   3.774   9.197  0.0345  0.7423  0.5889
  176SOPE  H17X20091   4.227   3.790   9.265  0.1029 -1.0486  0.9424
  176SOPE  H17Y20092   4.056   3.760   9.267 -1.7967 -1.2692 -1.9137
  176SOPE  C31820093   4.115   3.894   9.108 -0.1752  0.4945 -0.0033
  176SOPE  H18X20094   4.033   3.860   9.040  0.4095 -0.8396 -0.0536
  176SOPE  H18Y20095   4.212   3.930   9.068  0.1644 -0.4703 -0.0408
  176SOPE  H18Z20096   4.083   3.978   9.174  1.7591  2.1035 -1.0540
  177SOPE     N20097   4.795   2.233  11.046 -0.0155 -0.0590 -0.5142
  177SOPE   HN120098   4.890   2.210  11.011  1.2407  0.9448  2.0544
  177SOPE   HN220099   4.799   2.331  11.080 -0.5388 -0.1253 -0.2678
  177SOPE   HN320100   4.778   2.161  11.120 -0.6761 -0.3033 -0.9029
  177SOPE   C1220101   4.706   2.235  10.927  0.0614 -0.7384 -0.0718
  177SOPE  H12A20102   4.737   2.330  10.879 -0.6500 -0.5151 -0.0973
  177SOPE  H12B20103   4.601   2.257  10.957  0.2283 -0.0781  0.0325
  177SOPE   C1120104   4.733   2.101  10.848 -0.1443  0.6136  0.3363
  177SOPE  H11A20105   4.842   2.083  10.832 -0.5248 -0.9533 -0.5799
  177SOPE  H11B20106   4.687   2.103  10.747 -1.5437 -4.2983  0.7384
  177SOPE     P20107   4.548   1.946  10.949  0.4812 -0.2530  0.0463
  177SOPE   O1320108   4.465   2.062  10.981  0.1125 -0.3025 -0.5287
  177SOPE   O1420109   4.553   1.841  11.051 -0.0778 -0.2428 -0.3662
  177SOPE   O1220110   4.694   1.995  10.931 -0.1703  0.3152 -0.3040
  177SOPE   O1120111   4.518   1.884  10.810 -0.2413 -0.0535 -0.0628
  177SOPE    C120112   4.498   1.739  10.799 -0.8702 -0.1151  0.3655
  177SOPE    HA20113   4.403   1.722  10.744 -0.8649  0.4413  0.1733
  177SOPE    HB20114   4.493   1.688  10.898 -3.4489  0.4337  0.5724
  177SOPE    C220115   4.629   1.678  10.734 -0.2461 -0.5410  0.0901
  177SOPE    HS20116   4.712   1.705  10.803  2.3963  1.2179 -3.6370
  177SOPE   O2120117   4.648   1.741  10.605  0.8240  0.1055 -0.1269
  177SOPE   C2120118   4.775   1.776  10.575  0.1808  0.0054  0.1371
  177SOPE   O2220119   4.876   1.743  10.635  0.0858  0.2149  0.1316
  177SOPE   C2220120   4.769   1.840  10.430  0.3395  0.1950 -0.3337
  177SOPE   H2R20121   4.794   1.948  10.439 -0.6456  0.2989  1.2523
  177SOPE   H2S20122   4.665   1.832  10.392 -0.3232 -0.8304  1.6400
  177SOPE    C320123   4.644   1.528  10.727  0.6512 -0.2389 -0.4912
  177SOPE    HX20124   4.636   1.488  10.831 -1.6634 -2.4173 -1.4716
  177SOPE    HY20125   4.749   1.501  10.700  1.0188 -1.0635  1.6229
  177SOPE   O3120126   4.552   1.454  10.639  0.4652  0.4291  0.0057
  177SOPE   C3120127   4.589   1.439  10.514 -0.0032  0.2114 -0.3525
  177SOPE   O3220128   4.687   1.492  10.460 -0.0536 -0.0835 -0.2145
  177SOPE   C3220129   4.488   1.345  10.449  0.7201 -0.2818  0.3016
  177SOPE   H2X20130   4.387   1.391  10.456  1.3999  1.5050 -1.1737
  177SOPE   H2Y20131   4.484   1.257  10.516  2.8391 -0.0323  0.8027
  177SOPE   C2320132   4.865   1.779  10.324 -0.1708  0.1591  0.3312
  177SOPE   H3R20133   4.856   1.668  10.322  0.8863  0.0729  0.0867
  177SOPE   H3S20134   4.969   1.794  10.359 -0.6000 -0.1524  1.7534
  177SOPE   C2420135   4.836   1.820  10.182 -0.2100  0.0944 -0.1249
  177SOPE   H4R20136   4.752   1.755  10.147  0.0860 -0.1651 -0.3601
  177SOPE   H4S20137   4.808   1.927  10.180  0.2056  0.1937 -0.9840
  177SOPE   C2520138   4.958   1.792  10.099  0.4168 -0.0686 -0.3490
  177SOPE   H5R20139   5.044   1.850  10.139 -0.3199  0.4708  0.4804
  177SOPE   H5S20140   4.983   1.685  10.110  1.6585  0.3026  0.7085
  177SOPE   C2620141   4.936   1.828   9.957 -0.3786 -0.1216  0.3866
  177SOPE   H6R20142   5.015   1.783   9.893  2.0381  0.3146  2.9830
  177SOPE   H6S20143   4.835   1.785   9.934 -0.0254 -0.1864 -1.1304
  177SOPE   C2720144   4.936   1.979   9.929  0.3063 -0.4055  0.4211
  177SOPE   H7R20145   4.854   2.022   9.989  1.4324  0.9450  1.0141
  177SOPE   H7S20146   5.027   2.033   9.964 -0.7282  1.2389  0.6282
  177SOPE   C2820147   4.933   2.016   9.777  0.5553  0.3274 -0.0369
  177SOPE   H8R20148   4.929   2.127   9.778 -1.7500  0.2514  0.9158
  177SOPE   H8S20149   5.031   1.991   9.730  1.3283  0.0406  1.6781
  177SOPE   C2920150   4.813   1.970   9.702  0.1144  0.3437  0.1639
  177SOPE   H9120151   4.736   1.925   9.765 -0.8951  0.3804 -1.0318
  177SOPE  C21020152   4.795   1.980   9.566 -0.5051  0.6416 -0.3403
  177SOPE  H10120153   4.710   1.931   9.517 -1.3081  0.5084  1.1807
  177SOPE  C21120154   4.900   2.048   9.466  0.4749 -0.1678 -0.4097
  177SOPE  H11R20155   4.976   2.121   9.502  0.4363 -1.1880  1.7999
  177SOPE  H11S20156   4.829   2.117   9.417  0.0886 -0.2880 -0.0239
  177SOPE  C21220157   4.941   1.953   9.362  0.3957  0.0114  0.9523
  177SOPE  H12R20158   4.853   1.900   9.320 -0.0040  0.5354  1.1234
  177SOPE  H12S20159   5.014   1.877   9.396 -0.1946 -0.8792  0.2273
  177SOPE  C21320160   5.000   2.021   9.238 -0.0132  0.5236 -0.2211
  177SOPE  H13R20161   5.095   2.074   9.262 -0.4098  0.6214  1.2400
  177SOPE  H13S20162   4.920   2.091   9.206  0.0314  0.3332 -0.7378
  177SOPE  C21420163   5.034   1.919   9.128  0.3992 -0.4403  0.0008
  177SOPE  H14R20164   4.955   1.842   9.116  0.3464 -0.4543  0.4272
  177SOPE  H14S20165   5.121   1.864   9.168  1.0309 -1.5706 -2.8695
  177SOPE  C21520166   5.071   1.986   8.991 -0.1400 -0.0915 -0.7021
  177SOPE  H15R20167   4.973   2.020   8.953 -1.7505 -2.3006  1.3241
  177SOPE  H15S20168   5.109   1.916   8.913 -2.8101  1.1822 -3.2341
  177SOPE  C21620169   5.174   2.103   8.996 -0.4607 -0.8941 -1.2153
  177SOPE  H16R20170   5.264   2.049   9.032 -1.9253 -0.9946  2.5225
  177SOPE  H16S20171   5.144   2.179   9.072  0.3783 -2.8367  1.1125
  177SOPE  C21720172   5.204   2.181   8.876 -0.3172  0.0696  0.0398
  177SOPE  H17R20173   5.117   2.233   8.831 -0.4458  0.2548  0.5045
  177SOPE  H17S20174   5.259   2.121   8.801 -1.4252 -0.4644 -0.3628
  177SOPE  C21820175   5.302   2.300   8.897 -0.6471  0.3061  0.3413
  177SOPE  H18R20176   5.290   2.381   8.822  0.1174  0.3455  0.2597
  177SOPE  H18S20177   5.404   2.257   8.894 -1.1052 -0.7398 -0.2420
  177SOPE  H18T20178   5.290   2.353   8.995  0.4631  0.1125  0.5917
  177SOPE   C3320179   4.519   1.292  10.313  0.2492 -0.2583 -0.2674
  177SOPE   H3X20180   4.435   1.221  10.299 -1.1240  1.2733  0.1229
  177SOPE   H3Y20181   4.618   1.242  10.305  0.4504  0.0231  0.4068
  177SOPE   C3420182   4.499   1.408  10.218  0.1915 -0.5920 -0.1180
  177SOPE   H4X20183   4.584   1.480  10.218 -0.6532  0.5356  4.1288
  177SOPE   H4Y20184   4.413   1.473  10.245  1.7855  0.9561  1.3115
  177SOPE   C3520185   4.496   1.366  10.072  0.1785 -0.2815 -0.0200
  177SOPE   H5X20186   4.391   1.344  10.043  0.5671  1.9111 -3.2943
  177SOPE   H5Y20187   4.562   1.278  10.058  1.2467  0.7966 -1.9826
  177SOPE   C3620188   4.540   1.485   9.985 -0.3336  0.1438  0.1575
  177SOPE   H6X20189   4.638   1.521  10.023  0.2082 -1.5141  0.3586
  177SOPE   H6Y20190   4.456   1.558   9.992 -0.9772 -0.7832  2.4761
  177SOPE   C3720191   4.544   1.450   9.838  0.3231 -0.1841 -0.1671
  177SOPE   H7X20192   4.470   1.371   9.811  0.4290  0.6304 -3.0004
  177SOPE   H7Y20193   4.644   1.402   9.833 -0.3483 -1.7747  1.1136
  177SOPE   C3820194   4.533   1.571   9.740 -0.2884 -0.0106  0.1894
  177SOPE   H8X20195   4.598   1.641   9.796 -1.9010  1.9350 -0.3194
  177SOPE   H8Y20196   4.428   1.605   9.743 -0.1855  0.6560 -2.6360
  177SOPE   C3920197   4.583   1.546   9.596  0.3506 -0.2370  0.3084
  177SOPE   H9X20198   4.500   1.496   9.542 -1.1655  1.2007  1.2717
  177SOPE   H9Y20199   4.672   1.480   9.605 -0.2535 -0.8639  2.0122
  177SOPE  C31020200   4.624   1.678   9.527  0.5790 -0.0044  0.2734
  177SOPE  H10X20201   4.711   1.716   9.585 -1.3037  3.7924  0.7790
  177SOPE  H10Y20202   4.544   1.755   9.537 -1.4559 -1.8470 -1.2334
  177SOPE  C31120203   4.662   1.660   9.376 -0.5272  0.4993 -0.1054
  177SOPE  H11X20204   4.706   1.559   9.361 -1.1685  0.1877  0.0756
  177SOPE  H11Y20205   4.726   1.748   9.358 -0.1684  0.8151  2.4954
  177SOPE  C31220206   4.530   1.663   9.289 -0.0725  0.1339 -0.1371
  177SOPE  H12X20207   4.487   1.764   9.304 -0.1304  0.1453 -0.3794
  177SOPE  H12Y20208   4.456   1.591   9.330  3.7592 -2.4432  2.6075
  177SOPE  C31320209   4.570   1.645   9.144 -0.5991 -0.6227  0.4941
  177SOPE  H13X20210   4.641   1.728   9.128 -1.1118  0.0376  1.6015
  177SOPE  H13Y20211   4.480   1.665   9.082 -0.5849  0.0241  0.6835
  177SOPE  C31420212   4.608   1.508   9.087  0.2337  0.2099  0.2118
  177SOPE  H14X20213   4.697   1.476   9.146  0.3278  0.3051  0.1171
  177SOPE  H14Y20214   4.641   1.508   8.981 -0.5525  0.0579 -0.0381
  177SOPE  C31520215   4.493   1.401   9.118  0.4296 -0.5615  0.7470
  177SOPE  H15X20216   4.453   1.407   9.221  1.2071  3.7879  0.8973
  177SOPE  H15Y20217   4.546   1.304   9.103 -0.1130 -0.7851  0.2543
  177SOPE  C31620218   4.360   1.418   9.039 -1.5801  0.2151 -0.0461
  177SOPE  H16X20219   4.306   1.504   9.084 -0.4084  1.6072 -1.2580
  177SOPE  H16Y20220   4.297   1.328   9.056  1.2025 -1.7358  0.1894
  177SOPE  C31720221   4.369   1.403   8.886 -0.9780  0.2759 -0.5238
  177SOPE  H17X20222   4.406   1.305   8.848  0.3492  0.6781 -0.2873
  177SOPE  H17Y20223   4.433   1.483   8.845  1.9546  0.0273  3.2223
  177SOPE  C31820224   4.237   1.442   8.816 -0.4601 -0.3432 -0.2406
  177SOPE  H18X20225   4.227   1.551   8.838 -1.5277  0.2389 -3.3469
  177SOPE  H18Y20226   4.155   1.390   8.870  0.1350  0.6079  1.6144
  177SOPE  H18Z20227   4.242   1.424   8.706 -1.2455  0.2366 -0.3772
  178SOPE     N20228   2.199   6.498  10.943  0.2122  0.1054 -0.1837
  178SOPE   HN120229   2.175   6.525  10.845  0.8783  0.8678 -0.1379
  178SOPE   HN220230   2.212   6.593  10.983 -4.5463  0.5498  0.6172
  178SOPE   HN320231   2.288   6.444  10.939 -0.0394 -0.2261 -1.4303
  178SOPE   C1220232   2.082   6.445  11.017 -0.3678  0.1365  0.9133
  178SOPE  H12A20233   2.010   6.529  11.024  1.2570  1.6063  0.3140
  178SOPE  H12B20234   2.122   6.407  11.113  1.5031  0.7265  0.3887
  178SOPE   C1120235   2.025   6.332  10.926  0.0261  0.0801 -0.0439
  178SOPE  H11A20236   1.944   6.289  10.990  0.2772 -0.3155  0.0073
  178SOPE  H11B20237   2.100   6.252  10.909 -0.5335 -0.2239 -1.0754
  178SOPE     P20238   1.863   6.292  10.730 -0.0073  0.6406 -0.6061
  178SOPE   O1320239   1.777   6.379  10.649 -0.4698 -0.3193 -0.0722
  178SOPE   O1420240   1.790   6.204  10.826 -0.2128 -0.1407 -0.7233
  178SOPE   O1220241   1.970   6.381  10.806  0.0359  0.4201  0.2481
  178SOPE   O1120242   1.949   6.206  10.633 -0.1879  0.1616 -0.0195
  178SOPE    C120243   2.089   6.230  10.613 -0.6111  0.0264  0.3244
  178SOPE    HA20244   2.141   6.132  10.620  2.4666  1.5519 -0.4200
  178SOPE    HB20245   2.132   6.300  10.687 -1.1224  0.4887  0.1879
  178SOPE    C220246   2.111   6.304  10.478  0.6988 -0.0847 -0.0535
  178SOPE    HS20247   2.027   6.376  10.475  0.0509 -0.8396 -0.4680
  178SOPE   O2120248   2.104   6.204  10.366  0.3965  0.5740 -0.2288
  178SOPE   C2120249   2.022   6.229  10.271  0.5852 -0.1929 -0.4530
  178SOPE   O2220250   1.934   6.316  10.272 -0.2165  0.2337 -0.3268
  178SOPE   C2220251   2.061   6.153  10.138 -0.0434  0.5420  0.1038
  178SOPE   H2R20252   2.006   6.204  10.057 -0.1528 -2.2032 -1.5991
  178SOPE   H2S20253   2.018   6.051  10.148  0.5611  0.3074  0.3910
  178SOPE    C320254   2.262   6.357  10.467 -0.0601 -0.0669 -0.0730
  178SOPE    HX20255   2.319   6.262  10.465  0.7323  0.3825  0.5766
  178SOPE    HY20256   2.290   6.414  10.559 -0.9413 -1.0175  0.7926
  178SOPE   O3120257   2.288   6.429  10.345 -0.1072  0.2075  0.6681
  178SOPE   C3120258   2.258   6.558  10.353 -0.4741  0.2333  0.0625
  178SOPE   O3220259   2.237   6.619  10.458 -0.1005 -0.5054  0.2615
  178SOPE   C3220260   2.248   6.615  10.213  0.0934 -0.2160 -0.2397
  178SOPE   H2X20261   2.281   6.720  10.207  0.4090 -0.4446 -3.1410
  178SOPE   H2Y20262   2.141   6.612  10.182  0.6145  0.3233 -2.1146
  178SOPE   C2320263   2.208   6.144  10.113  0.8248  0.3480 -0.4285
  178SOPE   H3R20264   2.270   6.084  10.183 -1.6361 -0.8765  0.7443
  178SOPE   H3S20265   2.246   6.249  10.121  0.9972  0.1583  1.6604
  178SOPE   C2420266   2.239   6.079   9.979  0.5123  0.0934  0.4712
  178SOPE   H4R20267   2.326   6.012   9.985  0.2535 -0.2584  0.3041
  178SOPE   H4S20268   2.147   6.027   9.945  0.8983 -0.9432  1.0347
  178SOPE   C2520269   2.278   6.185   9.878  0.2143  0.5020  0.0374
  178SOPE   H5R20270   2.215   6.276   9.889  0.1874  0.1896  2.8389
  178SOPE   H5S20271   2.381   6.211   9.912  0.0910  2.2061 -0.8008
  178SOPE   C2620272   2.282   6.130   9.736  0.4980 -0.1432 -0.5122
  178SOPE   H6R20273   2.356   6.047   9.737 -0.4590 -1.0058  0.3809
  178SOPE   H6S20274   2.181   6.099   9.701 -0.0888  0.7708  0.3440
  178SOPE   C2720275   2.333   6.232   9.635  0.3404  0.1418 -0.2155
  178SOPE   H7R20276   2.259   6.315   9.646  0.6011  0.3947 -0.3783
  178SOPE   H7S20277   2.438   6.269   9.634  0.4491 -0.1729 -0.4515
  178SOPE   C2820278   2.313   6.187   9.487  0.5622  0.4370 -0.1905
  178SOPE   H8R20279   2.208   6.154   9.474  0.5397  0.4346 -0.0128
  178SOPE   H8S20280   2.320   6.280   9.426 -1.7599  0.8655  0.1396
  178SOPE   C2920281   2.392   6.076   9.435  1.1249 -0.8798 -0.1142
  178SOPE   H9120282   2.396   5.990   9.504  0.4531 -2.3933 -1.9366
  178SOPE  C21020283   2.458   6.067   9.324  0.0499 -0.0042 -0.2209
  178SOPE  H10120284   2.507   5.971   9.301 -1.2072 -0.0978 -2.6926
  178SOPE  C21120285   2.474   6.165   9.217  1.4141  0.0751 -0.1167
  178SOPE  H11R20286   2.582   6.174   9.194  1.0911 -0.2573 -1.8362
  178SOPE  H11S20287   2.441   6.264   9.255 -0.8194 -0.2422 -1.1809
  178SOPE  C21220288   2.407   6.132   9.079 -0.1293 -0.1597 -0.3080
  178SOPE  H12R20289   2.428   6.211   9.004 -1.3096  0.0595 -0.4152
  178SOPE  H12S20290   2.298   6.144   9.097 -0.3526 -0.0980 -1.6606
  178SOPE  C21320291   2.439   5.992   9.032  0.3636 -0.2697 -0.0832
  178SOPE  H13R20292   2.386   5.913   9.089  1.7024 -2.8596 -2.2933
  178SOPE  H13S20293   2.549   5.978   9.039  1.0557  4.1205 -0.8888
  178SOPE  C21420294   2.418   5.984   8.882 -0.2805  0.4608 -0.0202
  178SOPE  H14R20295   2.465   5.890   8.847 -1.5387 -0.9272  1.9227
  178SOPE  H14S20296   2.474   6.064   8.829  0.5227 -1.0361 -1.4947
  178SOPE  C21520297   2.268   5.982   8.845 -0.8052  0.0666  0.2023
  178SOPE  H15R20298   2.220   6.068   8.896 -0.2225  0.0867  0.7281
  178SOPE  H15S20299   2.219   5.894   8.894  1.3624  0.2434  2.7962
  178SOPE  C21620300   2.260   5.990   8.687  0.4262 -0.7791 -0.5547
  178SOPE  H16R20301   2.315   5.903   8.645 -0.4081 -1.4621 -0.2583
  178SOPE  H16S20302   2.302   6.088   8.655 -0.1428 -0.9431 -1.8221
  178SOPE  C21720303   2.114   5.995   8.632  0.3912 -0.3264  0.5113
  178SOPE  H17R20304   2.112   6.029   8.526 -1.2848 -2.6335 -0.2653
  178SOPE  H17S20305   2.056   6.069   8.691 -0.6716 -0.1996 -0.6579
  178SOPE  C21820306   2.042   5.862   8.639 -0.4503 -0.0316 -0.2405
  178SOPE  H18R20307   1.998   5.849   8.740  1.8435  0.5774  0.8700
  178SOPE  H18S20308   2.117   5.786   8.610 -0.3943  0.1471 -0.5793
  178SOPE  H18T20309   1.962   5.855   8.562 -0.0883  0.8984 -0.7103
  178SOPE   C3320310   2.313   6.538  10.096 -0.5713 -0.4752  0.4610
  178SOPE   H3X20311   2.337   6.429  10.095 -1.1074 -0.5983 -1.7388
  178SOPE   H3Y20312   2.409   6.593  10.086 -0.3106 -0.9836  0.1372
  178SOPE   C3420313   2.246   6.572   9.964 -0.2000 -0.1946  0.6963
  178SOPE   H4X20314   2.215   6.678   9.954 -0.1429 -0.0887  1.6216
  178SOPE   H4Y20315   2.161   6.503   9.946 -0.7526  0.9259 -1.2038
  178SOPE   C3520316   2.340   6.555   9.835  0.6682 -0.2859  0.1775
  178SOPE   H5X20317   2.393   6.458   9.831 -1.5714 -1.6871  3.0483
  178SOPE   H5Y20318   2.423   6.629   9.835 -0.0423  0.5460  1.5353
  178SOPE   C3620319   2.258   6.574   9.708  0.7515  0.3371  0.3863
  178SOPE   H6X20320   2.196   6.665   9.717 -1.9243 -1.3933  0.1663
  178SOPE   H6Y20321   2.188   6.488   9.699 -0.7391  1.4550  1.1254
  178SOPE   C3720322   2.362   6.583   9.593  0.6114 -0.2480 -0.5507
  178SOPE   H7X20323   2.424   6.491   9.602 -0.0885 -0.5172  1.6376
  178SOPE   H7Y20324   2.414   6.678   9.618 -2.0643  0.4199  2.8846
  178SOPE   C3820325   2.306   6.604   9.453  0.4667  0.8989 -0.7191
  178SOPE   H8X20326   2.233   6.688   9.450  0.1165  0.7563  2.4319
  178SOPE   H8Y20327   2.248   6.513   9.425  0.6396 -0.0255  1.7743
  178SOPE   C3920328   2.420   6.618   9.346 -0.1628 -0.3319  0.0770
  178SOPE   H9X20329   2.486   6.529   9.342  0.3759  0.1171 -1.6009
  178SOPE   H9Y20330   2.493   6.693   9.383 -1.4748  0.7164  0.5703
  178SOPE  C31020331   2.364   6.655   9.218  0.7009 -0.4088 -0.1367
  178SOPE  H10X20332   2.308   6.751   9.208 -1.0299 -1.1718  1.8750
  178SOPE  H10Y20333   2.288   6.580   9.187 -0.2096 -0.5574  2.3697
  178SOPE  C31120334   2.478   6.640   9.113 -0.0198 -0.0689  0.6172
  178SOPE  H11X20335   2.522   6.538   9.121 -0.3300 -0.1341  1.6918
  178SOPE  H11Y20336   2.564   6.709   9.130  0.2478  0.4331 -2.5625
  178SOPE  C31220337   2.428   6.653   8.967  0.1469  0.2729 -0.3076
  178SOPE  H12X20338   2.377   6.749   8.947 -0.7459 -0.2843 -0.7181
  178SOPE  H12Y20339   2.344   6.581   8.958  0.4733 -0.5571  2.8823
  178SOPE  C31320340   2.534   6.631   8.867 -0.3637 -0.2512  0.3101
  178SOPE  H13X20341   2.564   6.526   8.885  1.6253 -0.5428 -3.9136
  178SOPE  H13Y20342   2.619   6.699   8.889  0.3327 -0.7012 -0.9108
  178SOPE  C31420343   2.506   6.647   8.717 -0.5880  0.3497 -0.4153
  178SOPE  H14X20344   2.414   6.588   8.697  0.8256 -0.8810 -3.6542
  178SOPE  H14Y20345   2.595   6.614   8.659  0.2477  2.2151 -0.2334
  178SOPE  C31520346   2.457   6.786   8.682  0.0192  0.3198  0.4881
  178SOPE  H15X20347   2.520   6.864   8.730 -0.0129  0.7933 -0.2241
  178SOPE  H15Y20348   2.350   6.789   8.712 -0.2166 -0.7914 -0.2357
  178SOPE  C31620349   2.465   6.809   8.534 -0.0551 -0.3293 -0.0098
  178SOPE  H16X20350   2.413   6.724   8.484 -1.0056  0.1790  0.0950
  178SOPE  H16Y20351   2.575   6.811   8.519  0.1347  0.6815  1.3855
  178SOPE  C31720352   2.401   6.938   8.476 -0.0520  0.0634  0.2773
  178SOPE  H17X20353   2.426   7.024   8.543 -0.1555 -0.1499  0.5912
  178SOPE  H17Y20354   2.292   6.928   8.461 -0.5131  1.2955  2.5574
  178SOPE  C31820355   2.456   6.971   8.336  0.1970  0.0367 -0.2868
  178SOPE  H18X20356   2.435   6.879   8.276  0.2349 -0.5670  0.6184
  178SOPE  H18Y20357   2.566   6.990   8.341  0.1612 -0.0813  0.9723
  178SOPE  H18Z20358   2.397   7.053   8.290 -0.0869 -0.0246 -0.0304
  179SOPE     N20359   0.020   1.238   6.357 -0.5226  0.4334  0.2889
  179SOPE   HN120360  -0.035   1.173   6.297  0.5037  0.9200 -1.2188
  179SOPE   HN220361   0.023   1.335   6.320  0.8911 -0.0054 -0.7786
  179SOPE   HN320362   0.117   1.201   6.353 -0.4377  0.5265  1.4657
  179SOPE   C1220363  -0.036   1.239   6.502 -0.0434  0.8630  0.0432
  179SOPE  H12A20364  -0.031   1.134   6.537 -0.7812  0.5696 -0.7209
  179SOPE  H12B20365  -0.139   1.279   6.492  0.1172  1.6303  1.2594
  179SOPE   C1120366   0.048   1.324   6.598  0.0498  0.1175 -1.0853
  179SOPE  H11A20367   0.150   1.283   6.610 -0.5788 -0.9411  0.8719
  179SOPE  H11B20368  -0.002   1.329   6.697  2.3095  0.2867  0.0686
  179SOPE     P20369  -0.032   1.578   6.574  0.4595 -0.0953 -0.0252
  179SOPE   O1320370  -0.177   1.541   6.560  0.0090  0.2727  0.3443
  179SOPE   O1420371   0.015   1.695   6.496  0.2355  0.2114 -0.2652
  179SOPE   O1220372   0.053   1.451   6.535  0.3518 -0.0952 -0.3715
  179SOPE   O1120373   0.004   1.595   6.725  0.0533 -0.5212 -0.2602
  179SOPE    C120374   0.135   1.657   6.762  0.0454  0.1182 -0.1964
  179SOPE    HA20375   0.159   1.747   6.702 -1.8637  1.1241  0.4854
  179SOPE    HB20376   0.214   1.588   6.726  0.9226  1.2694 -0.5068
  179SOPE    C220377   0.152   1.694   6.912  0.2231 -0.6462  0.2934
  179SOPE    HS20378   0.252   1.739   6.929 -0.1343  0.0723  0.4861
  179SOPE   O2120379   0.136   1.573   6.991  0.0779 -0.2303 -0.2345
  179SOPE   C2120380   0.232   1.476   6.967 -0.4392 -0.0961  0.3314
  179SOPE   O2220381   0.338   1.496   6.910  0.4298 -0.1762  0.3482
  179SOPE   C2220382   0.168   1.341   6.995 -0.4628 -0.1129  0.7943
  179SOPE   H2R20383   0.242   1.264   6.965 -0.7716 -0.5841  1.2263
  179SOPE   H2S20384   0.078   1.310   6.939  0.0033 -2.1192  1.1330
  179SOPE    C320385   0.048   1.794   6.948 -0.5781 -0.4903 -0.1303
  179SOPE    HX20386  -0.050   1.759   6.909 -0.4345  2.1484 -3.0843
  179SOPE    HY20387   0.065   1.892   6.898  0.1048  0.3470  1.6709
  179SOPE   O3120388   0.046   1.806   7.098 -0.0481 -0.3723 -0.0732
  179SOPE   C3120389  -0.032   1.725   7.164  0.8586 -0.2428  0.1308
  179SOPE   O3220390  -0.103   1.638   7.113 -0.3737  0.4618  0.3786
  179SOPE   C3220391  -0.036   1.779   7.302 -0.3100 -0.3338 -0.1645
  179SOPE   H2X20392  -0.100   1.870   7.308 -1.3045 -1.0314  0.0125
  179SOPE   H2Y20393   0.063   1.811   7.339 -0.8728  1.5437 -0.2246
  179SOPE   C2320394   0.144   1.311   7.145  0.0732 -0.2985  0.1725
  179SOPE   H3R20395   0.095   1.212   7.157  0.6963 -0.6225  0.0511
  179SOPE   H3S20396   0.065   1.385   7.170 -0.7717 -1.1562  0.0878
  179SOPE   C2420397   0.267   1.319   7.243 -0.2887  0.5236  0.2828
  179SOPE   H4R20398   0.325   1.226   7.227  1.4706  1.7969 -0.9897
  179SOPE   H4S20399   0.319   1.417   7.229  0.9429 -0.2907 -0.9906
  179SOPE   C2520400   0.209   1.310   7.385 -0.1496 -0.3084  0.5967
  179SOPE   H5R20401   0.154   1.405   7.401 -0.5885  0.1794 -3.2621
  179SOPE   H5S20402   0.125   1.238   7.394  1.2413 -2.1892 -0.7281
  179SOPE   C2620403   0.313   1.289   7.497  0.3227  0.6977 -0.2601
  179SOPE   H6R20404   0.355   1.189   7.476 -1.3191  0.0761 -0.6385
  179SOPE   H6S20405   0.395   1.365   7.493  3.2790 -2.3953 -0.5054
  179SOPE   C2720406   0.247   1.298   7.635  0.4013 -0.3058 -0.3882
  179SOPE   H7R20407   0.193   1.395   7.631 -1.3680 -1.1863  1.8686
  179SOPE   H7S20408   0.166   1.223   7.647 -0.1401  0.3247 -0.0480
  179SOPE   C2820409   0.335   1.286   7.762  0.2388 -0.3814  0.0346
  179SOPE   H8R20410   0.416   1.361   7.758  1.1679 -1.4592 -2.1574
  179SOPE   H8S20411   0.262   1.311   7.842  1.1569  3.5014 -0.2727
  179SOPE   C2920412   0.388   1.146   7.764  0.9167 -0.1581 -0.3495
  179SOPE   H9120413   0.447   1.127   7.673  1.9526  1.3882 -0.0172
  179SOPE  C21020414   0.350   1.046   7.852  0.4270 -0.1723 -0.4995
  179SOPE  H10120415   0.381   0.941   7.836 -4.6735 -1.5141 -2.6560
  179SOPE  C21120416   0.256   1.063   7.971  0.3898 -0.4000  0.2885
  179SOPE  H11R20417   0.152   1.048   7.933  1.1248 -2.3048 -1.0255
  179SOPE  H11S20418   0.251   1.165   8.015  0.5919  0.4795 -1.6901
  179SOPE  C21220419   0.301   0.977   8.083  0.4893  0.1251  0.1084
  179SOPE  H12R20420   0.398   1.019   8.116  0.1395  2.2736 -1.5003
  179SOPE  H12S20421   0.318   0.875   8.041 -0.3608 -0.3924  0.9810
  179SOPE  C21320422   0.209   0.967   8.203 -0.1447  0.4499 -0.2147
  179SOPE  H13R20423   0.243   0.894   8.280  0.1194 -2.0250 -2.6256
  179SOPE  H13S20424   0.112   0.921   8.175 -0.7901  0.6923  1.5714
  179SOPE  C21420425   0.159   1.099   8.267 -0.2572  0.3505  0.2340
  179SOPE  H14R20426   0.075   1.089   8.339 -1.1748 -1.4989 -1.0650
  179SOPE  H14S20427   0.128   1.168   8.186  0.0275  1.3766  0.9934
  179SOPE  C21520428   0.278   1.172   8.339 -1.2568  0.3314 -0.4840
  179SOPE  H15R20429   0.355   1.213   8.271 -1.4191  0.9615 -0.2879
  179SOPE  H15S20430   0.336   1.091   8.388  1.1056  0.5957 -2.7390
  179SOPE  C21620431   0.244   1.284   8.452  0.4120 -0.0281 -0.6845
  179SOPE  H16R20432   0.160   1.250   8.517  0.0456  2.8969  0.4478
  179SOPE  H16S20433   0.202   1.371   8.397  3.2732  2.3730  0.7967
  179SOPE  C21720434   0.370   1.309   8.534 -0.5975 -0.3513 -0.4137
  179SOPE  H17R20435   0.452   1.343   8.467  0.6906  3.3148  2.7895
  179SOPE  H17S20436   0.402   1.212   8.576  1.1173  0.6580  0.7149
  179SOPE  C21820437   0.361   1.414   8.649 -0.0729  0.6028  0.3983
  179SOPE  H18R20438   0.267   1.386   8.701  0.7992  1.0782  2.2854
  179SOPE  H18S20439   0.345   1.512   8.599  0.9194  0.4227 -0.2727
  179SOPE  H18T20440   0.453   1.423   8.710  0.6488 -0.7442 -0.4805
  179SOPE   C3320441  -0.092   1.671   7.408  0.9176 -0.0661 -0.1908
  179SOPE   H3X20442  -0.104   1.566   7.374  0.2526  0.0726 -0.3822
  179SOPE   H3Y20443  -0.195   1.705   7.433  1.4746  1.6420 -0.2010
  179SOPE   C3420444  -0.021   1.669   7.548  0.0093 -0.3829 -0.6975
  179SOPE   H4X20445   0.012   1.772   7.572 -1.4510  0.2356 -1.2583
  179SOPE   H4Y20446   0.078   1.619   7.537  0.5949  0.7045 -0.3477
  179SOPE   C3520447  -0.103   1.607   7.660 -0.3996 -0.1979 -0.1885
  179SOPE   H5X20448  -0.128   1.500   7.643 -0.7649 -0.1896  0.2829
  179SOPE   H5Y20449  -0.198   1.663   7.677  0.0198  0.5961 -0.4355
  179SOPE   C3620450  -0.031   1.609   7.798 -0.6087  0.3911 -0.5205
  179SOPE   H6X20451   0.077   1.595   7.780 -0.5937 -0.8862  0.4851
  179SOPE   H6Y20452  -0.067   1.528   7.865 -2.9800  0.7499 -1.3170
  179SOPE   C3720453  -0.047   1.747   7.872 -0.1820  0.2208  0.1092
  179SOPE   H7X20454  -0.145   1.741   7.923  0.2611 -0.2954  0.9176
  179SOPE   H7Y20455  -0.041   1.835   7.805  0.6329  0.7738  0.9056
  179SOPE   C3820456   0.066   1.771   7.979  0.0918  0.4148  0.6639
  179SOPE   H8X20457   0.036   1.868   8.022  1.0806  1.3697 -0.7612
  179SOPE   H8Y20458   0.156   1.778   7.914  0.7098  0.2897  1.5029
  179SOPE   C3920459   0.090   1.649   8.070  0.5187  0.8358 -0.0475
  179SOPE   H9X20460   0.109   1.561   8.005  1.5919  2.1877 -1.6282
  179SOPE   H9Y20461  -0.010   1.626   8.113  0.3546 -1.9697 -1.7889
  179SOPE  C31020462   0.201   1.664   8.180  0.3506  0.2663 -0.9866
  179SOPE  H10X20463   0.297   1.710   8.148  1.0185 -0.1654  0.3459
  179SOPE  H10Y20464   0.220   1.564   8.225  2.0822  0.7959 -0.4888
  179SOPE  C31120465   0.149   1.759   8.293 -0.0472 -0.3256  0.0327
  179SOPE  H11X20466   0.059   1.710   8.334 -0.8595  0.9571 -0.1966
  179SOPE  H11Y20467   0.128   1.858   8.247 -1.8598 -0.6395  0.1592
  179SOPE  C31220468   0.245   1.782   8.417 -0.3827  0.5569 -0.2585
  179SOPE  H12X20469   0.339   1.826   8.377 -0.3251 -1.9188 -3.0500
  179SOPE  H12Y20470   0.272   1.681   8.454  0.0418  0.3754 -1.0392
  179SOPE  C31320471   0.173   1.869   8.519  0.3354  0.2949  0.1739
  179SOPE  H13X20472   0.080   1.814   8.544  0.0060  0.7824  0.0197
  179SOPE  H13Y20473   0.137   1.963   8.472 -0.5206 -1.0872 -2.0558
  179SOPE  C31420474   0.272   1.900   8.642 -0.0790 -0.5318  0.0611
  179SOPE  H14X20475   0.225   1.983   8.700 -3.1912 -0.9239 -1.8033
  179SOPE  H14Y20476   0.366   1.940   8.598 -0.0028 -0.3131  0.4130
  179SOPE  C31520477   0.326   1.775   8.723  0.1598 -0.6988  0.7119
  179SOPE  H15X20478   0.387   1.707   8.660 -0.3500 -1.3711  0.9345
  179SOPE  H15Y20479   0.234   1.718   8.751 -2.4122  2.3485 -1.1455
  179SOPE  C31620480   0.390   1.814   8.860  0.6614 -0.1614 -0.6206
  179SOPE  H16X20481   0.309   1.867   8.915  0.8720  0.2257 -0.6782
  179SOPE  H16Y20482   0.468   1.893   8.849  0.2747  0.3621  0.3285
  179SOPE  C31720483   0.459   1.697   8.935  0.4381 -1.0314  0.3632
  179SOPE  H17X20484   0.537   1.660   8.866  0.0349 -0.0003 -0.6595
  179SOPE  H17Y20485   0.389   1.613   8.953 -0.5061 -0.5073 -0.7720
  179SOPE  C31820486   0.529   1.733   9.068 -0.6453  0.5900  0.8262
  179SOPE  H18X20487   0.601   1.652   9.093 -0.1553  1.0833  1.0157
  179SOPE  H18Y20488   0.453   1.744   9.148  0.0958  0.6772  1.5246
  179SOPE  H18Z20489   0.595   1.822   9.070 -0.1052  0.2370 -0.6444
  180SOPE     N20490   5.310   0.982   5.906 -0.1506  0.0264  0.1072
  180SOPE   HN120491   5.289   0.915   5.983 -0.4048  0.0397  0.0464
  180SOPE   HN220492   5.243   1.061   5.901 -0.4333 -0.2206 -0.0150
  180SOPE   HN320493   5.294   0.922   5.823 -0.0288  0.8416 -0.5074
  180SOPE   C1220494   5.455   1.032   5.912  0.0940 -0.2774 -0.3898
  180SOPE  H12A20495   5.467   1.091   5.819 -0.0061  2.8370  1.4936
  180SOPE  H12B20496   5.521   0.943   5.903 -1.0147 -1.0598 -0.8160
  180SOPE   C1120497   5.483   1.107   6.041 -0.0079 -0.1767 -0.9000
  180SOPE  H11A20498   5.420   1.198   6.048  0.0139 -0.2546  0.4043
  180SOPE  H11B20499   5.588   1.142   6.037  0.3082 -1.0814 -0.6255
  180SOPE     P20500   5.550   0.953   6.246 -0.0895  0.3472 -0.2397
  180SOPE   O1320501   5.691   0.970   6.198 -0.2615 -0.0930  0.0778
  180SOPE   O1420502   5.505   0.813   6.246  0.5320 -0.0413  0.0058
  180SOPE   O1220503   5.448   1.026   6.159 -0.2848 -1.1019 -1.0200
  180SOPE   O1120504   5.537   1.020   6.390 -0.7426 -0.2039  0.1661
  180SOPE    C120505   5.452   1.135   6.403  0.3901  0.2681  0.3567
  180SOPE    HA20506   5.346   1.115   6.380  0.1450  1.1640  0.6929
  180SOPE    HB20507   5.467   1.218   6.331 -0.0989 -1.3547 -1.6856
  180SOPE    C220508   5.466   1.194   6.543  0.1678  0.3371 -0.6943
  180SOPE    HS20509   5.377   1.262   6.546  0.8497  1.1994  0.3018
  180SOPE   O2120510   5.585   1.268   6.539 -0.4876  0.2834  0.3700
  180SOPE   C2120511   5.590   1.370   6.625  0.1967  0.5600  0.2610
  180SOPE   O2220512   5.498   1.408   6.693 -0.1797  0.6773 -0.1063
  180SOPE   C2220513   5.732   1.436   6.633 -0.0329  0.4565  0.3059
  180SOPE   H2R20514   5.756   1.515   6.558  1.5352 -0.3984 -0.1125
  180SOPE   H2S20515   5.815   1.364   6.622 -0.0414  0.7155 -1.8435
  180SOPE    C320516   5.465   1.084   6.658  0.0906 -0.8022 -0.0539
  180SOPE    HX20517   5.556   1.030   6.625 -1.0962 -2.8975  0.0355
  180SOPE    HY20518   5.374   1.021   6.660  0.4718 -1.4397 -2.1502
  180SOPE   O3120519   5.495   1.132   6.790 -0.4113  0.4498  0.5244
  180SOPE   C3120520   5.385   1.170   6.856 -0.5193 -0.0324 -1.6147
  180SOPE   O3220521   5.271   1.136   6.827  0.5144 -0.3939 -0.6742
  180SOPE   C3220522   5.412   1.253   6.982 -0.3871  0.5587 -0.6703
  180SOPE   H2X20523   5.346   1.342   6.976 -0.3050  0.7298  0.8017
  180SOPE   H2Y20524   5.519   1.282   6.986  0.7689 -3.5892  1.1034
  180SOPE   C2320525   5.759   1.511   6.764 -0.8776  0.5629  0.4498
  180SOPE   H3R20526   5.682   1.587   6.791 -0.5073  2.1524 -2.6596
  180SOPE   H3S20527   5.855   1.568   6.757  0.0015 -0.7010  2.0745
  180SOPE   C2420528   5.779   1.412   6.877 -0.5993  0.0713  0.3476
  180SOPE   H4R20529   5.691   1.345   6.884 -1.0085  0.4007 -1.3983
  180SOPE   H4S20530   5.857   1.339   6.847 -1.0180 -0.0697 -0.4098
  180SOPE   C2520531   5.832   1.482   7.000  0.3247 -0.0805  0.7944
  180SOPE   H5R20532   5.928   1.529   6.967  0.3982 -0.4045  0.5445
  180SOPE   H5S20533   5.751   1.553   7.029 -0.7765 -1.0754  0.1749
  180SOPE   C2620534   5.857   1.387   7.113  0.2465 -0.0790  0.7528
  180SOPE   H6R20535   5.769   1.355   7.172 -1.8342 -0.4467 -2.4755
  180SOPE   H6S20536   5.909   1.295   7.079  0.4272  0.4700 -0.4966
  180SOPE   C2720537   5.940   1.456   7.211  0.7586 -0.8073 -0.6550
  180SOPE   H7R20538   6.041   1.469   7.167  0.8651 -1.6018 -0.6483
  180SOPE   H7S20539   5.905   1.560   7.230  3.2269  0.1883 -1.3251
  180SOPE   C2820540   5.957   1.382   7.343  0.0841 -0.0544  0.1070
  180SOPE   H8R20541   5.994   1.466   7.405 -1.1843  0.0264  0.7839
  180SOPE   H8S20542   5.856   1.355   7.382  0.5576  0.2087  1.5481
  180SOPE   C2920543   6.042   1.259   7.358  0.0621  0.6883  0.8605
  180SOPE   H9120544   6.087   1.225   7.264 -0.4698  0.5037  0.6738
  180SOPE  C21020545   6.066   1.184   7.464 -0.5171  0.2073  0.1846
  180SOPE  H10120546   6.137   1.102   7.448 -0.6466  0.2462 -0.5813
  180SOPE  C21120547   6.007   1.195   7.603  0.0520 -0.4350 -0.7819
  180SOPE  H11R20548   5.901   1.162   7.608  0.5415 -1.7632  1.4667
  180SOPE  H11S20549   6.011   1.302   7.631  0.1113 -0.0842 -2.1092
  180SOPE  C21220550   6.091   1.114   7.704 -0.5183  0.3668 -0.6495
  180SOPE  H12R20551   6.200   1.132   7.688 -0.6470  0.5321 -1.3539
  180SOPE  H12S20552   6.077   1.005   7.685 -2.6720  0.6970 -1.0877
  180SOPE  C21320553   6.040   1.154   7.844 -0.2766  0.7356  0.0483
  180SOPE  H13R20554   5.929   1.149   7.845 -0.2449 -0.4973  2.4562
  180SOPE  H13S20555   6.084   1.254   7.863 -0.8854  0.5303  2.8102
  180SOPE  C21420556   6.097   1.059   7.954  0.5065  0.0794  0.3500
  180SOPE  H14R20557   6.203   1.033   7.936  1.1644  2.9460 -0.2544
  180SOPE  H14S20558   6.037   0.967   7.966  0.1048  0.5189  1.7358
  180SOPE  C21520559   6.108   1.131   8.096  0.0907 -0.4274  0.4424
  180SOPE  H15R20560   6.013   1.182   8.124 -0.5269 -2.1175  1.4991
  180SOPE  H15S20561   6.181   1.215   8.104  0.1017 -0.3553 -0.4018
  180SOPE  C21620562   6.160   1.036   8.204  0.0548 -0.1876 -0.4059
  180SOPE  H16R20563   6.186   1.088   8.298 -1.0246  0.4019 -0.4212
  180SOPE  H16S20564   6.250   0.978   8.175 -1.4091 -2.3504 -0.7537
  180SOPE  C21720565   6.053   0.936   8.249 -0.1216  0.0502 -0.8210
  180SOPE  H17R20566   6.090   0.871   8.331 -1.8041 -0.8611 -0.7622
  180SOPE  H17S20567   6.041   0.875   8.157  2.3773 -0.1393 -1.0543
  180SOPE  C21820568   5.922   0.998   8.290  0.3599  0.0692  0.1923
  180SOPE  H18R20569   5.932   1.087   8.356 -2.2688 -0.8473  1.9212
  180SOPE  H18S20570   5.861   0.927   8.351 -0.0781 -0.1613 -0.5082
  180SOPE  H18T20571   5.855   1.029   8.207 -0.1788 -0.4870  0.4111
  180SOPE   C3320572   5.382   1.192   7.125 -0.2135  0.1680 -0.1430
  180SOPE   H3X20573   5.447   1.104   7.140  3.1652  2.2654 -1.9300
  180SOPE   H3Y20574   5.275   1.160   7.129  0.0900 -0.5736  2.2577
  180SOPE   C3420575   5.406   1.294   7.231  0.0098 -0.0531  0.2856
  180SOPE   H4X20576   5.334   1.379   7.223 -1.7097 -1.5479 -0.3480
  180SOPE   H4Y20577   5.509   1.336   7.227 -0.7572  1.9932  1.2830
  180SOPE   C3520578   5.394   1.219   7.371  0.3144 -1.0984  0.7232
  180SOPE   H5X20579   5.445   1.120   7.369 -0.2070 -1.3669  0.5992
  180SOPE   H5Y20580   5.285   1.202   7.388 -0.1103  0.6550 -0.1245
  180SOPE   C3620581   5.430   1.317   7.486 -0.1228  0.2873 -0.8240
  180SOPE   H6X20582   5.397   1.270   7.581  2.4470  1.0698  0.4965
  180SOPE   H6Y20583   5.379   1.415   7.474  0.7795  1.2769  2.9036
  180SOPE   C3720584   5.582   1.351   7.486 -0.1365 -0.3882 -0.2352
  180SOPE   H7X20585   5.612   1.430   7.414  1.0276 -1.2203 -0.6832
  180SOPE   H7Y20586   5.644   1.267   7.448  1.1986  0.3027  0.4053
  180SOPE   C3820587   5.635   1.371   7.631  0.1055  0.4795 -0.4332
  180SOPE   H8X20588   5.746   1.383   7.625  0.1199  0.0472 -1.1531
  180SOPE   H8Y20589   5.616   1.284   7.697 -0.4432  0.5053 -0.5575
  180SOPE   C3920590   5.581   1.500   7.695 -0.2368 -0.9474 -0.5798
  180SOPE   H9X20591   5.471   1.510   7.697 -0.0139  1.8321  0.0445
  180SOPE   H9Y20592   5.611   1.585   7.631  0.7647 -0.9322 -0.1012
  180SOPE  C31020593   5.626   1.528   7.840  0.5373 -0.1983  0.7896
  180SOPE  H10X20594   5.555   1.471   7.904 -1.3375  0.1169 -0.9409
  180SOPE  H10Y20595   5.609   1.636   7.859 -0.2675 -0.0918 -0.4839
  180SOPE  C31120596   5.760   1.477   7.885  0.5238  0.2494 -0.5980
  180SOPE  H11X20597   5.832   1.526   7.816  0.4901 -0.1294 -0.9064
  180SOPE  H11Y20598   5.768   1.367   7.890  2.6773  0.1503 -4.2839
  180SOPE  C31220599   5.790   1.531   8.020 -1.0529 -0.0708  0.0206
  180SOPE  H12X20600   5.721   1.473   8.085  1.2692 -1.8190  0.9909
  180SOPE  H12Y20601   5.752   1.636   8.024  0.8869  0.6460  0.0721
  180SOPE  C31320602   5.928   1.504   8.086  0.5455 -0.7579 -0.4500
  180SOPE  H13X20603   5.996   1.559   8.017  0.6024  0.3187  0.4642
  180SOPE  H13Y20604   5.954   1.399   8.060 -0.2309 -1.1986  0.5367
  180SOPE  C31420605   5.945   1.530   8.234 -0.4193 -0.7154 -0.6197
  180SOPE  H14X20606   6.039   1.494   8.281 -0.0397  0.1511 -0.7147
  180SOPE  H14Y20607   5.862   1.482   8.289 -0.0296  0.2160  0.8072
  180SOPE  C31520608   5.927   1.676   8.268 -0.6010  0.4619 -0.1533
  180SOPE  H15X20609   5.826   1.711   8.238 -1.4368 -2.0074 -0.3699
  180SOPE  H15Y20610   6.001   1.727   8.204 -1.1808 -0.8562 -1.9109
  180SOPE  C31620611   5.952   1.721   8.419 -0.3928  0.5926 -0.6698
  180SOPE  H16X20612   6.040   1.666   8.460 -0.0420  1.6613  0.0094
  180SOPE  H16Y20613   5.854   1.706   8.470 -1.0033  1.0201 -1.7081
  180SOPE  C31720614   5.992   1.873   8.433  0.1928 -0.0129 -0.2719
  180SOPE  H17X20615   5.909   1.942   8.405 -2.9096 -3.5402 -0.2854
  180SOPE  H17Y20616   6.075   1.890   8.361  0.4178 -1.1267 -0.2802
  180SOPE  C31820617   6.014   1.914   8.579  0.0563  0.4347  0.2069
  180SOPE  H18X20618   6.030   2.024   8.580  0.4128  0.3892  1.9892
  180SOPE  H18Y20619   6.101   1.860   8.622  1.1560  2.5660  0.7254
  180SOPE  H18Z20620   5.932   1.879   8.645  0.7430  1.4484  1.6341
  181SOPE     N20621   5.968   5.245   5.955  0.2058 -0.0310  0.0930
  181SOPE   HN120622   5.892   5.191   6.001  0.0359 -0.1137 -0.2855
  181SOPE   HN220623   6.005   5.203   5.867  1.7177  1.9285 -0.2533
  181SOPE   HN320624   6.041   5.231   6.027 -0.8519  1.7356  1.5618
  181SOPE   C1220625   5.936   5.388   5.939  0.2636 -0.0617 -0.5185
  181SOPE  H12A20626   5.883   5.426   6.029  0.8693 -0.9358  0.2065
  181SOPE  H12B20627   5.861   5.401   5.857 -0.8803  1.7570  0.7562
  181SOPE   C1120628   6.066   5.466   5.904  0.3791 -0.1828 -0.2851
  181SOPE  H11A20629   6.031   5.569   5.880  1.2621 -0.1172 -1.3023
  181SOPE  H11B20630   6.110   5.423   5.812 -0.2466 -0.2536 -0.5527
  181SOPE     P20631   6.127   5.566   6.139  0.0752  0.2230 -0.3467
  181SOPE   O1320632   6.054   5.689   6.098  0.3785 -0.0527 -0.2056
  181SOPE   O1420633   6.257   5.596   6.197 -0.4218  0.4690 -0.2118
  181SOPE   O1220634   6.154   5.470   6.012 -0.0737 -0.3436 -0.2397
  181SOPE   O1120635   6.047   5.473   6.239  0.2302 -0.4356 -0.2247
  181SOPE    C120636   5.929   5.529   6.314 -0.6606  0.6667  0.0004
  181SOPE    HA20637   5.842   5.535   6.246  0.6544  0.9118 -1.7058
  181SOPE    HB20638   5.952   5.632   6.352 -0.4049  1.8829 -3.3127
  181SOPE    C220639   5.909   5.446   6.444 -0.1681  0.2503  0.0968
  181SOPE    HS20640   5.909   5.340   6.412  1.5119  0.3917 -0.4088
  181SOPE   O2120641   5.790   5.491   6.511 -0.5563 -0.1279 -0.8030
  181SOPE   C2120642   5.683   5.413   6.502  0.3235 -0.4098  0.6665
  181SOPE   O2220643   5.662   5.336   6.411  0.3073 -0.1150 -0.4971
  181SOPE   C2220644   5.589   5.447   6.619  0.1759  0.1766 -0.6288
  181SOPE   H2R20645   5.483   5.468   6.593  0.6067  1.3914 -1.4618
  181SOPE   H2S20646   5.630   5.536   6.671 -1.3537 -0.4000  1.6323
  181SOPE    C320647   6.029   5.465   6.543  0.1418  0.0323  0.3062
  181SOPE    HX20648   6.040   5.573   6.567  1.3599  0.4092 -1.7583
  181SOPE    HY20649   6.118   5.434   6.484  1.0462 -1.3405  2.3340
  181SOPE   O3120650   6.028   5.375   6.656 -0.5416 -0.7011 -0.0507
  181SOPE   C3120651   6.137   5.379   6.723 -0.6863 -0.1594 -0.0570
  181SOPE   O3220652   6.227   5.457   6.706 -0.0459 -0.3580 -0.2685
  181SOPE   C3220653   6.129   5.279   6.838  0.0630 -0.4065  0.1103
  181SOPE   H2X20654   6.150   5.174   6.807  2.0403 -0.9812  3.0433
  181SOPE   H2Y20655   6.023   5.289   6.868 -0.1134  0.4154 -0.7687
  181SOPE   C2320656   5.567   5.333   6.724  0.0475  0.6038 -0.2487
  181SOPE   H3R20657   5.540   5.237   6.676 -0.1069  0.8030 -0.5596
  181SOPE   H3S20658   5.483   5.368   6.787 -0.3143 -1.9680  0.7575
  181SOPE   C2420659   5.684   5.318   6.821  0.0808  0.0506  0.8964
  181SOPE   H4R20660   5.666   5.230   6.887  1.0182 -0.6570  0.2244
  181SOPE   H4S20661   5.786   5.313   6.778 -0.2033  4.4414 -0.4840
  181SOPE   C2520662   5.689   5.431   6.928 -0.2423  0.2044  0.4703
  181SOPE   H5R20663   5.770   5.502   6.901 -0.8557  0.6009 -0.3520
  181SOPE   H5S20664   5.594   5.488   6.925 -0.7563 -0.5446  1.9553
  181SOPE   C2620665   5.723   5.387   7.070 -0.0329 -0.0744  0.5169
  181SOPE   H6R20666   5.645   5.316   7.103  0.1627  0.1213  1.4214
  181SOPE   H6S20667   5.817   5.334   7.047  0.2502  1.3357 -1.7378
  181SOPE   C2720668   5.721   5.496   7.182  0.7602 -0.0662  0.3192
  181SOPE   H7R20669   5.779   5.454   7.267 -0.0276 -1.9470 -0.0521
  181SOPE   H7S20670   5.771   5.591   7.154 -1.3522  0.7665 -0.6673
  181SOPE   C2820671   5.577   5.535   7.232 -0.2292  0.1348  0.1404
  181SOPE   H8R20672   5.539   5.602   7.153  0.9370  1.4412  0.6724
  181SOPE   H8S20673   5.506   5.449   7.241 -0.0493  0.0284  0.5769
  181SOPE   C2920674   5.576   5.605   7.373 -0.4246 -0.3030 -0.1279
  181SOPE   H9120675   5.605   5.710   7.361  0.9578 -0.3592  2.4016
  181SOPE  C21020676   5.520   5.559   7.490  0.2674 -0.1576 -0.2991
  181SOPE  H10120677   5.541   5.613   7.583  1.1173 -1.1079  0.0627
  181SOPE  C21120678   5.439   5.430   7.516  0.3340 -0.4299  0.2581
  181SOPE  H11R20679   5.500   5.361   7.578  0.2711  0.4135  1.2721
  181SOPE  H11S20680   5.421   5.368   7.426 -1.8065  0.4677  0.0254
  181SOPE  C21220681   5.300   5.456   7.599  0.0653 -0.1655  0.5863
  181SOPE  H12R20682   5.233   5.367   7.597  0.2090 -0.2964  1.5344
  181SOPE  H12S20683   5.252   5.541   7.546  0.5247  0.0800  0.5682
  181SOPE  C21320684   5.307   5.500   7.746  0.1093  0.3514  0.3999
  181SOPE  H13R20685   5.337   5.606   7.756 -0.5894  0.4101  2.1653
  181SOPE  H13S20686   5.366   5.426   7.805 -2.5421 -0.2159  2.4546
  181SOPE  C21420687   5.168   5.488   7.793  0.4734 -0.5445  0.1745
  181SOPE  H14R20688   5.168   5.508   7.903 -1.6262 -0.1918  0.1306
  181SOPE  H14S20689   5.140   5.381   7.780 -2.4495  0.2216 -0.2175
  181SOPE  C21520690   5.069   5.587   7.726 -0.4886  0.2503 -0.2178
  181SOPE  H15R20691   5.030   5.550   7.629 -1.1326 -1.6359  0.7413
  181SOPE  H15S20692   5.124   5.676   7.689 -1.8172  0.8755 -0.7397
  181SOPE  C21620693   4.956   5.646   7.814  0.1993 -0.4994  0.4905
  181SOPE  H16R20694   4.997   5.690   7.908  2.3587  0.6709 -0.9552
  181SOPE  H16S20695   4.914   5.552   7.855 -1.6057  1.0080  2.2424
  181SOPE  C21720696   4.856   5.741   7.744 -0.0495 -0.1889 -0.1334
  181SOPE  H17R20697   4.760   5.722   7.797  0.3032  0.8442  0.9109
  181SOPE  H17S20698   4.851   5.700   7.641  1.2500  0.3129 -0.4022
  181SOPE  C21820699   4.889   5.889   7.763  0.1762  0.1067  0.1039
  181SOPE  H18R20700   4.988   5.913   7.717 -0.9196  0.1356 -2.3145
  181SOPE  H18S20701   4.913   5.924   7.865  2.4607  0.0007 -0.3655
  181SOPE  H18T20702   4.817   5.955   7.710 -0.0331 -0.9524 -0.9603
  181SOPE   C3320703   6.237   5.311   6.940  0.2462  0.6631 -0.1693
  181SOPE   H3X20704   6.251   5.417   6.970  1.2579  1.6667 -3.9243
  181SOPE   H3Y20705   6.326   5.271   6.887  0.2269  1.4156 -0.7688
  181SOPE   C3420706   6.217   5.230   7.072 -0.2299 -0.3453  0.1602
  181SOPE   H4X20707   6.313   5.223   7.127  0.3342  2.2778 -0.4192
  181SOPE   H4Y20708   6.177   5.130   7.045 -3.2427  1.4792 -2.6441
  181SOPE   C3520709   6.133   5.298   7.178  0.0836 -0.4005 -0.2811
  181SOPE   H5X20710   6.026   5.283   7.151 -0.5485  2.4228  0.5205
  181SOPE   H5Y20711   6.163   5.399   7.211  0.3249 -0.1835 -1.1588
  181SOPE   C3620712   6.138   5.215   7.306  0.7208  0.5503  0.1630
  181SOPE   H6X20713   6.242   5.217   7.346  1.9225 -0.1419 -2.7763
  181SOPE   H6Y20714   6.118   5.108   7.283  1.9709  0.1469  0.8932
  181SOPE   C3720715   6.024   5.241   7.404  0.5441 -0.1588 -0.6275
  181SOPE   H7X20716   6.017   5.166   7.485  0.7196 -1.5315 -1.8709
  181SOPE   H7Y20717   5.930   5.228   7.346  0.0785  1.7787 -0.3491
  181SOPE   C3820718   6.007   5.385   7.463 -0.2313  0.4496  0.8774
  181SOPE   H8X20719   5.989   5.468   7.391 -0.0437 -0.0970  0.2023
  181SOPE   H8Y20720   6.106   5.409   7.508  0.2882 -0.2285  0.1045
  181SOPE   C3920721   5.895   5.384   7.566 -0.2832 -0.0949 -0.3025
  181SOPE   H9X20722   5.888   5.288   7.623 -3.0329  1.0266  1.3420
  181SOPE   H9Y20723   5.801   5.391   7.508 -0.1762  2.1228 -0.2371
  181SOPE  C31020724   5.888   5.515   7.649  0.7287  0.7545 -0.6744
  181SOPE  H10X20725   5.877   5.605   7.585  0.0389  0.8942 -0.3574
  181SOPE  H10Y20726   5.981   5.515   7.708 -0.0164 -0.4296  0.5362
  181SOPE  C31120727   5.787   5.510   7.762  0.5543 -0.5321  0.6083
  181SOPE  H11X20728   5.824   5.458   7.853  0.4391 -2.2588 -0.3132
  181SOPE  H11Y20729   5.694   5.456   7.735 -1.1543  1.3289  2.5222
  181SOPE  C31220730   5.769   5.658   7.804 -0.3672 -0.6494 -0.0432
  181SOPE  H12X20731   5.738   5.731   7.726  4.8080  2.3773  0.4498
  181SOPE  H12Y20732   5.865   5.697   7.845  0.2765 -2.4800  0.2271
  181SOPE  C31320733   5.669   5.659   7.925  0.1945  0.1923 -0.6617
  181SOPE  H13X20734   5.695   5.563   7.976  2.7056  1.0330 -0.2966
  181SOPE  H13Y20735   5.566   5.670   7.884  0.1010 -0.6070 -0.6506
  181SOPE  C31420736   5.709   5.767   8.028 -0.3543 -0.7090  0.5279
  181SOPE  H14X20737   5.625   5.803   8.091 -1.2106 -1.6234 -0.0704
  181SOPE  H14Y20738   5.738   5.861   7.977 -0.7219 -1.5568 -1.2834
  181SOPE  C31520739   5.818   5.713   8.122  0.5169 -0.3363  0.2932
  181SOPE  H15X20740   5.907   5.682   8.064  0.5768 -0.8700  0.6628
  181SOPE  H15Y20741   5.770   5.623   8.169  0.2651 -0.1091  0.4715
  181SOPE  C31620742   5.867   5.806   8.224  0.1646 -0.4337  0.7528
  181SOPE  H16X20743   5.786   5.836   8.295  0.2910 -0.6694  0.9982
  181SOPE  H16Y20744   5.881   5.901   8.169 -2.3333  0.0707  0.9265
  181SOPE  C31720745   5.985   5.761   8.311  0.1789  0.2698 -0.0977
  181SOPE  H17X20746   6.002   5.831   8.396  0.1858  0.6167 -0.3867
  181SOPE  H17Y20747   6.072   5.747   8.243  0.1466 -1.8181  0.2345
  181SOPE  C31820748   5.971   5.620   8.376  0.0748  0.2702 -0.6727
  181SOPE  H18X20749   6.056   5.594   8.443  1.0938  0.1457 -1.9993
  181SOPE  H18Y20750   5.969   5.551   8.290  0.4623 -0.4786 -0.0839
  181SOPE  H18Z20751   5.880   5.605   8.438  2.3492 -2.9658  2.1050
  182SOPE     N20752   5.656   0.590   6.324  0.5242 -0.1036  0.1717
  182SOPE   HN120753   5.706   0.676   6.353  1.1323  0.1224 -1.4961
  182SOPE   HN220754   5.561   0.614   6.288  0.7808 -0.2304 -0.5960
  182SOPE   HN320755   5.639   0.544   6.415 -1.6126 -0.6983 -0.4912
  182SOPE   C1220756   5.731   0.508   6.225  0.4793 -0.6863 -0.1995
  182SOPE  H12A20757   5.776   0.575   6.149 -0.6265  0.8099  0.4277
  182SOPE  H12B20758   5.659   0.440   6.175 -0.7310 -0.8875  1.7301
  182SOPE   C1120759   5.842   0.432   6.307 -0.6959 -0.2530  0.1243
  182SOPE  H11A20760   5.876   0.367   6.223  0.4244  0.1340  0.2623
  182SOPE  H11B20761   5.802   0.380   6.396 -1.3357 -1.6412 -0.9546
  182SOPE     P20762   6.074   0.480   6.394 -0.2023 -0.4301 -0.2071
  182SOPE   O1320763   6.142   0.606   6.441  0.4624  0.1790  0.1427
  182SOPE   O1420764   6.149   0.385   6.306  0.4389 -0.4038 -0.0422
  182SOPE   O1220765   5.941   0.529   6.342  0.2081  0.5651  0.1632
  182SOPE   O1120766   6.031   0.387   6.513  0.3726 -0.0309  0.1497
  182SOPE    C120767   6.077   0.408   6.645  0.0339 -0.0080  0.4241
  182SOPE    HA20768   6.153   0.489   6.656  1.1755 -1.2911  2.3294
  182SOPE    HB20769   6.126   0.317   6.686  3.0500  0.1682 -2.6118
  182SOPE    C220770   5.965   0.462   6.734  0.2152 -0.2291  0.0950
  182SOPE    HS20771   5.934   0.557   6.685  0.9633 -1.2739 -2.4595
  182SOPE   O2120772   6.002   0.466   6.874 -0.0645  0.4705 -0.1325
  182SOPE   C2120773   6.064   0.576   6.918  0.6250 -0.0821  0.4722
  182SOPE   O2220774   6.090   0.677   6.852  0.6348 -0.1000  0.3509
  182SOPE   C2220775   6.108   0.547   7.060  0.2709 -0.0212 -0.9171
  182SOPE   H2R20776   6.080   0.442   7.085 -1.1588  0.9451  1.7476
  182SOPE   H2S20777   6.072   0.624   7.131 -0.1825 -0.5382 -0.5738
  182SOPE    C320778   5.838   0.373   6.723  1.1554  0.1285  0.4802
  182SOPE    HX20779   5.861   0.278   6.776  0.6425 -0.3307 -0.1191
  182SOPE    HY20780   5.806   0.342   6.621 -1.3974 -0.2529  1.3675
  182SOPE   O3120781   5.733   0.449   6.791 -0.4986 -0.1009 -0.2032
  182SOPE   C3120782   5.648   0.510   6.713  0.3631 -0.0915  0.4180
  182SOPE   O3220783   5.645   0.504   6.590  0.1456 -0.4085 -0.8331
  182SOPE   C3220784   5.535   0.571   6.795  0.1631 -0.0413  0.9137
  182SOPE   H2X20785   5.478   0.497   6.854 -2.1528  0.6195 -0.4169
  182SOPE   H2Y20786   5.467   0.619   6.721 -0.5059  0.1826  1.6658
  182SOPE   C2320787   6.265   0.548   7.073  0.0952 -0.9167  0.7251
  182SOPE   H3R20788   6.295   0.649   7.041  1.4697 -0.9483  1.8769
  182SOPE   H3S20789   6.312   0.476   7.002 -2.6938 -0.1355 -2.0557
  182SOPE   C2420790   6.300   0.529   7.219  0.5448  0.5825  0.6138
  182SOPE   H4R20791   6.260   0.620   7.271  0.8052  0.4242  1.0957
  182SOPE   H4S20792   6.252   0.438   7.260  0.2519  0.5138  0.1177
  182SOPE   C2520793   6.449   0.511   7.248  0.1400 -0.4348 -0.2635
  182SOPE   H5R20794   6.486   0.412   7.214 -3.2454 -1.2565 -1.7847
  182SOPE   H5S20795   6.511   0.596   7.212 -1.6582  0.8917 -0.3089
  182SOPE   C2620796   6.462   0.505   7.401  0.1297 -0.4725  0.0033
  182SOPE   H6R20797   6.406   0.585   7.455  1.9916  0.0613  1.1613
  182SOPE   H6S20798   6.401   0.415   7.424 -0.2389 -0.5085 -1.0552
  182SOPE   C2720799   6.607   0.494   7.449  0.8227 -0.0501 -0.7908
  182SOPE   H7R20800   6.666   0.413   7.401 -0.3787 -2.1089  1.1158
  182SOPE   H7S20801   6.657   0.585   7.411 -0.3489  0.4386 -1.1613
  182SOPE   C2820802   6.618   0.493   7.602 -0.3794  0.0526 -0.1909
  182SOPE   H8R20803   6.725   0.516   7.621 -0.4454  2.2476 -2.2021
  182SOPE   H8S20804   6.553   0.570   7.648  0.6306  0.9647 -0.2514
  182SOPE   C2920805   6.574   0.357   7.648  0.3005 -0.2042 -0.4387
  182SOPE   H9120806   6.538   0.284   7.574  1.3683  0.3507 -1.5251
  182SOPE  C21020807   6.549   0.313   7.770 -0.4842 -0.6706 -0.0286
  182SOPE  H10120808   6.513   0.211   7.788 -2.6685  0.2583  1.0082
  182SOPE  C21120809   6.565   0.398   7.896  0.1025  0.7171  1.4000
  182SOPE  H11R20810   6.545   0.505   7.876  1.7153  0.4316 -2.0594
  182SOPE  H11S20811   6.669   0.383   7.932  0.4007  2.7168  1.3882
  182SOPE  C21220812   6.463   0.332   7.992  0.0009  0.7427 -1.0086
  182SOPE  H12R20813   6.474   0.222   7.997 -1.2694  0.6633  0.3876
  182SOPE  H12S20814   6.365   0.367   7.953 -0.5494 -1.3248 -1.5194
  182SOPE  C21320815   6.479   0.386   8.140  0.3350  0.3356  0.4381
  182SOPE  H13R20816   6.470   0.497   8.145  0.0741  0.2631  1.9426
  182SOPE  H13S20817   6.576   0.358   8.187 -0.5805 -1.3507  1.3704
  182SOPE  C21420818   6.366   0.343   8.243 -0.1950 -0.4567  0.4841
  182SOPE  H14R20819   6.275   0.345   8.180 -0.0656  0.9065  0.3266
  182SOPE  H14S20820   6.373   0.422   8.321  1.4366  0.1075 -0.1913
  182SOPE  C21520821   6.386   0.204   8.308  0.2249  0.0867  0.7227
  182SOPE  H15R20822   6.494   0.193   8.330  0.3479 -0.0735  0.0400
  182SOPE  H15S20823   6.365   0.121   8.238 -1.2413 -1.4286  2.8839
  182SOPE  C21620824   6.292   0.170   8.424 -0.4845  0.7999 -0.7773
  182SOPE  H16R20825   6.299   0.244   8.507 -1.7656 -1.3399  1.2885
  182SOPE  H16S20826   6.339   0.078   8.465  1.3486  1.6023 -1.0178
  182SOPE  C21720827   6.144   0.137   8.384 -0.0750  0.2266 -0.2684
  182SOPE  H17R20828   6.110   0.064   8.307  0.0425 -1.2957  1.0940
  182SOPE  H17S20829   6.123   0.236   8.337 -1.5813 -0.6255 -1.4436
  182SOPE  C21820830   6.052   0.121   8.506  0.0790 -0.0743  0.3792
  182SOPE  H18R20831   6.047   0.212   8.571  0.2217 -1.5745  2.5443
  182SOPE  H18S20832   6.101   0.050   8.576  3.5856  2.2502  0.3954
  182SOPE  H18T20833   5.946   0.092   8.487 -0.4580  2.3490 -0.5553
  182SOPE   C3320834   5.589   0.680   6.891 -0.1572 -0.6781 -0.5620
  182SOPE   H3X20835   5.662   0.647   6.968 -0.0304 -1.2056 -0.9015
  182SOPE   H3Y20836   5.501   0.723   6.942  0.0388  0.7753 -1.4077
  182SOPE   C3420837   5.672   0.795   6.824 -0.2111 -0.7786 -0.4192
  182SOPE   H4X20838   5.611   0.828   6.737  1.4256  3.1471 -0.2045
  182SOPE   H4Y20839   5.767   0.751   6.788  0.5295 -1.1831  1.9488
  182SOPE   C3520840   5.705   0.912   6.908 -0.4523  0.8513  0.2502
  182SOPE   H5X20841   5.637   0.936   6.993 -1.1295 -0.0938 -0.0243
  182SOPE   H5Y20842   5.707   1.004   6.846 -1.1891  0.7640  0.0869
  182SOPE   C3620843   5.848   0.907   6.957  1.0018  0.0170  0.2352
  182SOPE   H6X20844   5.919   0.956   6.886  2.4694  1.3708  2.5524
  182SOPE   H6Y20845   5.887   0.803   6.952  1.0591  0.0531 -0.0760
  182SOPE   C3720846   5.866   0.952   7.101  0.1696  0.3486 -0.0887
  182SOPE   H7X20847   5.816   1.050   7.113 -0.9871 -0.3690  1.0019
  182SOPE   H7Y20848   5.971   0.958   7.138 -0.2499 -0.5015  1.2431
  182SOPE   C3820849   5.805   0.849   7.204 -0.7202 -0.8833 -0.5028
  182SOPE   H8X20850   5.853   0.750   7.186 -1.5075 -1.0043 -1.9948
  182SOPE   H8Y20851   5.699   0.828   7.177 -0.8526  0.0870 -0.7667
  182SOPE   C3920852   5.818   0.880   7.354  0.1792 -0.5954  0.2188
  182SOPE   H9X20853   5.731   0.824   7.394  0.1160  0.9369  2.3066
  182SOPE   H9Y20854   5.794   0.988   7.349 -0.4702 -0.8132 -1.8086
  182SOPE  C31020855   5.956   0.842   7.425  0.5856 -0.2256  0.0376
  182SOPE  H10X20856   5.944   0.877   7.530 -1.3435  0.1997 -0.3011
  182SOPE  H10Y20857   6.040   0.900   7.382  0.9733 -1.4455 -0.8846
  182SOPE  C31120858   6.001   0.698   7.427 -0.0577 -0.7886  0.0068
  182SOPE  H11X20859   6.031   0.666   7.325 -1.1266  3.3109 -1.7107
  182SOPE  H11Y20860   5.916   0.634   7.460 -0.4902  0.6080  1.6860
  182SOPE  C31220861   6.124   0.675   7.522 -0.0466 -0.3269  0.6040
  182SOPE  H12X20862   6.181   0.771   7.524 -0.5857  0.1000 -2.2264
  182SOPE  H12Y20863   6.195   0.596   7.492  1.5677  0.2762  2.7035
  182SOPE  C31320864   6.068   0.659   7.668 -0.1317  0.3387 -0.4087
  182SOPE  H13X20865   6.026   0.559   7.691  1.1835  0.0033  0.6182
  182SOPE  H13Y20866   5.982   0.729   7.674 -0.7381 -0.5123  0.9627
  182SOPE  C31420867   6.169   0.680   7.787  0.2783  0.3708  0.6140
  182SOPE  H14X20868   6.194   0.787   7.769  0.0674  0.0336 -1.9254
  182SOPE  H14Y20869   6.254   0.611   7.768  1.3583  2.2039 -1.3882
  182SOPE  C31520870   6.106   0.667   7.930  0.0234  0.6132  1.1358
  182SOPE  H15X20871   6.018   0.735   7.932  0.1467  0.7764  0.9420
  182SOPE  H15Y20872   6.186   0.692   8.003  1.3846 -2.0695  0.6175
  182SOPE  C31620873   6.060   0.522   7.973 -0.1581  0.4386 -0.8585
  182SOPE  H16X20874   6.152   0.465   7.999 -0.3648  0.8146  0.7440
  182SOPE  H16Y20875   6.007   0.475   7.888 -0.6401 -1.0872  0.2674
  182SOPE  C31720876   5.960   0.521   8.091  0.9225  0.3787 -0.6205
  182SOPE  H17X20877   5.919   0.418   8.088 -1.2516  1.1990 -0.0140
  182SOPE  H17Y20878   5.880   0.596   8.073 -1.4188 -1.0631  3.2141
  182SOPE  C31820879   6.036   0.550   8.226  0.4194  0.4026  0.2581
  182SOPE  H18X20880   5.971   0.549   8.316 -0.7509 -0.6860 -0.5670
  182SOPE  H18Y20881   6.084   0.650   8.226 -1.1378  1.1756 -0.0710
  182SOPE  H18Z20882   6.114   0.470   8.229  1.1148  1.0008 -1.3753
  183SOPE     N20883   1.129   5.731   6.491  0.3391  0.2557 -0.2131
  183SOPE   HN120884   1.208   5.776   6.442  0.9369  2.1440  2.3545
  183SOPE   HN220885   1.073   5.804   6.541  1.3110  0.5205  0.5018
  183SOPE   HN320886   1.159   5.664   6.565 -0.9507  0.9189  0.9517
  183SOPE   C1220887   1.028   5.668   6.401  0.0278  0.6391 -0.6911
  183SOPE  H12A20888   0.975   5.752   6.351 -1.6813  0.7535  1.2082
  183SOPE  H12B20889   0.957   5.616   6.470  1.6383 -1.9358 -0.9194
  183SOPE   C1120890   1.084   5.567   6.297  0.7432  0.3709  0.3894
  183SOPE  H11A20891   1.130   5.638   6.225 -1.1797  0.6536 -0.5911
  183SOPE  H11B20892   1.014   5.510   6.232  1.5489 -0.9672  0.6737
  183SOPE     P20893   1.252   5.367   6.273  0.2990 -0.1978 -0.0134
  183SOPE   O1320894   1.369   5.429   6.204 -0.3586  0.2197 -0.3581
  183SOPE   O1420895   1.159   5.286   6.195  0.4073  0.8745  0.7887
  183SOPE   O1220896   1.174   5.478   6.353  0.3904  0.1922  0.7390
  183SOPE   O1120897   1.314   5.272   6.383  0.4867  0.2808 -0.4118
  183SOPE    C120898   1.414   5.298   6.477  0.3710  0.2459 -0.4932
  183SOPE    HA20899   1.499   5.358   6.437  1.9085 -1.7397 -0.2677
  183SOPE    HB20900   1.456   5.205   6.522  0.2370  0.1478 -0.5708
  183SOPE    C220901   1.360   5.388   6.594 -0.5927 -0.4832 -0.8863
  183SOPE    HS20902   1.347   5.494   6.565  1.1606  0.3473  1.1932
  183SOPE   O2120903   1.463   5.385   6.693  0.1314 -0.8027  0.2771
  183SOPE   C2120904   1.567   5.464   6.671  0.8817  0.3709  0.2421
  183SOPE   O2220905   1.578   5.538   6.580 -0.0972 -0.9613 -0.1048
  183SOPE   C2220906   1.670   5.452   6.778 -0.6528  0.5176 -0.0338
  183SOPE   H2R20907   1.749   5.521   6.742 -0.5113  0.1055 -0.5236
  183SOPE   H2S20908   1.706   5.347   6.789 -2.8678 -0.2318  0.2315
  183SOPE    C320909   1.225   5.332   6.652 -0.0623  0.3050 -0.4902
  183SOPE    HX20910   1.245   5.223   6.659  1.7638  0.7352  1.6816
  183SOPE    HY20911   1.140   5.348   6.583 -1.3100  0.1368  0.9664
  183SOPE   O3120912   1.202   5.377   6.792 -0.1061  0.3343 -0.4987
  183SOPE   C3120913   1.142   5.495   6.806 -0.1033 -0.1371 -0.2258
  183SOPE   O3220914   1.124   5.578   6.720 -0.0744 -0.7133 -0.0090
  183SOPE   C3220915   1.100   5.503   6.953  0.7646  0.0055  0.2333
  183SOPE   H2X20916   1.060   5.403   6.982 -0.8512  0.8662  0.9807
  183SOPE   H2Y20917   1.028   5.587   6.964  0.4687 -0.0741 -0.9981
  183SOPE   C2320918   1.615   5.505   6.917  0.1096  0.1755  0.0754
  183SOPE   H3R20919   1.532   5.448   6.965 -0.0458  0.5625  0.2656
  183SOPE   H3S20920   1.569   5.603   6.892  2.5525  1.2327 -0.3664
  183SOPE   C2420921   1.724   5.523   7.021  0.1828 -0.7970  0.4951
  183SOPE   H4R20922   1.777   5.426   7.032  1.7556  0.0935  1.0379
  183SOPE   H4S20923   1.794   5.599   6.978  1.8829 -1.5115  1.9167
  183SOPE   C2520924   1.659   5.566   7.151 -0.3278  0.7410  0.2440
  183SOPE   H5R20925   1.602   5.660   7.133 -1.2063  0.2575  0.4916
  183SOPE   H5S20926   1.583   5.490   7.179  0.4209 -0.0151  0.2518
  183SOPE   C2620927   1.762   5.589   7.270  0.3422  0.0376 -0.7267
  183SOPE   H6R20928   1.812   5.497   7.306  0.5964  0.8582  1.0469
  183SOPE   H6S20929   1.847   5.655   7.239  2.6094 -1.7222  1.5840
  183SOPE   C2720930   1.700   5.650   7.402 -0.3470  0.2928 -0.8155
  183SOPE   H7R20931   1.668   5.752   7.371 -0.5852  0.3517 -0.3759
  183SOPE   H7S20932   1.614   5.584   7.428  0.8986 -0.6273  1.0811
  183SOPE   C2820933   1.800   5.671   7.516  0.0203 -0.0270  0.9349
  183SOPE   H8R20934   1.822   5.566   7.548 -0.4228 -1.8197 -4.0874
  183SOPE   H8S20935   1.887   5.724   7.472  0.3524 -1.6767 -0.4912
  183SOPE   C2920936   1.744   5.739   7.636 -0.3102 -0.1335 -0.0278
  183SOPE   H9120937   1.659   5.806   7.614 -0.0259  0.0275 -0.6616
  183SOPE  C21020938   1.790   5.735   7.765  0.2512  0.3553 -0.2786
  183SOPE  H10120939   1.739   5.780   7.851  1.3709 -0.0489  0.5979
  183SOPE  C21120940   1.904   5.652   7.805 -0.2282  0.6668 -0.9575
  183SOPE  H11R20941   1.990   5.722   7.807  0.5013 -0.2375  1.5421
  183SOPE  H11S20942   1.930   5.570   7.735 -0.7880 -1.2923  1.0918
  183SOPE  C21220943   1.891   5.584   7.941 -0.3004 -0.1208  0.6374
  183SOPE  H12R20944   1.886   5.657   8.025 -1.2537  0.8244 -0.2278
  183SOPE  H12S20945   1.987   5.531   7.956 -0.2086 -0.6500 -1.6874
  183SOPE  C21320946   1.770   5.490   7.957 -0.0769 -0.2555 -0.1203
  183SOPE  H13R20947   1.747   5.443   7.859 -0.1127 -0.9549  0.2143
  183SOPE  H13S20948   1.684   5.542   8.006 -0.4575 -0.0366 -1.0126
  183SOPE  C21420949   1.798   5.364   8.049  0.3977 -0.3375  0.2993
  183SOPE  H14R20950   1.898   5.327   8.021  0.0584  0.0129 -1.4350
  183SOPE  H14S20951   1.725   5.284   8.026  1.3311 -0.3668 -2.7875
  183SOPE  C21520952   1.797   5.402   8.200 -0.1800 -0.1836 -0.0163
  183SOPE  H15R20953   1.705   5.461   8.221 -0.4706 -1.0807  1.2827
  183SOPE  H15S20954   1.890   5.452   8.235  0.6445 -2.3363  0.9386
  183SOPE  C21620955   1.793   5.278   8.291 -0.1455  0.4192 -0.0100
  183SOPE  H16R20956   1.880   5.212   8.272  0.7102  1.7043 -0.6158
  183SOPE  H16S20957   1.699   5.225   8.265 -0.1065  1.1183 -1.6414
  183SOPE  C21720958   1.810   5.323   8.433 -0.7921 -0.1073 -0.2157
  183SOPE  H17R20959   1.729   5.396   8.456  1.4307  1.7605  2.0856
  183SOPE  H17S20960   1.909   5.373   8.441 -1.3198  0.8212  0.8275
  183SOPE  C21820961   1.824   5.213   8.543 -0.5290 -0.1070  0.3738
  183SOPE  H18R20962   1.738   5.147   8.567 -2.8063  2.4454 -0.5552
  183SOPE  H18S20963   1.854   5.264   8.637  1.6292 -1.9209  0.7176
  183SOPE  H18T20964   1.908   5.146   8.515 -2.4211 -2.9230  1.1879
  183SOPE   C3320965   1.224   5.503   7.054  0.3367 -0.4611 -0.7954
  183SOPE   H3X20966   1.304   5.580   7.045 -2.0239  1.9714 -1.7907
  183SOPE   H3Y20967   1.260   5.399   7.041  1.5477  0.1378 -2.3884
  183SOPE   C3420968   1.157   5.505   7.195 -0.0638  0.1579 -0.5118
  183SOPE   H4X20969   1.128   5.400   7.216  1.4794 -0.3627 -0.9227
  183SOPE   H4Y20970   1.072   5.576   7.206 -1.3120 -1.2769 -0.6837
  183SOPE   C3520971   1.269   5.530   7.303 -0.1767 -0.9119 -0.2894
  183SOPE   H5X20972   1.322   5.624   7.276  1.1116 -2.0678 -1.8633
  183SOPE   H5Y20973   1.339   5.444   7.290  0.0203 -0.4969 -2.0673
  183SOPE   C3620974   1.229   5.528   7.451 -0.1277 -0.7473 -0.0732
  183SOPE   H6X20975   1.144   5.459   7.466  0.3164 -0.7536  2.7020
  183SOPE   H6Y20976   1.181   5.623   7.484  2.4259  0.3303  0.6923
  183SOPE   C3720977   1.333   5.492   7.564 -0.0091 -0.5632 -0.3305
  183SOPE   H7X20978   1.417   5.564   7.555 -0.7860  0.2080 -1.6271
  183SOPE   H7Y20979   1.378   5.393   7.544  0.2166 -0.7058  0.8522
  183SOPE   C3820980   1.262   5.490   7.702 -0.3516 -0.8119  0.2980
  183SOPE   H8X20981   1.182   5.413   7.706 -3.1823  1.9760  0.2369
  183SOPE   H8Y20982   1.204   5.583   7.724 -0.1589 -0.5876 -0.1308
  183SOPE   C3920983   1.359   5.454   7.822 -0.3104 -0.0093  0.7123
  183SOPE   H9X20984   1.440   5.530   7.833 -0.8238  0.5786  0.4771
  183SOPE   H9Y20985   1.400   5.357   7.789  1.4902  1.3035 -1.0490
  183SOPE  C31020986   1.290   5.432   7.960  0.8036 -0.3812  0.0437
  183SOPE  H10X20987   1.233   5.336   7.963  0.6417 -0.2398  2.3739
  183SOPE  H10Y20988   1.202   5.498   7.971  2.7576  2.2684  0.1551
  183SOPE  C31120989   1.381   5.443   8.082  0.5209  0.5542  0.2656
  183SOPE  H11X20990   1.437   5.537   8.067  0.4102  0.5884  0.0727
  183SOPE  H11Y20991   1.452   5.357   8.075  1.1216  1.1844 -1.7483
  183SOPE  C31220992   1.316   5.431   8.224 -0.0179  0.0708 -0.0543
  183SOPE  H12X20993   1.368   5.359   8.292  1.0206 -1.6907 -2.6243
  183SOPE  H12Y20994   1.210   5.401   8.215  0.0634 -0.0619 -0.6290
  183SOPE  C31320995   1.323   5.566   8.293  0.4305  0.2536 -0.0045
  183SOPE  H13X20996   1.221   5.577   8.336 -0.2596 -2.8912 -0.6895
  183SOPE  H13Y20997   1.342   5.640   8.212  1.0818  0.9808  0.8069
  183SOPE  C31420998   1.437   5.562   8.404 -0.7191 -0.1907  0.4432
  183SOPE  H14X20999   1.537   5.530   8.369  0.0305  1.4775  0.9990
  183SOPE  H14Y21000   1.410   5.489   8.483  0.3293 -0.4038  0.6151
  183SOPE  C31521001   1.452   5.691   8.485 -0.2023 -0.7542 -0.6556
  183SOPE  H15X21002   1.522   5.678   8.571 -2.9511 -0.4743  1.7241
  183SOPE  H15Y21003   1.348   5.704   8.523  0.0530 -0.5661 -0.0033
  183SOPE  C31621004   1.484   5.806   8.393  0.2626 -0.4916  0.5512
  183SOPE  H16X21005   1.485   5.898   8.454  2.3703 -1.0844  1.4607
  183SOPE  H16Y21006   1.396   5.835   8.332  1.1635 -1.1033 -1.0683
  183SOPE  C31721007   1.610   5.783   8.306 -0.2061  0.1041 -0.4520
  183SOPE  H17X21008   1.640   5.880   8.259 -0.6111 -0.3405 -1.6339
  183SOPE  H17Y21009   1.594   5.704   8.230 -2.5408  1.5709 -1.5309
  183SOPE  C31821010   1.733   5.751   8.399 -0.3018 -0.2907  0.8323
  183SOPE  H18X21011   1.721   5.655   8.453 -0.4677 -1.1874 -0.7594
  183SOPE  H18Y21012   1.752   5.832   8.472 -0.2224 -0.0560  0.5580
  183SOPE  H18Z21013   1.826   5.733   8.340 -0.9488  0.4345 -0.4292
  184SOPE     N21014   1.601   6.134   6.059 -0.4523  0.3493  0.3947
  184SOPE   HN121015   1.672   6.111   5.987  3.3992  0.7963  3.8167
  184SOPE   HN221016   1.516   6.189   6.036 -2.6752 -2.7909  0.7590
  184SOPE   HN321017   1.661   6.186   6.127  1.0573 -0.3068 -0.4115
  184SOPE   C1221018   1.554   6.003   6.122 -0.3268 -0.0515  0.2145
  184SOPE  H12A21019   1.645   5.950   6.159  0.0566  0.7939  0.5124
  184SOPE  H12B21020   1.487   5.942   6.057  0.3564 -1.7688  1.0767
  184SOPE   C1121021   1.480   6.040   6.251 -0.4609  0.4446  0.5546
  184SOPE  H11A21022   1.532   6.121   6.306  0.1741 -0.4005  1.2077
  184SOPE  H11B21023   1.486   5.956   6.322  0.2231  0.3200  0.3608
  184SOPE     P21024   1.234   5.967   6.224  0.2100  0.1614 -0.1122
  184SOPE   O1321025   1.292   5.838   6.201 -0.4755 -0.0256 -0.4069
  184SOPE   O1421026   1.127   6.011   6.143 -0.3332 -0.2374  0.4876
  184SOPE   O1221027   1.351   6.080   6.212 -0.1921  0.0552 -0.3291
  184SOPE   O1121028   1.194   5.975   6.374 -0.4596  0.2394  0.2495
  184SOPE    C121029   1.167   6.104   6.429  0.9623  0.0507  0.4171
  184SOPE    HA21030   1.125   6.185   6.365  0.6034 -0.9187 -0.5861
  184SOPE    HB21031   1.270   6.143   6.440  0.5517  0.9283  1.3415
  184SOPE    C221032   1.097   6.090   6.562  0.9510  0.4068 -0.2168
  184SOPE    HS21033   1.110   6.186   6.617  1.8504  1.0579 -1.5381
  184SOPE   O2121034   1.142   5.977   6.643  0.4609  0.2428  0.0242
  184SOPE   C2121035   1.258   6.003   6.711 -0.8162 -0.0054 -0.6276
  184SOPE   O2221036   1.330   6.099   6.697 -0.1217 -0.7562  0.0777
  184SOPE   C2221037   1.269   5.882   6.803  0.6331 -0.0183  0.1175
  184SOPE   H2R21038   1.317   5.800   6.745  2.9032  0.3110  1.4574
  184SOPE   H2S21039   1.167   5.846   6.828  0.3267  1.3298  0.8256
  184SOPE    C321040   0.949   6.060   6.535  0.2766 -0.5877 -0.5781
  184SOPE    HX21041   0.945   5.969   6.471  1.3841 -2.1238  1.4809
  184SOPE    HY21042   0.911   6.148   6.478  1.1638  0.9973  1.2397
  184SOPE   O3121043   0.872   6.037   6.659  0.4234 -0.8905 -0.2034
  184SOPE   C3121044   0.859   5.909   6.697  0.1095  0.7325 -0.8697
  184SOPE   O3221045   0.909   5.811   6.645 -0.2520 -0.0057  0.0880
  184SOPE   C3221046   0.761   5.911   6.818 -0.4271 -0.0955 -0.4921
  184SOPE   H2X21047   0.719   5.811   6.844  1.2324 -0.4338  1.0367
  184SOPE   H2Y21048   0.671   5.969   6.788 -0.1200  1.0954  0.8174
  184SOPE   C2321049   1.357   5.902   6.930 -0.6425  1.0877 -0.2457
  184SOPE   H3R21050   1.434   5.977   6.904  0.2949 -0.3939 -1.8601
  184SOPE   H3S21051   1.401   5.807   6.968  0.0126  1.2010 -0.7089
  184SOPE   C2421052   1.265   5.948   7.040 -0.4691  0.1176  0.2262
  184SOPE   H4R21053   1.192   6.027   7.011  0.5327  0.2623 -2.0668
  184SOPE   H4S21054   1.198   5.862   7.064  0.2708 -1.1295 -1.9655
  184SOPE   C2521055   1.335   5.998   7.166 -0.7010 -0.2516  0.5060
  184SOPE   H5R21056   1.420   5.934   7.199 -1.1043 -2.0914 -1.8407
  184SOPE   H5S21057   1.386   6.095   7.147  0.9177 -1.4224 -1.3166
  184SOPE   C2621058   1.236   6.018   7.286  1.3270 -0.1424  0.3512
  184SOPE   H6R21059   1.158   6.085   7.244  0.6343 -1.2046 -0.0789
  184SOPE   H6S21060   1.183   5.922   7.304 -0.9242  1.2769  1.5229
  184SOPE   C2721061   1.294   6.069   7.414  0.7691  0.3057  0.2566
  184SOPE   H7R21062   1.342   6.165   7.386  2.1403 -0.5846 -0.4888
  184SOPE   H7S21063   1.217   6.099   7.489  1.6390 -0.8869  1.6362
  184SOPE   C2821064   1.415   5.996   7.490 -0.5197 -0.1424  0.2248
  184SOPE   H8R21065   1.487   5.964   7.412 -0.6497 -1.4854  0.6271
  184SOPE   H8S21066   1.456   6.072   7.559  0.1421  2.5857 -3.0767
  184SOPE   C2921067   1.357   5.876   7.562  0.3387  0.1231 -0.4433
  184SOPE   H9121068   1.320   5.799   7.494 -0.8094 -0.5847  0.9531
  184SOPE  C21021069   1.328   5.858   7.695  0.5630  0.1769 -0.2269
  184SOPE  H10121070   1.262   5.774   7.721 -1.0920  2.2505  2.5867
  184SOPE  C21121071   1.337   5.952   7.806  0.8195 -0.2787 -0.1510
  184SOPE  H11R21072   1.240   5.964   7.858 -0.0745  1.5302 -2.1490
  184SOPE  H11S21073   1.357   6.055   7.769 -2.6651 -0.0128 -1.3915
  184SOPE  C21221074   1.444   5.907   7.910 -0.9313 -0.0384 -0.2511
  184SOPE  H12R21075   1.540   5.890   7.856 -0.7186 -0.1734  0.1623
  184SOPE  H12S21076   1.415   5.813   7.961 -3.0021 -0.3677 -1.9967
  184SOPE  C21321077   1.493   6.011   8.014  0.2242  0.0090 -0.4450
  184SOPE  H13R21078   1.546   6.092   7.959  1.2635  1.0353  1.9946
  184SOPE  H13S21079   1.573   5.967   8.077  0.0457 -3.2610 -2.3682
  184SOPE  C21421080   1.385   6.067   8.104  0.2825 -0.4191  0.0398
  184SOPE  H14R21081   1.329   5.978   8.140 -0.2906  0.3663  1.1092
  184SOPE  H14S21082   1.314   6.128   8.043  1.8696  1.4050 -0.0403
  184SOPE  C21521083   1.432   6.155   8.219 -0.0949 -0.0163  0.0527
  184SOPE  H15R21084   1.481   6.249   8.187 -1.3680  0.3034 -1.0092
  184SOPE  H15S21085   1.509   6.098   8.274  0.6967 -0.0260 -1.0513
  184SOPE  C21621086   1.315   6.199   8.312  0.1207  0.2590  0.0535
  184SOPE  H16R21087   1.273   6.101   8.342 -0.1121  0.6702  1.0987
  184SOPE  H16S21088   1.245   6.251   8.243  0.5887  1.1105  0.2149
  184SOPE  C21721089   1.360   6.286   8.425  0.0891  0.1608 -0.6592
  184SOPE  H17R21090   1.275   6.284   8.495  2.0637 -1.0604  1.7681
  184SOPE  H17S21091   1.379   6.390   8.388  1.1729 -0.3906 -1.7319
  184SOPE  C21821092   1.475   6.226   8.515 -0.4126  0.2862 -0.5614
  184SOPE  H18R21093   1.482   6.284   8.609 -0.7627  0.1227 -0.4346
  184SOPE  H18S21094   1.572   6.225   8.461 -0.2846 -1.9176 -0.3568
  184SOPE  H18T21095   1.433   6.124   8.533 -0.2199 -0.0182 -1.7795
  184SOPE   C3321096   0.829   5.962   6.950 -0.2699  0.1019  0.4642
  184SOPE   H3X21097   0.821   6.073   6.950 -0.9898  0.0644 -1.6952
  184SOPE   H3Y21098   0.938   5.943   6.958  0.3968  2.9104 -1.1139
  184SOPE   C3421099   0.762   5.894   7.070  0.5450 -0.6141  1.1466
  184SOPE   H4X21100   0.760   5.784   7.059 -1.0477 -0.7081  2.2911
  184SOPE   H4Y21101   0.662   5.935   7.094  0.2241 -1.1409  0.7018
  184SOPE   C3521102   0.846   5.918   7.202 -0.3068 -0.3532  0.1967
  184SOPE   H5X21103   0.850   6.026   7.227 -1.0090 -0.5454  1.1357
  184SOPE   H5Y21104   0.946   5.872   7.190 -0.9057 -1.2140 -1.7343
  184SOPE   C3621105   0.782   5.867   7.332  0.2995  0.6419  0.3384
  184SOPE   H6X21106   0.764   5.758   7.321  0.6604  0.3298  2.5690
  184SOPE   H6Y21107   0.689   5.918   7.364  0.0469 -0.4509  1.3885
  184SOPE   C3721108   0.870   5.882   7.454  0.6409  0.0650 -0.2640
  184SOPE   H7X21109   0.897   5.989   7.464  0.1330  0.1301  0.4781
  184SOPE   H7Y21110   0.952   5.820   7.414 -0.8506 -1.0808 -1.6323
  184SOPE   C3821111   0.819   5.818   7.584 -0.0758  0.1578 -0.2187
  184SOPE   H8X21112   0.802   5.708   7.581  0.7911 -0.0064  0.6596
  184SOPE   H8Y21113   0.719   5.864   7.603 -1.8939 -2.2925 -3.3547
  184SOPE   C3921114   0.909   5.844   7.703  0.6955 -0.0120 -0.2275
  184SOPE   H9X21115   0.928   5.953   7.709  1.1344  0.0181 -1.8770
  184SOPE   H9Y21116   1.004   5.788   7.691 -0.6993 -2.5981  0.2360
  184SOPE  C31021117   0.855   5.793   7.834 -0.5475 -0.4776 -0.7465
  184SOPE  H10X21118   0.828   5.685   7.826  1.3404 -1.1237  1.0936
  184SOPE  H10Y21119   0.759   5.840   7.861  0.3523  0.0214  1.7092
  184SOPE  C31121120   0.951   5.815   7.952 -0.5035 -0.5167 -0.5491
  184SOPE  H11X21121   0.989   5.919   7.953  0.6685 -0.9430 -0.0733
  184SOPE  H11Y21122   1.033   5.740   7.943 -2.6582 -3.1013  0.3530
  184SOPE  C31221123   0.887   5.788   8.100 -0.0656  0.2373  0.4810
  184SOPE  H12X21124   0.847   5.684   8.093  1.0012 -0.2572  1.5594
  184SOPE  H12Y21125   0.801   5.856   8.119 -0.9948 -1.5023  2.8573
  184SOPE  C31321126   0.989   5.813   8.219  0.6852  1.1728 -0.8254
  184SOPE  H13X21127   1.030   5.914   8.197  0.7868  1.6705  1.5364
  184SOPE  H13Y21128   1.076   5.743   8.219  0.8518  1.3528 -2.8438
  184SOPE  C31421129   0.916   5.820   8.355  0.0144 -0.2439 -0.0854
  184SOPE  H14X21130   0.880   5.717   8.376  1.3009 -0.8078 -0.6373
  184SOPE  H14Y21131   0.831   5.891   8.342  1.7664  2.0355  0.6178
  184SOPE  C31521132   1.005   5.874   8.470  0.3341  0.3214  0.4438
  184SOPE  H15X21133   1.049   5.974   8.449 -2.9408  1.7647  0.1528
  184SOPE  H15Y21134   1.088   5.801   8.461 -0.1132 -0.0985 -0.4556
  184SOPE  C31621135   0.936   5.869   8.606  0.4998  0.0390  0.4775
  184SOPE  H16X21136   0.902   5.763   8.616  0.6355  0.0607  1.2259
  184SOPE  H16Y21137   0.852   5.940   8.597  0.7718  0.3828  0.6325
  184SOPE  C31721138   1.018   5.898   8.725  0.8256  1.2900 -0.5909
  184SOPE  H17X21139   1.107   5.831   8.724 -0.9319 -1.0664 -1.8271
  184SOPE  H17Y21140   0.957   5.883   8.817  0.5551 -0.5424 -1.0419
  184SOPE  C31821141   1.064   6.044   8.731  0.2016 -0.3511  0.1748
  184SOPE  H18X21142   1.130   6.061   8.643  1.4060 -0.8727  0.9698
  184SOPE  H18Y21143   1.122   6.063   8.824  1.7729  1.6165 -1.1545
  184SOPE  H18Z21144   0.980   6.116   8.721  0.9214  0.8106  2.1166
  185SAPI   C1221145   5.173   1.840  10.712  0.6267  0.3495 -0.4528
  185SAPI    H221146   5.114   1.890  10.633 -1.4266 -1.5600 -0.1607
  185SAPI    O221147   5.086   1.762  10.795 -0.0481 -0.5307 -0.0156
  185SAPI   HO221148   5.023   1.709  10.746 -0.6509 -0.8278  1.0695
  185SAPI   C1321149   5.287   1.759  10.641  0.1272  0.5100 -0.9298
  185SAPI    H321150   5.330   1.838  10.576  0.0093  1.4122  0.0727
  185SAPI    O321151   5.238   1.665  10.547 -0.1836 -0.4051  0.2066
  185SAPI   HO321152   5.172   1.614  10.596  1.3099 -1.3708  1.2331
  185SAPI   C1421153   5.375   1.686  10.746  0.0451  0.1218 -0.1937
  185SAPI    H421154   5.312   1.611  10.799 -2.2443  1.1780 -1.3373
  185SAPI    O421155   5.483   1.613  10.686 -0.7376 -0.0659  1.4871
  185SAPI   HO421156   5.440   1.556  10.621  0.6223  1.4867 -0.8565
  185SAPI   C1521157   5.430   1.790  10.842 -0.0306  0.1599  0.1247
  185SAPI    H521158   5.504   1.856  10.791 -1.9318  0.4228 -2.3360
  185SAPI    O521159   5.506   1.715  10.935  0.3629 -0.1437  0.0827
  185SAPI   HO521160   5.597   1.740  10.917 -0.2226  2.2819  0.2516
  185SAPI   C1621161   5.327   1.883  10.908  0.5794 -0.3263 -0.4783
  185SAPI    H621162   5.264   1.821  10.976  0.0279  0.9428  0.1713
  185SAPI    O621163   5.400   1.985  10.975  0.7520 -0.7057 -0.1254
  185SAPI   HO621164   5.327   2.031  11.017  1.7462 -0.6184  1.5415
  185SAPI   C1121165   5.241   1.947  10.800 -0.5243  0.6018  0.3500
  185SAPI    H121166   5.314   2.004  10.738 -0.3499  1.2241  1.1170
  185SAPI     P21167   5.161   2.207  10.817 -0.0935 -0.4926 -0.5278
  185SAPI   O1321168   5.301   2.254  10.820 -0.1285  0.3457 -0.0324
  185SAPI   O1421169   5.068   2.276  10.917  0.3452 -0.3841 -0.2766
  185SAPI   O1221170   5.148   2.046  10.848 -0.3480  0.7911 -0.7332
  185SAPI   O1121171   5.098   2.210  10.670  0.0129  0.3333  0.5094
  185SAPI    C121172   5.161   2.207  10.546 -0.2997 -0.4235  0.3241
  185SAPI    HA21173   5.254   2.267  10.549 -1.0362  1.0183 -3.1057
  185SAPI    HB21174   5.185   2.103  10.515 -1.1274 -0.5409  0.0565
  185SAPI    C221175   5.083   2.271  10.421  0.0673  0.3002 -0.2205
  185SAPI    HS21176   5.023   2.188  10.380 -0.3047  1.2006 -1.5442
  185SAPI   O2121177   5.185   2.306  10.326 -0.5338 -0.6640 -0.2561
  185SAPI   C2121178   5.164   2.296  10.198  0.6512 -0.2853 -0.4656
  185SAPI   O2221179   5.067   2.237  10.154 -0.1594 -0.0397  0.0796
  185SAPI   C2221180   5.270   2.371  10.119 -0.1293  0.1849 -0.0121
  185SAPI   H2R21181   5.370   2.327  10.144 -0.5386  1.1879  3.6221
  185SAPI   H2S21182   5.239   2.351  10.014 -1.0262 -2.4198  0.7064
  185SAPI    C321183   5.002   2.395  10.447 -0.0388  0.3195 -0.1114
  185SAPI    HX21184   5.071   2.468  10.496  0.6997  0.1312 -0.8532
  185SAPI    HY21185   4.927   2.356  10.518  0.3703 -0.9307 -0.3564
  185SAPI   O3121186   4.931   2.442  10.327 -0.1310  0.0865  0.2798
  185SAPI   C3121187   4.818   2.370  10.292 -0.6170  0.0580 -0.6286
  185SAPI   O3221188   4.780   2.268  10.350 -0.3259  0.0039  0.3970
  185SAPI   C3221189   4.745   2.437  10.175 -0.3588 -0.0996  0.1297
  185SAPI   H2X21190   4.807   2.426  10.083 -2.3090  1.3461 -1.3896
  185SAPI   H2Y21191   4.733   2.546  10.191 -1.3735 -0.0347 -1.0235
  185SAPI   C2321192   5.275   2.522  10.141 -0.0265 -0.2304 -0.1083
  185SAPI   H3R21193   5.371   2.569  10.112 -0.3162 -0.4331 -1.4301
  185SAPI   H3S21194   5.251   2.539  10.248 -0.3779 -1.1355 -0.0375
  185SAPI   C2421195   5.164   2.589  10.058  0.3052  0.7285  0.3534
  185SAPI   H4R21196   5.132   2.679  10.114  2.1292  0.7033  1.4577
  185SAPI   H4S21197   5.069   2.531  10.055  0.3748  0.6323 -0.2120
  185SAPI   C2521198   5.198   2.626   9.917  0.9204  0.5825 -0.1662
  185SAPI   H5R21199   5.297   2.673   9.917  0.8500  0.7450  1.0065
  185SAPI   C2621200   5.137   2.584   9.804  0.0860  0.6277 -0.2226
  185SAPI   H6R21201   5.177   2.637   9.716  1.9932 -1.1945 -0.4993
  185SAPI   C2721202   5.017   2.493   9.785  0.9507 -0.2020 -0.1075
  185SAPI   H7R21203   4.933   2.546   9.734 -0.8215 -1.0183  1.9182
  185SAPI   H7S21204   4.984   2.450   9.881  0.6154  0.6207  0.1492
  185SAPI   C2821205   5.066   2.377   9.711  0.3126 -0.1144  0.3405
  185SAPI   H8R21206   5.069   2.288   9.776 -1.9489  0.1698  0.9055
  185SAPI   C2921207   5.100   2.369   9.578  0.8545 -0.3752 -0.2284
  185SAPI   H9R21208   5.147   2.275   9.546  0.4438 -1.4671  2.2851
  185SAPI  C21021209   5.090   2.469   9.465 -0.0824  0.4995 -0.0247
  185SAPI  H10R21210   5.184   2.472   9.406  1.9572 -1.0224  2.9558
  185SAPI  H10S21211   5.090   2.574   9.499  0.0458  0.9728 -1.4814
  185SAPI  C21121212   4.973   2.443   9.372 -0.7215  0.4436  0.0896
  185SAPI  H11R21213   4.899   2.372   9.412 -0.1984 -1.3221 -1.9710
  185SAPI  C21221214   4.951   2.500   9.253  0.2115 -0.2527 -0.8466
  185SAPI  H12R21215   4.876   2.455   9.187  0.3782 -1.5103 -0.1950
  185SAPI  C21321216   5.042   2.604   9.190 -0.9049 -0.6228  0.1133
  185SAPI  H13R21217   5.124   2.555   9.133 -0.1685  1.2830 -0.5044
  185SAPI  H13S21218   5.096   2.659   9.270 -0.4947 -0.7700 -0.0582
  185SAPI  C21421219   4.975   2.699   9.099  0.4397  0.5053 -0.0402
  185SAPI  H14R21220   4.969   2.795   9.150  2.0689  1.3941 -1.4560
  185SAPI  C21521221   4.933   2.675   8.974 -0.3546 -1.0465  0.1678
  185SAPI  H15R21222   4.886   2.764   8.930  0.2460 -1.6409 -1.7222
  185SAPI  C21621223   4.937   2.551   8.890  0.5445  0.7916  0.3974
  185SAPI  H16R21224   5.006   2.481   8.942  0.2747  1.0968  1.1808
  185SAPI  H16S21225   4.984   2.580   8.794  1.0622  1.2421  0.7839
  185SAPI  C21721226   4.803   2.492   8.885 -0.1597 -0.1911  0.2370
  185SAPI  H17R21227   4.757   2.524   8.789 -0.5189 -3.7500 -0.8453
  185SAPI  H17S21228   4.739   2.523   8.971 -1.0546 -1.5655  0.0803
  185SAPI  C21821229   4.800   2.334   8.871  0.6710  0.8758 -0.2792
  185SAPI  H18R21230   4.823   2.290   8.970 -2.8385 -2.0304 -0.6728
  185SAPI  H18S21231   4.866   2.300   8.788  1.5625 -0.9308  1.1556
  185SAPI  C21921232   4.664   2.280   8.830  0.5387  0.1508  0.0796
  185SAPI  H19R21233   4.628   2.316   8.731 -0.0878  0.3225  0.3657
  185SAPI  H19S21234   4.593   2.309   8.910  0.6823  0.5079  0.0783
  185SAPI  C22021235   4.659   2.130   8.831  0.9433  0.4024 -0.5410
  185SAPI  H20R21236   4.564   2.084   8.798  0.7911  1.3304 -1.4115
  185SAPI  H20S21237   4.667   2.088   8.933 -2.0223  3.5535  1.0563
  185SAPI  H20T21238   4.739   2.093   8.762 -0.1214  0.7188 -1.9768
  185SAPI   C3321239   4.613   2.363  10.135  0.1955  0.3911  0.1389
  185SAPI   H3X21240   4.539   2.389  10.214  1.3868  1.3328  0.9599
  185SAPI   H3Y21241   4.622   2.254  10.114 -2.4795 -0.0808  1.2404
  185SAPI   C3421242   4.555   2.429  10.009  0.4129  0.0599 -0.2247
  185SAPI   H4X21243   4.527   2.532  10.041  1.3717  0.4007 -0.4857
  185SAPI   H4Y21244   4.458   2.384   9.977 -0.5228  1.9500 -0.1096
  185SAPI   C3521245   4.645   2.432   9.890 -0.1815  0.1509  0.0149
  185SAPI   H5X21246   4.654   2.327   9.856 -2.8909  0.2503 -1.0874
  185SAPI   H5Y21247   4.745   2.476   9.912  0.1444 -0.6309  0.1286
  185SAPI   C3621248   4.583   2.498   9.765  0.0039 -0.8942 -0.0204
  185SAPI   H6X21249   4.508   2.427   9.724 -0.0851 -1.1774  0.6231
  185SAPI   H6Y21250   4.662   2.511   9.688  0.5874  0.0656  0.7179
  185SAPI   C3721251   4.527   2.638   9.769  0.0299  0.1178 -0.4223
  185SAPI   H7X21252   4.610   2.708   9.791 -1.5411  1.4629  1.3484
  185SAPI   H7Y21253   4.462   2.644   9.859  0.1626 -0.5857 -0.2795
  185SAPI   C3821254   4.438   2.683   9.649  0.1270 -0.6697 -0.4885
  185SAPI   H8X21255   4.347   2.621   9.656 -0.1368 -0.0279  2.5525
  185SAPI   H8Y21256   4.499   2.657   9.560  0.4393 -0.4762 -0.3330
  185SAPI   C3921257   4.402   2.835   9.641 -0.1845  0.4816 -0.0441
  185SAPI   H9X21258   4.495   2.895   9.627 -1.4706  2.6307  0.4327
  185SAPI   H9Y21259   4.361   2.866   9.740 -3.8493 -1.7468 -0.7748
  185SAPI  C31021260   4.291   2.862   9.537 -0.3414 -0.4009  0.5999
  185SAPI  H10X21261   4.196   2.850   9.594 -0.7796 -0.0020 -0.0346
  185SAPI  H10Y21262   4.307   2.797   9.449 -0.2141  0.3681  0.0571
  185SAPI  C31121263   4.294   3.007   9.480 -0.2144 -0.0301 -0.9085
  185SAPI  H11X21264   4.394   3.017   9.434 -0.3582 -1.2515 -1.4993
  185SAPI  H11Y21265   4.281   3.077   9.566 -0.5235 -0.2530 -0.7716
  185SAPI  C31221266   4.186   3.033   9.376 -0.2492  1.2829  0.0002
  185SAPI  H12X21267   4.191   3.143   9.366  0.1980  1.1577 -1.3157
  185SAPI  H12Y21268   4.089   3.003   9.422  0.3591 -2.1616 -0.7556
  185SAPI  C31321269   4.202   2.955   9.246 -0.4740 -0.2086  0.1612
  185SAPI  H13X21270   4.227   2.853   9.280  0.9434  1.0558  3.0947
  185SAPI  H13Y21271   4.295   2.983   9.192  0.7593 -1.5155  1.5815
  185SAPI  C31421272   4.082   2.943   9.146  0.0638  0.0585 -0.2755
  185SAPI  H14X21273   4.043   3.044   9.124  1.6647  0.7659  0.0767
  185SAPI  H14Y21274   4.007   2.884   9.201 -0.8853  0.1838 -1.4091
  185SAPI  C31521275   4.118   2.876   9.015 -0.4204  0.3901  0.4071
  185SAPI  H15X21276   4.024   2.861   8.958  0.4123  1.3231 -1.2590
  185SAPI  H15Y21277   4.147   2.770   9.035 -2.4059 -0.2292  0.0362
  185SAPI  C31621278   4.222   2.946   8.924 -0.1529  0.4133 -0.2835
  185SAPI  H16X21279   4.250   2.881   8.838  0.5141  0.5881 -0.1992
  185SAPI  H16Y21280   4.313   2.962   8.985 -1.1264  0.1280  1.2695
  185SAPI  C31721281   4.181   3.079   8.860 -0.6475  0.4819 -0.3628
  185SAPI  H17X21282   4.278   3.125   8.832 -0.4611  1.1794  1.3874
  185SAPI  H17Y21283   4.123   3.141   8.931 -1.2819  0.4340 -0.8306
  185SAPI  C31821284   4.097   3.061   8.733 -0.1836  0.0349 -0.1822
  185SAPI  H18X21285   4.064   3.162   8.703  2.8493  1.2172  0.3059
  185SAPI  H18Y21286   4.011   2.995   8.756  0.4283 -1.0542 -0.9527
  185SAPI  H18Z21287   4.155   3.015   8.650  2.0746  0.9401  0.8517
  186SAPI   C1221288   5.348   0.221  11.002  0.2007  0.6465  0.4779
  186SAPI    H221289   5.310   0.117  11.003 -0.6913  0.9720  2.9183
  186SAPI    O221290   5.240   0.314  11.005  0.3373  0.3969  0.1577
  186SAPI   HO221291   5.167   0.285  10.951 -0.2389  0.9867  0.6114
  186SAPI   C1321292   5.431   0.223  11.132  0.0567  0.3465  0.1889
  186SAPI    H321293   5.512   0.149  11.116  0.4645  1.1845 -1.8012
  186SAPI    O321294   5.348   0.183  11.237  0.0799  0.0514 -0.3989
  186SAPI   HO321295   5.317   0.093  11.229  0.5200 -0.1358 -0.0219
  186SAPI   C1421296   5.484   0.362  11.156 -0.4736 -0.5430 -0.3513
  186SAPI    H421297   5.397   0.431  11.156 -0.2983 -0.3068 -1.2517
  186SAPI    O421298   5.562   0.369  11.279 -0.0367  0.3791  0.1437
  186SAPI   HO421299   5.512   0.421  11.342 -2.0777  0.2015 -1.2942
  186SAPI   C1521300   5.568   0.407  11.035  0.2331 -0.2071  0.2976
  186SAPI    H521301   5.657   0.340  11.031  1.7914  1.9111 -2.0363
  186SAPI    O521302   5.631   0.533  11.058 -0.3067  0.1017  0.3791
  186SAPI   HO521303   5.611   0.595  10.988  1.5616 -0.6444 -0.8529
  186SAPI   C1621304   5.494   0.391  10.904 -0.0040  0.4206  0.5962
  186SAPI    H621305   5.416   0.469  10.899  0.3841  0.8691  1.5135
  186SAPI    O621306   5.579   0.415  10.789 -0.7992 -0.4871 -0.0611
  186SAPI   HO621307   5.526   0.460  10.724 -0.1668  1.2974  0.6097
  186SAPI   C1121308   5.431   0.259  10.882  0.1962  0.4891 -0.1072
  186SAPI    H121309   5.509   0.180  10.876 -1.0852 -0.9422  1.8649
  186SAPI     P21310   5.301   0.126  10.686 -0.1653  0.0950  0.4798
  186SAPI   O1321311   5.154   0.139  10.659 -0.0138 -0.3413  0.0207
  186SAPI   O1421312   5.343   0.011  10.772  0.2794 -0.2211  0.2603
  186SAPI   O1221313   5.356   0.266  10.758  0.4109  0.1329 -0.0330
  186SAPI   O1121314   5.387   0.129  10.558  0.5041 -0.1821  0.3497
  186SAPI    C121315   5.529   0.143  10.568 -0.3433  0.3489 -0.1376
  186SAPI    HA21316   5.554   0.250  10.580  1.4427  0.1881 -2.2562
  186SAPI    HB21317   5.569   0.083  10.652 -2.1723 -2.5753 -1.2725
  186SAPI    C221318   5.592   0.085  10.442  0.0519  0.3294  0.1207
  186SAPI    HS21319   5.703   0.091  10.437  0.1628 -0.8226  0.9437
  186SAPI   O2121320   5.537   0.129  10.314  0.2197 -0.3427 -0.3303
  186SAPI   C2121321   5.581   0.246  10.277  0.1074 -0.3902 -0.5492
  186SAPI   O2221322   5.670   0.308  10.336 -0.1538 -0.2922 -0.4056
  186SAPI   C2221323   5.512   0.298  10.146  0.6016  0.0282 -0.0582
  186SAPI   H2R21324   5.406   0.302  10.177  0.9691 -1.1073  1.3839
  186SAPI   H2S21325   5.545   0.403  10.130  0.6712 -0.0168 -0.2114
  186SAPI    C321326   5.573  -0.069  10.451 -0.8362 -0.1361 -0.4613
  186SAPI    HX21327   5.465  -0.089  10.437 -0.7580 -1.6805  1.0265
  186SAPI    HY21328   5.595  -0.106  10.553 -2.0682 -1.2911 -0.6062
  186SAPI   O3121329   5.654  -0.134  10.348  0.5197 -0.0051 -0.2433
  186SAPI   C3121330   5.582  -0.180  10.243 -0.3776  1.2514 -0.1561
  186SAPI   O3221331   5.457  -0.181  10.239  0.3575 -0.1287  0.6080
  186SAPI   C3221332   5.672  -0.222  10.129 -0.2340 -0.1927 -0.0597
  186SAPI   H2X21333   5.618  -0.302  10.076 -0.5848  0.8227 -1.2597
  186SAPI   H2Y21334   5.764  -0.264  10.176 -0.9878 -1.4246  0.3092
  186SAPI   C2321335   5.544   0.218  10.017  0.3207  0.1921  0.3576
  186SAPI   H3R21336   5.515   0.111  10.028  1.3406 -0.4024 -2.2484
  186SAPI   H3S21337   5.649   0.217   9.979 -0.3758 -1.2582 -1.6562
  186SAPI   C2421338   5.455   0.269   9.901 -0.1183 -0.7527  0.3286
  186SAPI   H4R21339   5.350   0.271   9.935  0.1146  3.7324  1.0716
  186SAPI   H4S21340   5.463   0.195   9.818  0.9433 -0.9447  0.5980
  186SAPI   C2521341   5.479   0.411   9.851  0.4270  0.3836 -0.4840
  186SAPI   H5R21342   5.475   0.484   9.933  0.8851 -0.6235  0.4286
  186SAPI   C2621343   5.519   0.451   9.727 -0.1625  1.1955  0.5335
  186SAPI   H6R21344   5.532   0.558   9.706 -1.3936  1.2515 -0.0106
  186SAPI   C2721345   5.535   0.352   9.615  0.0070  0.4837 -0.0475
  186SAPI   H7R21346   5.440   0.322   9.567 -0.5175  0.7511  0.8166
  186SAPI   H7S21347   5.568   0.257   9.662 -0.6609  0.0919 -0.3653
  186SAPI   C2821348   5.637   0.391   9.503  0.0899  0.0324 -0.2376
  186SAPI   H8R21349   5.689   0.486   9.519  0.5400 -0.2244 -0.1661
  186SAPI   C2921350   5.656   0.322   9.386  0.3169 -0.1247 -0.3165
  186SAPI   H9R21351   5.735   0.346   9.313  1.6138 -0.4786  0.9578
  186SAPI  C21021352   5.569   0.209   9.342  0.3924 -0.2666 -0.2800
  186SAPI  H10R21353   5.466   0.245   9.317  1.3226  1.9036 -1.1572
  186SAPI  H10S21354   5.563   0.130   9.419  3.2342  1.3410  1.6653
  186SAPI  C21121355   5.620   0.132   9.223  0.3497 -0.3297  0.2913
  186SAPI  H11R21356   5.689   0.047   9.238 -2.5396 -2.5700  1.5146
  186SAPI  C21221357   5.606   0.162   9.097 -0.2390  0.3032 -0.7653
  186SAPI  H12R21358   5.641   0.088   9.023 -1.6516 -0.2914 -0.8499
  186SAPI  C21321359   5.541   0.291   9.045 -0.8599  0.4779 -0.2092
  186SAPI  H13R21360   5.615   0.374   9.051  1.1810 -1.1506 -1.8204
  186SAPI  H13S21361   5.460   0.328   9.111  0.9338  3.3630  0.4359
  186SAPI  C21421362   5.495   0.284   8.896 -0.2355 -0.0154 -0.8809
  186SAPI  H14R21363   5.386   0.270   8.903 -0.1751 -0.0208  0.2293
  186SAPI  C21521364   5.567   0.276   8.787  0.2483  0.4397 -0.1751
  186SAPI  H15R21365   5.513   0.248   8.696 -1.1991  1.9800  0.1868
  186SAPI  C21621366   5.718   0.273   8.769 -0.5278 -0.0279  0.0926
  186SAPI  H16R21367   5.751   0.170   8.746  1.5624  0.2290  1.7683
  186SAPI  H16S21368   5.764   0.289   8.869  0.3815 -1.2436 -0.1242
  186SAPI  C21721369   5.766   0.378   8.662  0.1099 -0.0733  0.1668
  186SAPI  H17R21370   5.713   0.366   8.566 -0.0272  2.1217 -0.0725
  186SAPI  H17S21371   5.874   0.364   8.639  0.0842  0.3419 -0.2145
  186SAPI  C21821372   5.731   0.520   8.708 -0.3726  0.2727  0.4255
  186SAPI  H18R21373   5.777   0.538   8.807  1.0919  0.3501 -0.2440
  186SAPI  H18S21374   5.622   0.532   8.724 -0.1327  1.2065  1.3740
  186SAPI  C21921375   5.780   0.620   8.611 -0.4214 -0.4036  0.7534
  186SAPI  H19R21376   5.736   0.598   8.512 -2.7023  0.0532  1.6449
  186SAPI  H19S21377   5.891   0.613   8.609 -0.1385  2.9535  1.9441
  186SAPI  C22021378   5.737   0.765   8.646 -0.0577 -0.0255 -0.4637
  186SAPI  H20R21379   5.755   0.838   8.564  0.0781 -0.3145 -0.6891
  186SAPI  H20S21380   5.785   0.801   8.740 -0.3580 -1.1255  0.1210
  186SAPI  H20T21381   5.629   0.773   8.674  0.2906 -2.5085  1.7610
  186SAPI   C3321382   5.723  -0.098  10.044 -0.4824 -0.2800  0.1886
  186SAPI   H3X21383   5.771  -0.023  10.110  0.3759 -0.4965 -0.1877
  186SAPI   H3Y21384   5.631  -0.057   9.996 -0.9279 -0.1935  1.1030
  186SAPI   C3421385   5.828  -0.136   9.938  1.0314 -0.6648  0.4533
  186SAPI   H4X21386   5.778  -0.213   9.877  0.6306  1.4420 -1.9459
  186SAPI   H4Y21387   5.924  -0.175   9.978  0.5204 -0.5051  1.8778
  186SAPI   C3521388   5.871  -0.013   9.853  0.4999  0.0035 -0.2599
  186SAPI   H5X21389   5.970  -0.043   9.811 -0.1764 -0.7890 -1.3355
  186SAPI   H5Y21390   5.893   0.077   9.914  1.2433  1.5373 -2.7227
  186SAPI   C3621391   5.768   0.027   9.752 -0.7241 -1.0945 -0.1301
  186SAPI   H6X21392   5.740   0.134   9.759 -0.8231 -1.1063 -0.3377
  186SAPI   H6Y21393   5.680  -0.039   9.769 -2.1371  0.4552 -1.2753
  186SAPI   C3721394   5.828  -0.005   9.619 -0.5295 -0.3554  0.0449
  186SAPI   H7X21395   5.917   0.060   9.606 -1.4061  0.4133 -2.3247
  186SAPI   H7Y21396   5.749   0.027   9.547 -0.1732  2.6941  0.9275
  186SAPI   C3821397   5.859  -0.155   9.595  0.0647 -0.2641  0.5875
  186SAPI   H8X21398   5.773  -0.227   9.597  0.0646 -0.2563  0.8759
  186SAPI   H8Y21399   5.915  -0.207   9.676  1.0196 -1.3421 -0.7311
  186SAPI   C3921400   5.934  -0.172   9.465 -0.3007 -0.4661  0.3044
  186SAPI   H9X21401   6.032  -0.119   9.464 -1.1654  1.1628  0.5759
  186SAPI   H9Y21402   5.868  -0.131   9.386 -1.4512 -0.0174  1.4802
  186SAPI  C31021403   5.956  -0.312   9.414  0.1689  0.0913  0.1191
  186SAPI  H10X21404   5.859  -0.362   9.435  0.2106 -0.2882 -0.5714
  186SAPI  H10Y21405   6.045  -0.365   9.454  1.2815  0.4984 -1.7191
  186SAPI  C31121406   5.977  -0.313   9.261 -0.0299 -0.2376 -0.3377
  186SAPI  H11X21407   6.077  -0.270   9.240  1.4847 -2.4479  2.0835
  186SAPI  H11Y21408   5.907  -0.245   9.207  0.0098 -1.3109 -1.7709
  186SAPI  C31221409   5.972  -0.453   9.209  0.8265 -0.7549 -0.8033
  186SAPI  H12X21410   5.874  -0.496   9.239  0.2077  1.4054  0.4525
  186SAPI  H12Y21411   6.038  -0.508   9.280 -0.5345  1.1115  2.0173
  186SAPI  C31321412   5.999  -0.467   9.060 -0.4255 -0.1908 -0.1734
  186SAPI  H13X21413   6.109  -0.450   9.057  0.1566 -3.4794 -0.3304
  186SAPI  H13Y21414   5.943  -0.385   9.012 -0.8541 -1.4883 -1.9844
  186SAPI  C31421415   5.955  -0.599   8.996  0.2233 -0.3928  0.9158
  186SAPI  H14X21416   5.849  -0.612   9.028  0.4925  0.0896  2.0278
  186SAPI  H14Y21417   6.015  -0.683   9.036  2.5036  1.7903  2.2134
  186SAPI  C31521418   5.963  -0.611   8.843  0.5768 -0.7886 -0.0728
  186SAPI  H15X21419   5.902  -0.525   8.808  2.9079  0.1921 -1.8629
  186SAPI  H15Y21420   5.899  -0.697   8.813 -0.9336  0.5267 -0.7358
  186SAPI  C31621421   6.107  -0.602   8.788 -0.6661 -0.3710 -0.5053
  186SAPI  H16X21422   6.175  -0.641   8.867 -1.1725  0.4715  0.3588
  186SAPI  H16Y21423   6.116  -0.497   8.753 -1.5049  0.2200  1.0093
  186SAPI  C31721424   6.127  -0.674   8.654  0.3048  0.0450 -0.1126
  186SAPI  H17X21425   6.113  -0.784   8.662  1.5240 -0.0848  0.2757
  186SAPI  H17Y21426   6.229  -0.648   8.621  0.6300 -0.5769  0.3813
  186SAPI  C31821427   6.033  -0.638   8.538  0.2497  0.2546 -0.0996
  186SAPI  H18X21428   6.058  -0.533   8.508  0.0311  0.9756  2.1598
  186SAPI  H18Y21429   5.927  -0.643   8.572  0.2927  0.2725  0.0378
  186SAPI  H18Z21430   6.048  -0.702   8.448 -1.6082  0.5027 -0.6034
  187SAPI   C1221431   1.638   1.816   6.283  0.3346 -0.3581  0.5638
  187SAPI    H221432   1.556   1.765   6.336  0.6827  0.0943  1.5528
  187SAPI    O221433   1.719   1.887   6.371 -0.4214 -0.1390  0.0097
  187SAPI   HO221434   1.661   1.930   6.434 -3.0767 -1.6348 -1.3258
  187SAPI   C1321435   1.720   1.710   6.221  0.3795  0.1857  0.1371
  187SAPI    H321436   1.657   1.650   6.151 -0.1878 -1.8679  2.3716
  187SAPI    O321437   1.763   1.608   6.317 -0.1850  0.0838  0.0635
  187SAPI   HO321438   1.799   1.649   6.396 -2.3019  0.9739  0.5991
  187SAPI   C1421439   1.830   1.763   6.134 -0.0958  0.2416 -0.1167
  187SAPI    H421440   1.911   1.800   6.199 -1.0158  2.1659 -0.0465
  187SAPI    O421441   1.890   1.653   6.067 -1.0234  0.8924 -0.1769
  187SAPI   HO421442   1.985   1.667   6.058 -0.6184 -1.3391  0.4679
  187SAPI   C1521443   1.796   1.877   6.037 -0.0949  0.6211  0.4423
  187SAPI    H521444   1.733   1.837   5.955 -1.2288  0.6694  1.2655
  187SAPI    O521445   1.920   1.936   5.988 -0.2723  0.1798 -0.2917
  187SAPI   HO521446   1.911   1.956   5.894  1.2881 -0.2788 -0.5459
  187SAPI   C1621447   1.716   1.985   6.108 -0.0346 -0.0865 -0.5465
  187SAPI    H621448   1.782   2.039   6.179 -1.4789  2.4758 -1.1183
  187SAPI    O621449   1.676   2.076   6.009  0.0828 -0.1311 -0.0272
  187SAPI   HO621450   1.681   2.160   6.056  1.0110 -0.7510  1.0055
  187SAPI   C1121451   1.591   1.927   6.182 -0.5576 -0.5718 -0.1440
  187SAPI    H121452   1.541   1.867   6.102 -1.4284 -1.3807  0.9921
  187SAPI     P21453   1.368   2.007   6.302 -0.0045 -0.2987 -0.1776
  187SAPI   O1321454   1.321   1.892   6.225 -0.4578  0.4852 -0.1043
  187SAPI   O1421455   1.289   2.135   6.305 -0.7351  0.0584 -1.0956
  187SAPI   O1221456   1.513   2.032   6.236  0.4160 -0.3574 -0.0857
  187SAPI   O1121457   1.397   1.969   6.449 -0.1753  0.1029 -0.1694
  187SAPI    C121458   1.332   1.859   6.506  0.1596 -0.0994 -0.5211
  187SAPI    HA21459   1.225   1.862   6.477 -0.0526 -0.5293  0.1920
  187SAPI    HB21460   1.374   1.762   6.472  2.0288 -0.1103  1.7033
  187SAPI    C221461   1.340   1.863   6.661 -0.6513 -0.7425 -0.8074
  187SAPI    HS21462   1.302   1.763   6.691 -1.2361 -0.6767 -1.3124
  187SAPI   O2121463   1.260   1.966   6.715  0.1402  0.0707 -0.0787
  187SAPI   C2121464   1.133   1.955   6.714  0.3138 -0.1520  0.1164
  187SAPI   O2221465   1.071   1.861   6.666  0.2220 -0.5975  0.5491
  187SAPI   C2221466   1.059   2.069   6.787 -1.1222  0.2833  0.7816
  187SAPI   H2R21467   1.061   2.166   6.732  1.5983 -0.1943  0.0034
  187SAPI   H2S21468   0.954   2.032   6.785 -0.7978 -0.6174 -0.3633
  187SAPI    C321469   1.486   1.882   6.716  0.3766  0.4228  0.2395
  187SAPI    HX21470   1.528   1.977   6.676  0.2032  1.5229  2.6260
  187SAPI    HY21471   1.537   1.794   6.669 -1.0715 -0.2056 -0.1816
  187SAPI   O3121472   1.499   1.897   6.856 -0.0609 -0.1304 -0.0340
  187SAPI   C3121473   1.445   1.800   6.937  0.3410  0.1632  0.8648
  187SAPI   O3221474   1.397   1.694   6.902 -0.2965 -0.0629 -0.2822
  187SAPI   C3221475   1.466   1.850   7.079 -0.5431  0.1191 -0.7170
  187SAPI   H2X21476   1.420   1.950   7.091 -1.5518 -0.2911 -1.0913
  187SAPI   H2Y21477   1.573   1.852   7.108 -0.1700 -0.5095 -1.9899
  187SAPI   C2321478   1.110   2.092   6.933  0.1751  0.1851 -0.4780
  187SAPI   H3R21479   1.041   2.173   6.967 -1.0175 -2.4896  3.8608
  187SAPI   H3S21480   1.215   2.127   6.932 -0.0006  0.8469  1.7131
  187SAPI   C2421481   1.076   1.972   7.026  0.0768  0.0054 -0.8969
  187SAPI   H4R21482   1.139   1.890   6.983 -1.5981 -1.0216 -1.4585
  187SAPI   H4S21483   0.972   1.935   7.013 -0.1099  0.0981  0.2584
  187SAPI   C2521484   1.115   2.009   7.167 -0.2380 -0.1721 -0.5297
  187SAPI   H5R21485   1.213   2.060   7.171 -0.7378  0.7554 -0.0717
  187SAPI   C2621486   1.043   2.000   7.274 -0.2755 -0.8005  0.1388
  187SAPI   H6R21487   1.092   2.032   7.368  1.7531  0.2472 -1.2415
  187SAPI   C2721488   0.896   1.960   7.284 -0.5658 -0.2182 -0.1251
  187SAPI   H7R21489   0.883   1.894   7.372 -1.4225  1.3810  0.9767
  187SAPI   H7S21490   0.861   1.905   7.194 -3.0818  1.0992 -0.0040
  187SAPI   C2821491   0.804   2.081   7.300  0.4734  0.1151  0.0629
  187SAPI   H8R21492   0.779   2.128   7.203 -0.7684  0.3149  0.4727
  187SAPI   C2921493   0.738   2.128   7.407 -0.3120 -0.4144  0.3750
  187SAPI   H9R21494   0.668   2.211   7.395  1.9852  1.3007 -1.8086
  187SAPI  C21021495   0.755   2.070   7.544  0.6510 -0.5587 -0.6971
  187SAPI  H10R21496   0.863   2.057   7.568  0.9052  1.9958 -0.2918
  187SAPI  H10S21497   0.713   1.968   7.558 -0.4458 -0.1689 -1.1107
  187SAPI  C21121498   0.682   2.149   7.657 -0.2475  0.7032 -0.1855
  187SAPI  H11R21499   0.593   2.205   7.626  0.0581  0.0050 -2.4463
  187SAPI  C21221500   0.722   2.145   7.785 -0.2370 -0.0771 -0.6270
  187SAPI  H12R21501   0.659   2.201   7.856 -0.2398  0.4160 -1.0195
  187SAPI  C21321502   0.847   2.083   7.831  0.2427 -0.4338  0.3572
  187SAPI  H13R21503   0.935   2.144   7.803 -1.4714  0.7907 -2.5064
  187SAPI  H13S21504   0.860   1.990   7.772  0.3928 -0.3167  0.2055
  187SAPI  C21421505   0.856   2.055   7.976 -0.6461  0.1364 -0.0255
  187SAPI  H14R21506   0.836   1.948   7.989 -0.1972  0.1388  0.6966
  187SAPI  C21521507   0.884   2.137   8.080  0.0436 -0.2247 -0.3403
  187SAPI  H15R21508   0.900   2.099   8.182 -2.8259  2.0587  1.0580
  187SAPI  C21621509   0.898   2.285   8.052 -0.5756  0.4859 -0.6212
  187SAPI  H16R21510   0.815   2.350   8.089 -1.3149 -1.0036  0.3929
  187SAPI  H16S21511   0.921   2.297   7.944 -3.3053 -0.7323 -1.3748
  187SAPI  C21721512   1.028   2.338   8.117  0.1719  0.7879 -0.3240
  187SAPI  H17R21513   1.056   2.429   8.059 -0.7696  0.5689 -1.1499
  187SAPI  H17S21514   1.110   2.264   8.113  1.3347  2.0823 -0.7888
  187SAPI  C21821515   1.003   2.390   8.256 -0.4232 -0.3994 -0.5810
  187SAPI  H18R21516   0.988   2.300   8.320  2.1524 -2.2225 -2.4412
  187SAPI  H18S21517   0.902   2.436   8.262 -1.5297 -2.9035  0.3817
  187SAPI  C21921518   1.119   2.474   8.312 -0.0401 -0.3726 -0.2038
  187SAPI  H19R21519   1.118   2.562   8.244 -0.3657 -0.0025  0.2843
  187SAPI  H19S21520   1.217   2.425   8.293 -1.2722 -2.8819 -0.3692
  187SAPI  C22021521   1.085   2.515   8.458 -0.3032  0.0051 -0.1871
  187SAPI  H20R21522   1.174   2.565   8.502  0.0549  0.9597 -1.9998
  187SAPI  H20S21523   1.054   2.430   8.523  0.1239 -0.0183 -0.0081
  187SAPI  H20T21524   1.001   2.587   8.457 -0.8703 -0.6446  0.1789
  187SAPI   C3321525   1.396   1.752   7.169 -0.0823 -0.0506 -0.4862
  187SAPI   H3X21526   1.450   1.656   7.178 -0.9983 -0.4606  0.8544
  187SAPI   H3Y21527   1.292   1.731   7.138  0.1817  1.7262 -2.7447
  187SAPI   C3421528   1.391   1.799   7.315  0.2489  0.4914  0.3024
  187SAPI   H4X21529   1.314   1.878   7.327  0.3939  1.3066 -3.4434
  187SAPI   H4Y21530   1.488   1.847   7.340  1.0964 -1.6754  1.3387
  187SAPI   C3521531   1.346   1.692   7.414  0.7484 -0.3960  0.6676
  187SAPI   H5X21532   1.429   1.618   7.417  2.9015  1.9437  0.7165
  187SAPI   H5Y21533   1.262   1.628   7.379  1.8679 -0.4321 -2.0498
  187SAPI   C3621534   1.320   1.728   7.560 -0.2829 -0.6009  0.3228
  187SAPI   H6X21535   1.397   1.799   7.597 -1.2552  0.7333 -0.1750
  187SAPI   H6Y21536   1.321   1.631   7.615  1.2000 -1.3782 -1.0277
  187SAPI   C3721537   1.181   1.777   7.581  0.5217  0.2458 -0.3794
  187SAPI   H7X21538   1.107   1.698   7.603  1.5036 -1.3042 -2.4639
  187SAPI   H7Y21539   1.145   1.840   7.497 -0.3786 -0.3345 -0.4318
  187SAPI   C3821540   1.171   1.870   7.704 -0.2092 -0.2143  0.7542
  187SAPI   H8X21541   1.079   1.931   7.714 -1.7313 -1.6183 -3.4238
  187SAPI   H8Y21542   1.257   1.939   7.700  1.6627 -2.6030 -2.8485
  187SAPI   C3921543   1.180   1.800   7.835  0.5132 -0.7275 -0.0634
  187SAPI   H9X21544   1.214   1.871   7.914  0.7835 -0.9832  0.0530
  187SAPI   H9Y21545   1.265   1.729   7.834 -0.0256 -1.3638 -0.7546
  187SAPI  C31021546   1.047   1.735   7.881 -0.9245 -0.3273 -0.5864
  187SAPI  H10X21547   1.035   1.642   7.821 -0.5402 -1.2253  0.7093
  187SAPI  H10Y21548   0.952   1.792   7.876 -0.9731 -0.5433 -2.3228
  187SAPI  C31121549   1.072   1.687   8.019  0.3067  0.2666  0.4661
  187SAPI  H11X21550   1.175   1.646   8.017 -0.1726 -1.1261  2.4972
  187SAPI  H11Y21551   0.998   1.611   8.051  0.6234  0.2497  1.1639
  187SAPI  C31221552   1.077   1.808   8.124 -0.6154  0.2025 -0.2908
  187SAPI  H12X21553   0.978   1.856   8.112 -0.1786  0.9628 -0.9324
  187SAPI  H12Y21554   1.156   1.879   8.090 -1.1341  0.9849  0.1217
  187SAPI  C31321555   1.117   1.769   8.264 -0.1161 -0.6240  0.1024
  187SAPI  H13X21556   1.227   1.777   8.267 -0.1296  0.7018 -2.1946
  187SAPI  H13Y21557   1.105   1.660   8.282  1.9988 -0.8206  0.4167
  187SAPI  C31421558   1.048   1.845   8.380 -0.0425 -0.4970 -0.3502
  187SAPI  H14X21559   1.077   1.950   8.396 -3.6595  0.4429  0.5639
  187SAPI  H14Y21560   1.070   1.796   8.477 -1.1608  0.5577  0.4456
  187SAPI  C31521561   0.894   1.855   8.384  0.3598  0.3773  0.6470
  187SAPI  H15X21562   0.872   1.911   8.290 -1.5260 -2.3471 -0.6037
  187SAPI  H15Y21563   0.869   1.921   8.470 -0.9520  0.8425 -0.0802
  187SAPI  C31621564   0.813   1.725   8.384  0.5068  0.4415  0.2946
  187SAPI  H16X21565   0.822   1.674   8.482 -4.6657 -2.8728 -0.7631
  187SAPI  H16Y21566   0.831   1.651   8.303  0.2083 -0.2730  0.8827
  187SAPI  C31721567   0.669   1.759   8.362  0.9681  0.4690  0.2904
  187SAPI  H17X21568   0.638   1.784   8.258 -0.8917 -0.0619  0.6937
  187SAPI  H17Y21569   0.634   1.838   8.432 -0.8250 -2.4068  2.7817
  187SAPI  C31821570   0.580   1.632   8.390  0.2291 -0.1954 -0.1051
  187SAPI  H18X21571   0.612   1.548   8.325  1.7908  0.7094 -0.5360
  187SAPI  H18Y21572   0.472   1.655   8.378  0.6689  1.3423 -1.2571
  187SAPI  H18Z21573   0.581   1.597   8.495 -3.6222 -2.3490 -0.6923
  188SAPI   C1221574   2.495   5.460   6.587 -0.4220 -0.5864  0.2366
  188SAPI    H221575   2.448   5.421   6.680  1.3507  2.0540  2.3109
  188SAPI    O221576   2.388   5.525   6.511 -0.4166  0.4793 -0.3921
  188SAPI   HO221577   2.333   5.456   6.473  1.3051 -0.8463 -0.5518
  188SAPI   C1321578   2.604   5.562   6.621  0.0205  0.4448 -0.2670
  188SAPI    H321579   2.680   5.501   6.674 -1.8018 -1.3946  0.2536
  188SAPI    O321580   2.554   5.663   6.708 -0.8533  0.5449 -0.7125
  188SAPI   HO321581   2.512   5.725   6.648 -2.4868 -2.2313 -2.5668
  188SAPI   C1421582   2.657   5.621   6.488  0.1019  0.0397 -0.6115
  188SAPI    H421583   2.581   5.669   6.422  0.8797  3.2480  0.6959
  188SAPI    O421584   2.751   5.722   6.515  0.5304 -0.5054 -0.2117
  188SAPI   HO421585   2.725   5.810   6.487  3.7650  1.7294  3.3463
  188SAPI   C1521586   2.720   5.504   6.408 -0.0374 -0.2970  0.0533
  188SAPI    H521587   2.801   5.459   6.468 -0.9874 -0.1907  1.4326
  188SAPI    O521588   2.781   5.547   6.284  0.3437  0.3900  0.3244
  188SAPI   HO521589   2.802   5.641   6.286  1.1620  0.2286 -0.5909
  188SAPI   C1621590   2.622   5.387   6.384 -0.1677  0.4187  0.0109
  188SAPI    H621591   2.544   5.430   6.318 -0.8192  3.3462  2.5287
  188SAPI    O621592   2.680   5.276   6.324 -0.5944 -0.5576 -0.0755
  188SAPI   HO621593   2.672   5.197   6.379 -0.4764 -0.6980 -0.2580
  188SAPI   C1121594   2.560   5.342   6.508  0.1592 -0.5981  0.0332
  188SAPI    H121595   2.644   5.310   6.574  0.2468 -1.1475 -0.3389
  188SAPI     P21596   2.489   5.091   6.529  0.6689 -0.3188 -0.1578
  188SAPI   O1321597   2.622   5.066   6.469 -0.6068  0.1797  0.0616
  188SAPI   O1421598   2.373   5.006   6.493  0.5412 -0.1793  0.1919
  188SAPI   O1221599   2.455   5.248   6.498  0.6475 -0.0859  1.1673
  188SAPI   O1121600   2.514   5.108   6.684  0.2330  0.0159 -0.5296
  188SAPI    C121601   2.405   5.129   6.779 -0.3056  0.6545 -0.0547
  188SAPI    HA21602   2.362   5.231   6.778 -0.2801  0.6780  1.2548
  188SAPI    HB21603   2.319   5.064   6.751 -0.7052  0.8149  0.7819
  188SAPI    C221604   2.455   5.102   6.921 -0.0802 -0.5926 -0.0496
  188SAPI    HS21605   2.378   5.103   7.001  2.1977 -0.6770  2.2197
  188SAPI   O2121606   2.544   5.205   6.957  0.0706 -0.0085 -0.0761
  188SAPI   C2121607   2.501   5.328   6.977  0.0254 -0.1685 -0.2849
  188SAPI   O2221608   2.383   5.355   6.993  1.1062 -0.0482  0.0058
  188SAPI   C2221609   2.620   5.427   6.969 -0.1324 -0.1094 -0.0895
  188SAPI   H2R21610   2.711   5.365   6.952 -0.0061  0.4558 -1.5147
  188SAPI   H2S21611   2.585   5.482   6.879  0.1692 -0.3055 -0.3281
  188SAPI    C321612   2.523   4.962   6.917  0.7652  0.0110 -0.8272
  188SAPI    HX21613   2.609   4.981   6.849  1.1386  2.8209  0.3750
  188SAPI    HY21614   2.456   4.891   6.864 -0.6225  0.6208  0.0956
  188SAPI   O3121615   2.556   4.911   7.044 -0.5094 -0.3908  0.2470
  188SAPI   C3121616   2.674   4.837   7.039 -1.1124 -0.1598 -0.8416
  188SAPI   O3221617   2.748   4.832   6.943  0.1149 -0.1385  0.2341
  188SAPI   C3221618   2.692   4.748   7.168 -0.2054  0.0124 -0.4868
  188SAPI   H2X21619   2.636   4.652   7.162 -0.9640  0.2252  2.4500
  188SAPI   H2Y21620   2.642   4.804   7.250  1.8757  0.0852  0.7569
  188SAPI   C2321621   2.636   5.514   7.103  0.3279 -0.3437 -1.8472
  188SAPI   H3R21622   2.544   5.573   7.123  1.1014 -0.2928  1.8619
  188SAPI   H3S21623   2.706   5.597   7.082  0.2901  0.0707 -0.3794
  188SAPI   C2421624   2.690   5.438   7.225 -0.9045  0.1941 -0.3461
  188SAPI   H4R21625   2.743   5.510   7.291  1.7517 -1.3399 -0.7218
  188SAPI   H4S21626   2.755   5.351   7.201 -1.2106  0.1593 -1.0547
  188SAPI   C2521627   2.567   5.396   7.307  0.2394 -0.8126 -1.0469
  188SAPI   H5R21628   2.489   5.472   7.321 -1.4314 -2.7450  0.4730
  188SAPI   C2621629   2.563   5.291   7.392 -0.1329  0.7998 -0.2538
  188SAPI   H6R21630   2.473   5.267   7.452 -1.2374  0.3420 -2.0439
  188SAPI   C2721631   2.675   5.190   7.419  0.1189 -0.0227  0.0662
  188SAPI   H7R21632   2.759   5.260   7.439 -1.1345  1.1970  1.1613
  188SAPI   H7S21633   2.687   5.142   7.320  0.5837  0.9935 -0.3796
  188SAPI   C2821634   2.644   5.091   7.527 -0.2283  0.3250  0.4195
  188SAPI   H8R21635   2.635   4.987   7.494  2.1128 -0.2629  1.5067
  188SAPI   C2921636   2.615   5.124   7.658  0.2718  0.5947  0.0313
  188SAPI   H9R21637   2.586   5.041   7.723 -1.4110  0.5844 -0.6939
  188SAPI  C21021638   2.618   5.265   7.721 -0.1244 -0.0325  0.1700
  188SAPI  H10R21639   2.573   5.344   7.657 -2.9554  1.5884  3.9017
  188SAPI  H10S21640   2.728   5.278   7.732 -0.2833  1.3328  0.2815
  188SAPI  C21121641   2.554   5.270   7.858 -0.1517  0.7678 -0.1177
  188SAPI  H11R21642   2.466   5.207   7.877 -0.1413  1.4693  2.4147
  188SAPI  C21221643   2.603   5.358   7.955 -0.3407  0.3718 -0.2736
  188SAPI  H12R21644   2.556   5.360   8.054  0.0028 -0.0464 -0.0967
  188SAPI  C21321645   2.718   5.454   7.941 -0.2372  0.3822  0.3566
  188SAPI  H13R21646   2.707   5.541   8.009 -0.3589 -1.1329  2.3127
  188SAPI  H13S21647   2.726   5.492   7.837 -3.6182 -1.8164 -0.8008
  188SAPI  C21421648   2.844   5.377   7.978  0.4767  0.0211  0.5308
  188SAPI  H14R21649   2.854   5.278   7.931 -0.8492  0.4780 -0.7948
  188SAPI  C21521650   2.939   5.425   8.055 -0.1769  0.6278  0.6527
  188SAPI  H15R21651   3.014   5.354   8.094 -2.2917 -1.5698  0.8337
  188SAPI  C21621652   2.949   5.559   8.129 -0.1109  0.5377  0.5226
  188SAPI  H16R21653   2.914   5.641   8.062 -0.6344 -1.2258 -1.4033
  188SAPI  H16S21654   3.054   5.574   8.162  0.3518 -1.5968  0.0820
  188SAPI  C21721655   2.864   5.554   8.260  0.3538 -0.3756  0.5362
  188SAPI  H17R21656   2.756   5.544   8.236  0.3629  0.6528  0.0380
  188SAPI  H17S21657   2.884   5.650   8.313  3.1495 -0.2098 -0.7416
  188SAPI  C21821658   2.883   5.441   8.361 -0.4660 -0.1814  0.1138
  188SAPI  H18R21659   2.993   5.437   8.378 -0.7801 -0.1709  2.2572
  188SAPI  H18S21660   2.856   5.347   8.309  0.0720 -0.8205  0.9713
  188SAPI  C21921661   2.789   5.445   8.481  0.3547  0.2398  0.2781
  188SAPI  H19R21662   2.797   5.370   8.562  0.3111 -0.5285 -0.4261
  188SAPI  H19S21663   2.695   5.421   8.427 -0.2763 -2.7074  2.5954
  188SAPI  C22021664   2.788   5.583   8.546  0.2029  0.1455 -0.0996
  188SAPI  H20R21665   2.888   5.617   8.582 -0.5757  2.1768  0.1976
  188SAPI  H20S21666   2.724   5.586   8.636 -1.2564 -2.1878 -1.0207
  188SAPI  H20T21667   2.747   5.658   8.475  0.1513 -0.2985 -0.5444
  188SAPI   C3321668   2.844   4.728   7.198 -0.1292  0.0507 -0.0906
  188SAPI   H3X21669   2.889   4.820   7.240  0.5574 -0.0034 -0.6916
  188SAPI   H3Y21670   2.908   4.702   7.111  1.5505  1.4383  0.6952
  188SAPI   C3421671   2.872   4.632   7.308 -0.3275 -0.0049 -0.7854
  188SAPI   H4X21672   2.979   4.634   7.341 -0.0338  2.8575 -1.7941
  188SAPI   H4Y21673   2.858   4.535   7.256  0.3744 -1.0543  0.9320
  188SAPI   C3521674   2.776   4.644   7.429 -0.0966  0.6085 -0.2648
  188SAPI   H5X21675   2.786   4.550   7.488 -3.4365  0.2409 -0.1900
  188SAPI   H5Y21676   2.668   4.639   7.406  0.2025  0.3739 -1.6711
  188SAPI   C3621677   2.823   4.751   7.527 -0.2374  0.1669  0.3527
  188SAPI   H6X21678   2.817   4.854   7.485  2.1320  0.2960  0.2169
  188SAPI   H6Y21679   2.934   4.746   7.541 -0.3240 -1.0689  0.6731
  188SAPI   C3721680   2.747   4.738   7.662  0.1341 -0.1186 -0.4059
  188SAPI   H7X21681   2.767   4.640   7.711 -0.8076 -0.2363 -0.2593
  188SAPI   H7Y21682   2.642   4.757   7.632  0.2341  0.6854 -0.2629
  188SAPI   C3821683   2.802   4.838   7.770  0.1599 -0.8385 -0.1104
  188SAPI   H8X21684   2.788   4.944   7.738  1.5204 -0.0741  1.7268
  188SAPI   H8Y21685   2.913   4.838   7.769  0.1593 -1.1344 -0.0058
  188SAPI   C3921686   2.758   4.813   7.916 -0.2772  0.5063 -0.2459
  188SAPI   H9X21687   2.798   4.714   7.945 -0.3590  0.2222 -1.0745
  188SAPI   H9Y21688   2.647   4.816   7.921 -0.2857  0.5483 -0.4659
  188SAPI  C31021689   2.812   4.920   8.014  0.6684 -0.3357  0.2311
  188SAPI  H10X21690   2.771   5.020   7.992  1.2599 -0.0070  0.6061
  188SAPI  H10Y21691   2.924   4.916   8.011  0.6428 -0.1631 -1.5744
  188SAPI  C31121692   2.769   4.902   8.160 -0.2961  0.1169 -0.0081
  188SAPI  H11X21693   2.811   4.805   8.196  0.1631  0.3120 -0.0147
  188SAPI  H11Y21694   2.660   4.884   8.156 -0.0351 -1.6693  0.4989
  188SAPI  C31221695   2.807   5.023   8.254  0.1824  0.4357  0.1751
  188SAPI  H12X21696   2.759   5.117   8.221 -0.7224 -1.0748 -3.0942
  188SAPI  H12Y21697   2.917   5.036   8.251  0.0457  1.5222 -0.2707
  188SAPI  C31321698   2.753   4.994   8.395  0.0953  0.0118  0.5654
  188SAPI  H13X21699   2.814   5.055   8.465  0.3040  1.8343 -1.1547
  188SAPI  H13Y21700   2.775   4.887   8.412  1.9047  0.1802 -0.5775
  188SAPI  C31421701   2.604   5.042   8.413  0.1653 -0.3774 -0.0541
  188SAPI  H14X21702   2.537   4.998   8.336 -1.9960  4.5808 -1.2306
  188SAPI  H14Y21703   2.600   5.153   8.410  0.7072 -0.3556 -0.1483
  188SAPI  C31521704   2.561   4.998   8.552 -0.1027 -0.1395 -0.3196
  188SAPI  H15X21705   2.637   5.039   8.622  0.6370 -1.3244 -0.4251
  188SAPI  H15Y21706   2.547   4.888   8.558 -0.0784 -0.1400 -0.2644
  188SAPI  C31621707   2.429   5.077   8.588 -0.1588 -0.3515 -0.2089
  188SAPI  H16X21708   2.351   5.063   8.511 -0.9279 -0.5664  0.6001
  188SAPI  H16Y21709   2.456   5.184   8.573 -3.2813  0.2679 -1.7519
  188SAPI  C31721710   2.376   5.058   8.732  0.2299 -0.1911  0.3748
  188SAPI  H17X21711   2.472   5.047   8.786 -0.6588 -2.1988  1.6110
  188SAPI  H17Y21712   2.318   4.964   8.744 -1.0238  0.1849 -2.3803
  188SAPI  C31821713   2.290   5.172   8.785 -0.2187 -0.2515 -0.1911
  188SAPI  H18X21714   2.355   5.262   8.774 -0.1293 -0.1701  0.8793
  188SAPI  H18Y21715   2.268   5.153   8.893  0.8537 -0.3775  0.0079
  188SAPI  H18Z21716   2.199   5.184   8.722  0.7475  0.5163 -1.4714
  189POPC     N21717   2.592   5.411  11.080  0.7243 -0.0035 -0.3538
  189POPC   C1221718   2.550   5.554  11.050  0.2497 -0.1259 -1.0384
  189POPC  H12A21719   2.603   5.622  11.115 -3.3347  3.7510 -1.8795
  189POPC  H12B21720   2.445   5.551  11.075  0.5146  0.0930  0.1305
  189POPC   C1321721   2.534   5.311  10.980  0.0356  0.8879  0.3558
  189POPC  H13A21722   2.427   5.303  10.994  0.2957 -3.6125  0.6391
  189POPC  H13B21723   2.567   5.332  10.880 -0.3060 -1.7618 -0.3471
  189POPC  H13C21724   2.556   5.207  10.999  0.1676  0.5834 -1.4332
  189POPC   C1421725   2.738   5.398  11.069 -0.3692  0.5425 -0.1144
  189POPC  H14A21726   2.760   5.293  11.085 -1.7060  0.4899  1.4900
  189POPC  H14B21727   2.764   5.430  10.969  0.8651 -2.7382 -0.9179
  189POPC  H14C21728   2.782   5.455  11.150  0.2563  0.1417 -0.1680
  189POPC   C1521729   2.548   5.364  11.214 -0.5427 -0.1834 -0.8250
  189POPC  H15A21730   2.442   5.353  11.230 -0.4823  0.6134  0.2400
  189POPC  H15B21731   2.577   5.435  11.291 -2.0899 -0.4124 -0.0320
  189POPC  H15C21732   2.602   5.273  11.238  0.1137  0.0576 -1.3738
  189POPC   C1121733   2.563   5.609  10.906  0.3623 -0.1802  1.3709
  189POPC  H11A21734   2.523   5.713  10.905  2.2600  0.5951 -0.9860
  189POPC  H11B21735   2.498   5.552  10.835 -0.1271  0.0059  1.6675
  189POPC     P21736   2.797   5.726  10.911  0.2848  0.4000  0.3250
  189POPC   O1321737   2.890   5.658  11.006  0.2988  0.1959  0.0748
  189POPC   O1421738   2.722   5.843  10.959 -0.2891  0.0907 -0.6843
  189POPC   O1221739   2.695   5.614  10.853 -0.2858  0.0689  0.4648
  189POPC   O1121740   2.867   5.764  10.766 -0.3339  0.1147  0.0928
  189POPC    C121741   2.783   5.805  10.661  0.6553 -0.6559  0.8686
  189POPC    HA21742   2.713   5.882  10.700 -0.1785 -0.0690 -1.7423
  189POPC    HB21743   2.714   5.725  10.628 -1.4892  0.8488  1.5731
  189POPC    C221744   2.850   5.884  10.540  0.1270 -0.1772 -0.3272
  189POPC    HS21745   2.775   5.869  10.460 -0.3178  1.4404 -0.2375
  189POPC   O2121746   2.984   5.845  10.503 -0.4282 -0.1642  0.3298
  189POPC   C2121747   2.990   5.759  10.404 -0.6889  0.9605  0.1653
  189POPC   O2221748   2.903   5.733  10.328  0.0890 -0.3621  0.1702
  189POPC   C2221749   3.130   5.691  10.410 -0.4147  0.4882 -1.2442
  189POPC   H2R21750   3.115   5.589  10.369  1.0153 -0.1344 -0.2213
  189POPC   H2S21751   3.168   5.698  10.514  0.5641  0.9071 -1.6263
  189POPC    C321752   2.862   6.041  10.560  0.5786  0.3448  0.2111
  189POPC    HX21753   2.935   6.067  10.639 -1.0668  3.2313  0.8688
  189POPC    HY21754   2.760   6.071  10.593  0.2742 -1.3663  0.8641
  189POPC   O3121755   2.899   6.116  10.444 -0.4152  0.1714 -0.3182
  189POPC   C3121756   3.030   6.140  10.416  0.0165  0.9814 -0.3766
  189POPC   O3221757   3.116   6.090  10.480 -0.5046  0.4428 -0.5548
  189POPC   C3221758   3.045   6.225  10.284 -0.0558  0.5059  0.6295
  189POPC   H2X21759   3.147   6.268  10.289  0.5831 -0.6071 -1.7713
  189POPC   H2Y21760   2.965   6.302  10.289 -0.3625  0.3206 -0.9423
  189POPC   C2321761   3.225   5.778  10.322 -1.1849 -0.5942  0.8337
  189POPC   H3R21762   3.323   5.771  10.375 -0.8032  0.2272  0.2562
  189POPC   H3S21763   3.191   5.883  10.321 -1.5862 -0.7256  0.2448
  189POPC   C2421764   3.261   5.739  10.180 -0.0982 -0.5072  0.4092
  189POPC   H4R21765   3.294   5.633  10.180 -0.9168 -0.7675 -1.0128
  189POPC   H4S21766   3.351   5.792  10.143 -0.0951  0.4499  1.7390
  189POPC   C2521767   3.150   5.755  10.078 -1.1771  0.6790 -0.0150
  189POPC   H5R21768   3.134   5.865  10.075  1.6408  1.1092 -0.7115
  189POPC   H5S21769   3.053   5.712  10.113 -0.4454  0.9021  2.4009
  189POPC   C2621770   3.180   5.692   9.943  0.2006 -1.5121 -0.1386
  189POPC   H6R21771   3.090   5.710   9.880 -0.5418 -0.5663  1.1654
  189POPC   H6S21772   3.192   5.581   9.945  1.3486 -1.4213 -1.6696
  189POPC   C2721773   3.300   5.745   9.867  0.1980 -0.2819 -0.3415
  189POPC   H7R21774   3.391   5.745   9.930  0.2253  1.0446 -0.3583
  189POPC   H7S21775   3.277   5.853   9.849  1.9458  0.3434  1.0565
  189POPC   C2821776   3.321   5.667   9.731  0.3305  0.3995 -0.2208
  189POPC   H8R21777   3.227   5.657   9.673  0.7781 -2.3409 -0.5386
  189POPC   H8S21778   3.365   5.569   9.759  1.2020  0.8468 -0.0318
  189POPC   C2921779   3.420   5.756   9.651 -0.0898 -0.6492 -0.5726
  189POPC   H9121780   3.487   5.822   9.709  1.1943 -0.8979 -1.7254
  189POPC  C21021781   3.425   5.772   9.515 -0.4771 -0.1483 -0.1782
  189POPC  H10121782   3.503   5.841   9.479 -0.3881 -0.2839 -0.2454
  189POPC  C21121783   3.342   5.698   9.415 -0.3602 -0.0531 -0.4892
  189POPC  H11R21784   3.287   5.767   9.347  0.1498 -1.0259 -1.8978
  189POPC  H11S21785   3.261   5.636   9.459 -0.0954  0.2680  0.4742
  189POPC  C21221786   3.410   5.608   9.304  0.0193  0.0222 -0.6623
  189POPC  H12R21787   3.475   5.527   9.344  0.7726  1.1054  0.3063
  189POPC  H12S21788   3.466   5.685   9.247  2.5075 -2.9564 -2.4295
  189POPC  C21321789   3.311   5.544   9.204  0.1197  0.1445  0.0013
  189POPC  H13R21790   3.254   5.453   9.233  0.4755 -1.1813 -3.2125
  189POPC  H13S21791   3.374   5.509   9.119  2.8944  0.6294  1.8134
  189POPC  C21421792   3.210   5.643   9.151  0.1209  0.0283 -0.0332
  189POPC  H14R21793   3.254   5.745   9.146 -0.0572  0.0680 -0.7252
  189POPC  H14S21794   3.139   5.646   9.236 -0.7829  0.6679 -0.8034
  189POPC  C21521795   3.127   5.612   9.022  0.3949 -0.1614 -0.7936
  189POPC  H15R21796   3.026   5.658   9.030 -0.0571 -1.4375  1.2603
  189POPC  H15S21797   3.108   5.503   9.018  0.9498 -0.3118  0.4941
  189POPC  C21621798   3.181   5.660   8.892  0.1634  0.0171  0.6137
  189POPC  H16R21799   3.263   5.587   8.873 -0.4481 -0.0292 -2.0761
  189POPC  H16S21800   3.244   5.749   8.913 -0.6887 -0.0002  3.3946
  189POPC  C21721801   3.090   5.667   8.770  0.2876 -0.1280  0.7390
  189POPC  H17R21802   3.040   5.766   8.769  0.7631  0.1070 -1.4691
  189POPC  H17S21803   3.013   5.587   8.772  0.8596 -0.6656  2.6547
  189POPC  C21821804   3.173   5.657   8.635  0.1031 -0.5562  0.1004
  189POPC  H18R21805   3.232   5.563   8.634  0.8371 -0.1278  1.8948
  189POPC  H18S21806   3.240   5.742   8.609  1.9780 -1.9982  0.0796
  189POPC  H18T21807   3.112   5.658   8.542 -1.1139 -2.6856  0.8370
  189POPC   C3321808   3.060   6.138  10.159  0.4466  0.2041 -0.5245
  189POPC   H3X21809   2.968   6.079  10.137 -0.1748  1.6713 -1.9418
  189POPC   H3Y21810   3.139   6.062  10.172  1.2814  1.0932 -0.3670
  189POPC   C3421811   3.102   6.234  10.041 -0.2756  0.5121  0.0731
  189POPC   H4X21812   3.189   6.301  10.064  0.2513 -0.5551  1.2669
  189POPC   H4Y21813   3.015   6.301  10.024  0.9016  1.6303 -1.7192
  189POPC   C3521814   3.114   6.146   9.911 -0.0536 -0.2878 -0.6296
  189POPC   H5X21815   3.015   6.106   9.879  0.1064 -0.7635 -0.5426
  189POPC   H5Y21816   3.184   6.067   9.945 -0.1946  0.3597  1.2325
  189POPC   C3621817   3.172   6.220   9.794  0.4509 -0.6697 -0.4104
  189POPC   H6X21818   3.272   6.256   9.828 -0.9583  2.5360  0.6295
  189POPC   H6Y21819   3.111   6.312   9.779 -0.8838 -1.2918  0.9955
  189POPC   C3721820   3.169   6.129   9.671  0.1060 -0.9105  0.2490
  189POPC   H7X21821   3.065   6.093   9.658 -0.3425  1.0470 -1.9561
  189POPC   H7Y21822   3.231   6.039   9.692  1.3147  0.6163  3.7216
  189POPC   C3821823   3.214   6.202   9.541  0.1148 -0.7047  0.3283
  189POPC   H8X21824   3.305   6.252   9.581 -0.3600  0.1745  0.3246
  189POPC   H8Y21825   3.136   6.279   9.522  0.0128 -0.6131  1.0835
  189POPC   C3921826   3.253   6.108   9.424  0.2623 -0.5769  0.3550
  189POPC   H9X21827   3.177   6.028   9.408 -1.4711  1.2954 -1.0489
  189POPC   H9Y21828   3.349   6.052   9.432  1.4441  1.3645  0.2039
  189POPC  C31021829   3.257   6.180   9.286 -0.6145  0.0482  0.2930
  189POPC  H10X21830   3.350   6.241   9.285  1.0216 -2.3864 -0.4300
  189POPC  H10Y21831   3.164   6.241   9.280 -0.1482  0.7015 -0.4233
  189POPC  C31121832   3.272   6.084   9.170 -0.1694 -0.0041 -0.2834
  189POPC  H11X21833   3.179   6.024   9.164  1.1416 -1.9617 -1.5954
  189POPC  H11Y21834   3.358   6.017   9.191 -1.1518 -1.1840  0.0395
  189POPC  C31221835   3.268   6.147   9.033 -0.5156  0.3183  0.3401
  189POPC  H12X21836   3.349   6.219   9.006 -1.5150  1.0185 -0.8563
  189POPC  H12Y21837   3.178   6.212   9.026 -0.1356  0.6785 -1.4334
  189POPC  C31321838   3.263   6.034   8.925  0.3233 -0.6709  0.6529
  189POPC  H13X21839   3.174   5.969   8.937  0.5151 -1.2542 -0.9794
  189POPC  H13Y21840   3.355   5.973   8.932  2.0523  1.7999 -0.0293
  189POPC  C31421841   3.280   6.095   8.782 -0.7479 -0.6413 -0.3621
  189POPC  H14X21842   3.379   6.144   8.773 -1.1844  0.6218  1.5066
  189POPC  H14Y21843   3.206   6.176   8.769 -0.1029 -0.1995 -1.3900
  189POPC  C31521844   3.260   5.992   8.677  0.4220 -0.6347  0.1878
  189POPC  H15X21845   3.158   5.955   8.699 -0.2657  0.9378 -0.2411
  189POPC  H15Y21846   3.330   5.910   8.702 -0.6998 -2.5657 -2.7810
  189POPC  C31621847   3.262   6.038   8.527 -0.3866  0.1635  0.0951
  189POPC  H16X21848   3.248   5.947   8.463 -0.1954 -1.0368  1.7330
  189POPC  H16Y21849   3.354   6.091   8.496 -1.7195  1.5065 -1.6876
  189POPC  H16Z21850   3.174   6.101   8.502  0.0100  0.5620 -0.3160
  190POPC     N21851   5.181   2.630  11.358 -0.6584  0.1596  0.0324
  190POPC   C1221852   5.066   2.621  11.262 -0.1511  0.5875  0.2065
  190POPC  H12A21853   5.000   2.704  11.281 -2.1841 -0.8172 -0.5948
  190POPC  H12B21854   5.015   2.530  11.290  0.1189  0.0067 -1.1155
  190POPC   C1321855   5.278   2.522  11.341  0.3912  0.2831 -0.0014
  190POPC  H13A21856   5.330   2.532  11.247  0.8371 -2.7550 -0.1432
  190POPC  H13B21857   5.357   2.529  11.414 -0.6812 -1.2893  1.3505
  190POPC  H13C21858   5.227   2.427  11.338  1.4101 -0.2485 -0.4049
  190POPC   C1421859   5.254   2.762  11.339 -0.6292  0.5513  0.5805
  190POPC  H14A21860   5.190   2.841  11.374  0.6960  2.3815 -0.9767
  190POPC  H14B21861   5.335   2.783  11.408 -1.5853 -1.7129  2.4644
  190POPC  H14C21862   5.284   2.783  11.237 -0.3111  1.9131  0.9343
  190POPC   C1521863   5.127   2.625  11.502 -0.7594 -0.1960  1.0171
  190POPC  H15A21864   5.026   2.661  11.510 -1.0308 -0.8746  0.6721
  190POPC  H15B21865   5.189   2.665  11.581 -0.0316  0.5084  0.0950
  190POPC  H15C21866   5.109   2.521  11.523 -0.1315 -1.1027 -2.6151
  190POPC   C1121867   5.095   2.617  11.107 -0.3171 -0.6593  0.0212
  190POPC  H11A21868   4.999   2.593  11.057  0.2685  1.2255 -2.0890
  190POPC  H11B21869   5.162   2.531  11.084 -0.4990 -0.1698 -2.4433
  190POPC     P21870   5.061   2.858  11.031  0.1545 -0.0803 -0.2286
  190POPC   O1321871   5.129   2.982  11.082  0.3766  0.0238  0.1755
  190POPC   O1421872   4.928   2.843  11.084  0.1907  0.4190 -0.3899
  190POPC   O1221873   5.156   2.739  11.065  0.1661 -0.3866 -0.1830
  190POPC   O1121874   5.061   2.856  10.873 -0.1728 -0.0571  1.3972
  190POPC    C121875   5.199   2.879  10.821  0.5722  0.6901 -0.1227
  190POPC    HA21876   5.273   2.846  10.896 -0.7891 -0.9661  0.5440
  190POPC    HB21877   5.225   2.985  10.800  1.6874  0.0163 -2.3055
  190POPC    C221878   5.230   2.791  10.693  0.0677 -0.8438  0.3598
  190POPC    HS21879   5.323   2.841  10.660 -1.4255  0.9247 -1.2618
  190POPC   O2121880   5.123   2.803  10.598  0.4319 -0.6059 -0.2989
  190POPC   C2121881   5.165   2.792  10.467 -0.1437  0.1660 -0.0309
  190POPC   O2221882   5.279   2.787  10.430  0.0697 -0.0186 -0.6097
  190POPC   C2221883   5.048   2.769  10.375 -0.2280  0.1193 -0.3131
  190POPC   H2R21884   4.963   2.755  10.444  1.5812 -1.7501  1.5924
  190POPC   H2S21885   5.069   2.678  10.315  2.2851  1.0303 -0.8776
  190POPC    C321886   5.250   2.650  10.735  0.1097  0.1682  0.2415
  190POPC    HX21887   5.149   2.620  10.772  0.7224  0.5147  2.2092
  190POPC    HY21888   5.322   2.636  10.818  1.9323  3.5190 -0.6833
  190POPC   O3121889   5.289   2.562  10.621  0.1930  0.2001  0.4883
  190POPC   C3121890   5.426   2.560  10.609 -0.2053  0.5973 -0.0241
  190POPC   O3221891   5.504   2.584  10.697  0.2283  0.1268  0.1381
  190POPC   C3221892   5.472   2.540  10.461 -0.2229 -0.4057 -0.4170
  190POPC   H2X21893   5.484   2.642  10.419  1.1181 -0.1724  0.5092
  190POPC   H2Y21894   5.385   2.500  10.404  0.6781 -0.1388 -2.0119
  190POPC   C2321895   5.042   2.894  10.279  0.3779 -0.7047 -0.3606
  190POPC   H3R21896   5.141   2.915  10.233 -0.3420  0.6809 -1.3184
  190POPC   H3S21897   5.028   2.978  10.349 -3.4194 -1.5775  0.0468
  190POPC   C2421898   4.935   2.879  10.171  0.6501 -0.0711 -0.2149
  190POPC   H4R21899   4.834   2.856  10.212 -0.4078  2.4889 -1.2640
  190POPC   H4S21900   4.966   2.790  10.113 -0.5669 -0.7863  0.1989
  190POPC   C2521901   4.915   2.992  10.076 -0.5168  0.8042 -0.3603
  190POPC   H5R21902   5.009   3.028  10.028 -1.0653  2.0651 -0.5064
  190POPC   H5S21903   4.871   3.075  10.135 -0.1819  0.8327 -0.1463
  190POPC   C2621904   4.817   2.959   9.966  0.3623 -0.3473  0.6335
  190POPC   H6R21905   4.791   3.056   9.920  2.4354  0.5488  1.2734
  190POPC   H6S21906   4.722   2.920  10.007  0.7395 -0.1619  1.7035
  190POPC   C2721907   4.862   2.867   9.851 -0.4392 -1.0678 -0.6547
  190POPC   H7R21908   4.770   2.826   9.804 -0.4966  1.0210 -2.4489
  190POPC   H7S21909   4.926   2.785   9.891  0.0316 -0.4275 -0.0844
  190POPC   C2821910   4.922   2.942   9.728  0.0177  0.3298 -0.2102
  190POPC   H8R21911   5.005   3.007   9.762  0.6223 -1.5055  1.9978
  190POPC   H8S21912   4.852   3.016   9.684 -1.8936  0.0541  2.2408
  190POPC   C2921913   4.975   2.859   9.622 -0.1023 -0.2079  0.8664
  190POPC   H9121914   5.073   2.815   9.646 -0.3895 -0.7555  1.0390
  190POPC  C21021915   4.912   2.824   9.506  0.5327  0.5970  0.1096
  190POPC  H10121916   4.975   2.775   9.430 -0.6895 -0.0054 -0.5183
  190POPC  C21121917   4.781   2.879   9.458  1.0364 -0.3498  0.1602
  190POPC  H11R21918   4.719   2.923   9.539  2.4024 -1.4743  1.8550
  190POPC  H11S21919   4.725   2.800   9.402  1.0617 -1.9421  2.3361
  190POPC  C21221920   4.819   2.974   9.341 -0.2330 -0.6050  0.3382
  190POPC  H12R21921   4.877   2.920   9.262 -1.6956 -0.9915 -0.4981
  190POPC  H12S21922   4.876   3.059   9.384 -0.9756  1.0662 -1.8690
  190POPC  C21321923   4.697   3.041   9.266 -0.1632 -0.0094  0.0750
  190POPC  H13R21924   4.636   3.095   9.342 -1.5311  1.3122 -1.8994
  190POPC  H13S21925   4.621   2.965   9.239  0.2211 -0.1496 -0.6232
  190POPC  C21421926   4.742   3.135   9.153  0.1984  1.0812  0.3285
  190POPC  H14R21927   4.822   3.196   9.200  0.5218  1.5891 -0.8399
  190POPC  H14S21928   4.656   3.205   9.141 -0.3599  0.3611  0.0786
  190POPC  C21521929   4.794   3.078   9.024  0.3239  0.2206  0.7665
  190POPC  H15R21930   4.711   3.029   8.969 -0.9810  4.4532 -1.2825
  190POPC  H15S21931   4.872   3.001   9.041 -1.0947 -1.2040  0.9617
  190POPC  C21621932   4.869   3.184   8.944  0.9050 -0.5029  0.2178
  190POPC  H16R21933   4.967   3.201   8.992  0.0162 -0.3591  2.0300
  190POPC  H16S21934   4.813   3.279   8.932  1.4291 -0.2728 -0.3993
  190POPC  C21721935   4.907   3.135   8.803 -0.0192 -0.2315 -0.4227
  190POPC  H17R21936   4.976   3.047   8.797  2.3653  1.5138  0.7455
  190POPC  H17S21937   4.979   3.210   8.764  0.0433  0.1582  0.4341
  190POPC  C21821938   4.793   3.106   8.709  0.6026  0.1934 -0.9127
  190POPC  H18R21939   4.737   3.015   8.741  0.5745  0.7640  0.6957
  190POPC  H18S21940   4.834   3.096   8.607 -0.1935  1.9958 -1.4276
  190POPC  H18T21941   4.722   3.192   8.707  0.2599 -0.0852 -0.8158
  190POPC   C3321942   5.605   2.451  10.430  0.8083  0.2976 -0.4429
  190POPC   H3X21943   5.693   2.494  10.483  2.3520 -3.7461  0.4518
  190POPC   H3Y21944   5.621   2.451  10.320 -2.5213 -1.2094 -0.9760
  190POPC   C3421945   5.589   2.309  10.477 -0.0581 -0.2122 -0.6067
  190POPC   H4X21946   5.542   2.284  10.575 -0.2057  2.0467 -0.0855
  190POPC   H4Y21947   5.694   2.275  10.492  0.6550  0.9631 -2.7977
  190POPC   C3521948   5.526   2.222  10.367  0.1535 -0.2179  0.1738
  190POPC   H5X21949   5.588   2.221  10.275 -2.6382  1.1748 -1.7723
  190POPC   H5Y21950   5.424   2.263  10.353 -0.3711 -1.5497 -0.0026
  190POPC   C3621951   5.508   2.079  10.406  0.4147  0.1540  0.4567
  190POPC   H6X21952   5.486   2.077  10.515  1.8664  1.7744  0.8036
  190POPC   H6Y21953   5.608   2.031  10.401 -0.3700 -1.4432 -0.1181
  190POPC   C3721954   5.405   1.989  10.322 -0.1080 -0.3810  0.0524
  190POPC   H7X21955   5.300   1.992  10.358 -0.2516  0.8440 -0.4338
  190POPC   H7Y21956   5.422   1.880  10.336  0.9570 -0.3396 -0.8758
  190POPC   C3821957   5.416   2.008  10.172  0.0924 -0.0348 -0.7455
  190POPC   H8X21958   5.514   1.967  10.141 -0.0312 -0.0321 -1.1349
  190POPC   H8Y21959   5.414   2.115  10.143  0.3896 -0.0893 -0.9659
  190POPC   C3921960   5.303   1.928  10.109  0.3864 -0.1577  0.1184
  190POPC   H9X21961   5.209   1.984  10.129  0.3371  0.4832 -1.8675
  190POPC   H9Y21962   5.294   1.826  10.154  0.9836 -0.3500 -0.1977
  190POPC  C31021963   5.301   1.930   9.957 -0.0785  1.3985 -0.0421
  190POPC  H10X21964   5.204   1.891   9.918  0.8317  0.1672 -1.1044
  190POPC  H10Y21965   5.380   1.859   9.924 -2.7060 -1.5246 -0.3199
  190POPC  C31121966   5.340   2.059   9.877  0.9764  0.2557 -0.1531
  190POPC  H11X21967   5.431   2.110   9.914 -0.2708  0.7393  2.3491
  190POPC  H11Y21968   5.254   2.123   9.906 -0.3599 -2.7324  2.8410
  190POPC  C31221969   5.341   2.028   9.728 -0.1194  0.1524  0.1506
  190POPC  H12X21970   5.238   2.021   9.687 -0.1303 -3.2880  0.6139
  190POPC  H12Y21971   5.392   1.932   9.709 -2.4756 -0.7524 -1.8647
  190POPC  C31321972   5.411   2.139   9.643  0.0705  0.2669 -0.8673
  190POPC  H13X21973   5.522   2.136   9.656  0.3196 -0.8127 -2.9343
  190POPC  H13Y21974   5.360   2.237   9.654 -0.5046  0.1452 -2.2828
  190POPC  C31421975   5.414   2.109   9.494 -0.4253  0.2886 -0.1143
  190POPC  H14X21976   5.310   2.077   9.471  0.5224 -2.8941 -0.1054
  190POPC  H14Y21977   5.490   2.032   9.470 -1.3654 -0.4469 -0.7686
  190POPC  C31521978   5.425   2.230   9.400  0.1264  0.8545 -0.3238
  190POPC  H15X21979   5.516   2.288   9.426 -0.2536  0.7857  1.1933
  190POPC  H15Y21980   5.333   2.289   9.416 -0.8598  0.1325 -3.0290
  190POPC  C31621981   5.419   2.185   9.250 -0.1888  0.1859 -0.0939
  190POPC  H16X21982   5.383   2.267   9.184 -2.0770 -0.4128  0.1726
  190POPC  H16Y21983   5.338   2.108   9.254 -0.4391  0.3543 -1.5732
  190POPC  H16Z21984   5.505   2.131   9.204 -0.3606  1.0651 -1.4860
  191POPC     N21985   5.456   2.911   6.138 -0.2804 -0.4368 -0.2174
  191POPC   C1221986   5.392   2.971   6.267  0.0542 -0.3836  0.1965
  191POPC  H12A21987   5.353   2.888   6.325 -1.5913  1.1289  1.2869
  191POPC  H12B21988   5.308   3.033   6.240  0.7418 -0.7397 -2.9269
  191POPC   C1321989   5.482   3.022   6.044  0.0825  0.1765 -0.4918
  191POPC  H13A21990   5.532   3.105   6.092  1.6081  0.4894 -2.5690
  191POPC  H13B21991   5.539   2.985   5.960 -1.8636  0.5140 -1.9875
  191POPC  H13C21992   5.393   3.061   5.997 -0.7022  0.0023  0.8424
  191POPC   C1421993   5.580   2.840   6.160 -0.1626 -0.4643  0.1647
  191POPC  H14A21994   5.657   2.904   6.201 -0.9301  0.5131  0.0922
  191POPC  H14B21995   5.560   2.753   6.221  0.9133 -0.6358  0.2944
  191POPC  H14C21996   5.625   2.806   6.068 -0.4201  0.0029 -0.1317
  191POPC   C1521997   5.349   2.823   6.073 -0.3850  0.2217 -0.0949
  191POPC  H15A21998   5.336   2.739   6.140  0.8219  0.4649  0.4565
  191POPC  H15B21999   5.391   2.790   5.978  1.5758  1.4616  0.3001
  191POPC  H15C22000   5.257   2.878   6.066 -1.3928 -1.4172  0.1336
  191POPC   C1122001   5.482   3.056   6.358  0.0089  0.3256 -0.2045
  191POPC  H11A22002   5.550   2.987   6.413  0.9146  0.2808 -1.3618
  191POPC  H11B22003   5.419   3.113   6.430 -0.0174 -0.8542  0.7276
  191POPC     P22004   5.711   3.182   6.328  0.5394  0.4301  0.2041
  191POPC   O1322005   5.754   3.295   6.241  0.0911  0.7368 -0.4251
  191POPC   O1422006   5.788   3.058   6.321 -0.0494  0.2098 -0.0351
  191POPC   O1222007   5.559   3.152   6.286 -0.3548 -0.2665 -0.4396
  191POPC   O1122008   5.689   3.233   6.478  0.6330 -0.2681 -0.4036
  191POPC    C122009   5.720   3.154   6.592 -0.4188 -0.0089  0.3754
  191POPC    HA22010   5.816   3.197   6.628 -1.3376  0.5105  2.2507
  191POPC    HB22011   5.747   3.053   6.555  1.3001  0.2272  0.9218
  191POPC    C222012   5.608   3.143   6.699  0.5044  0.7302  0.0797
  191POPC    HS22013   5.517   3.099   6.653 -0.5963  0.2809  2.6405
  191POPC   O2122014   5.583   3.274   6.747 -0.3462 -0.0985  0.0519
  191POPC   C2122015   5.465   3.325   6.769 -0.5638  0.6734 -0.1740
  191POPC   O2222016   5.358   3.263   6.739  0.1664 -0.2092 -0.5068
  191POPC   C2222017   5.476   3.447   6.864  0.6614 -0.2402  0.0855
  191POPC   H2R22018   5.521   3.529   6.803 -0.9719  0.0943 -0.6857
  191POPC   H2S22019   5.554   3.423   6.940  0.6827  0.5841  0.3248
  191POPC    C322020   5.648   3.040   6.815 -0.0222 -0.1402  0.5520
  191POPC    HX22021   5.748   3.084   6.836  1.6678 -1.9491 -3.0813
  191POPC    HY22022   5.654   2.935   6.777  0.4487 -0.7204  2.2178
  191POPC   O3122023   5.553   3.055   6.927 -0.0900 -0.0267  0.3819
  191POPC   C3122024   5.449   2.984   6.910 -0.2115 -0.2117 -0.0705
  191POPC   O3222025   5.417   2.925   6.807 -0.1597 -0.5863 -0.0051
  191POPC   C3222026   5.363   2.993   7.031  0.0321  0.3386  0.2001
  191POPC   H2X22027   5.313   3.092   7.040  1.4814  1.5281 -3.7542
  191POPC   H2Y22028   5.418   2.970   7.125 -1.1614 -0.0649  0.8221
  191POPC   C2322029   5.346   3.495   6.925 -0.1097  0.4124 -0.2779
  191POPC   H3R22030   5.270   3.521   6.849  0.0852 -2.5522 -1.5648
  191POPC   H3S22031   5.365   3.592   6.976 -1.4167 -0.6198  2.2375
  191POPC   C2422032   5.290   3.414   7.045  0.0601 -0.1359  0.0325
  191POPC   H4R22033   5.277   3.308   7.012  0.3544 -0.1192 -0.1431
  191POPC   H4S22034   5.193   3.453   7.081  0.9716  2.5666 -0.3064
  191POPC   C2522035   5.393   3.407   7.166 -0.2347  0.0767  0.1292
  191POPC   H5R22036   5.438   3.508   7.174  0.2441 -0.0908 -0.3923
  191POPC   H5S22037   5.461   3.326   7.131 -0.3279 -1.2637  2.9320
  191POPC   C2622038   5.339   3.359   7.296 -0.3887 -0.0744  0.3339
  191POPC   H6R22039   5.270   3.272   7.287 -1.3857  0.6324  1.0319
  191POPC   H6S22040   5.275   3.445   7.324 -0.0223  0.5958 -0.8910
  191POPC   C2722041   5.445   3.334   7.402  0.4634  0.3609  0.4108
  191POPC   H7R22042   5.517   3.419   7.401  0.1346  0.6500  1.3972
  191POPC   H7S22043   5.499   3.238   7.385 -1.5803 -1.2366  2.5949
  191POPC   C2822044   5.371   3.332   7.540  0.3014  0.4272  0.8785
  191POPC   H8R22045   5.290   3.256   7.544  1.7220 -1.0521  1.9680
  191POPC   H8S22046   5.323   3.433   7.548 -0.0851  0.1448  2.3946
  191POPC   C2922047   5.482   3.315   7.649 -0.2713 -0.1368  0.1491
  191POPC   H9122048   5.533   3.219   7.634 -1.1021 -0.3227 -1.6753
  191POPC  C21022049   5.515   3.401   7.744  0.2746 -0.2097 -0.0214
  191POPC  H10122050   5.604   3.370   7.800  1.2165 -2.2236 -2.5129
  191POPC  C21122051   5.453   3.539   7.768 -0.5881 -0.3954  0.7492
  191POPC  H11R22052   5.351   3.536   7.811 -1.1134 -0.1104 -0.4734
  191POPC  H11S22053   5.439   3.596   7.674 -1.9112 -1.9782 -0.0445
  191POPC  C21222054   5.542   3.627   7.866  0.2663  0.0654  0.0693
  191POPC  H12R22055   5.510   3.733   7.865 -0.0460  0.0050  1.9993
  191POPC  H12S22056   5.648   3.630   7.831  0.1866 -0.3465 -0.2112
  191POPC  C21322057   5.543   3.585   8.018  0.2538 -0.3982  0.1920
  191POPC  H13R22058   5.569   3.478   8.033 -2.6179 -1.1243  0.4134
  191POPC  H13S22059   5.436   3.597   8.049  0.6676  2.5030  0.6421
  191POPC  C21422060   5.624   3.686   8.103 -0.0344 -0.0831  0.6926
  191POPC  H14R22061   5.619   3.789   8.063  0.5505  0.4860  2.0503
  191POPC  H14S22062   5.726   3.642   8.095 -0.9455 -2.3777  1.1550
  191POPC  C21522063   5.605   3.701   8.251 -0.0047  0.7747 -0.0353
  191POPC  H15R22064   5.574   3.603   8.294  0.4924  0.7460  0.2510
  191POPC  H15S22065   5.519   3.770   8.264  0.2865  1.4206 -1.4474
  191POPC  C21622066   5.722   3.758   8.331 -0.8897  0.0498  0.0262
  191POPC  H16R22067   5.807   3.778   8.262  1.3471  0.6779  2.8377
  191POPC  H16S22068   5.763   3.677   8.395 -1.4722 -0.3513 -0.1118
  191POPC  C21722069   5.700   3.882   8.412  0.4437  0.2896 -0.2868
  191POPC  H17R22070   5.692   3.962   8.336 -2.8334  0.4835  0.1882
  191POPC  H17S22071   5.782   3.907   8.483 -0.8594  2.3996  0.4984
  191POPC  C21822072   5.581   3.891   8.507 -0.4827  0.1089 -0.5791
  191POPC  H18R22073   5.582   3.798   8.568 -0.4010  0.4949  0.0158
  191POPC  H18S22074   5.491   3.914   8.447 -0.1949  1.0266 -0.6551
  191POPC  H18T22075   5.600   3.974   8.578 -1.5495 -2.0402  2.3555
  191POPC   C3322076   5.245   2.881   7.046  0.1072  0.7687 -0.1416
  191POPC   H3X22077   5.286   2.778   7.045  0.0594  0.7380 -2.9528
  191POPC   H3Y22078   5.172   2.882   6.962 -2.6462 -2.5087  2.0998
  191POPC   C3422079   5.142   2.909   7.155 -0.5565 -0.0900 -0.8006
  191POPC   H4X22080   5.095   3.009   7.143  2.6155  1.8165  1.8114
  191POPC   H4Y22081   5.197   2.924   7.251 -1.8240  2.6706 -0.4341
  191POPC   C3522082   5.032   2.800   7.159  1.0419  0.5413  0.4271
  191POPC   H5X22083   5.090   2.708   7.137  1.2134  0.4340  1.2890
  191POPC   H5Y22084   4.977   2.826   7.066  1.3775  1.1710  0.4058
  191POPC   C3622085   4.954   2.798   7.291  1.0182  0.4615  0.6598
  191POPC   H6X22086   4.873   2.725   7.268  2.0164  0.2639 -2.5520
  191POPC   H6Y22087   4.900   2.892   7.317  1.4358  0.4965  1.3885
  191POPC   C3722088   5.034   2.753   7.416 -0.0024  0.1782 -0.1881
  191POPC   H7X22089   5.114   2.827   7.437  0.6702 -0.7228  0.4484
  191POPC   H7Y22090   5.076   2.654   7.387  0.7031 -0.2522  2.1912
  191POPC   C3822091   4.946   2.732   7.538  0.4120  0.3478  0.2413
  191POPC   H8X22092   4.974   2.631   7.577  0.0143 -0.0436 -0.4895
  191POPC   H8Y22093   4.848   2.708   7.491  1.1578  0.5160 -1.4257
  191POPC   C3922094   4.944   2.842   7.645 -0.0896 -0.4480  0.1057
  191POPC   H9X22095   4.913   2.933   7.589 -2.8621 -0.9523  0.7328
  191POPC   H9Y22096   5.050   2.849   7.676  0.6022  1.9523 -2.5833
  191POPC  C31022097   4.843   2.823   7.758 -0.2080  0.3017  0.7520
  191POPC  H10X22098   4.819   2.716   7.771 -1.5401  0.6292  1.1028
  191POPC  H10Y22099   4.746   2.876   7.745 -0.6141 -0.1651  1.8181
  191POPC  C31122100   4.897   2.855   7.894 -0.1520 -0.5992  0.2632
  191POPC  H11X22101   4.919   2.963   7.878 -2.0579 -0.4035 -1.2604
  191POPC  H11Y22102   4.989   2.798   7.918  1.2224  1.2423 -0.5152
  191POPC  C31222103   4.792   2.832   8.002  0.1224 -0.2358 -1.0301
  191POPC  H12X22104   4.791   2.723   8.024  1.4460  0.3670  2.3384
  191POPC  H12Y22105   4.694   2.856   7.957 -1.0151 -0.0289  1.4535
  191POPC  C31322106   4.807   2.920   8.130 -0.2018  0.2609 -0.1555
  191POPC  H13X22107   4.703   2.926   8.170 -0.0834 -1.3804  0.4319
  191POPC  H13Y22108   4.830   3.023   8.096  0.6609  0.4233  0.8988
  191POPC  C31422109   4.906   2.862   8.231 -0.2142 -0.1338 -0.8632
  191POPC  H14X22110   5.007   2.864   8.185  0.7395  1.5126  1.2160
  191POPC  H14Y22111   4.886   2.754   8.249  1.6590 -0.4715 -0.7083
  191POPC  C31522112   4.918   2.944   8.360  0.1199 -0.5389  0.5728
  191POPC  H15X22113   4.817   2.931   8.405 -0.0503 -0.0975  0.3253
  191POPC  H15Y22114   4.923   3.050   8.325 -0.2117 -1.5850 -2.8975
  191POPC  C31622115   5.031   2.899   8.458  0.3302  0.3664 -0.5170
  191POPC  H16X22116   5.006   2.795   8.489 -2.8869  0.9037 -1.0725
  191POPC  H16Y22117   5.018   2.952   8.554  2.2067 -0.1640  0.0536
  191POPC  H16Z22118   5.137   2.912   8.429  1.1364 -0.8977  1.7319
  192POPC     N22119   4.071   5.535   5.890  0.5659  0.8433 -0.1325
  192POPC   C1222120   3.956   5.548   5.991 -0.6834 -0.0043  0.9543
  192POPC  H12A22121   3.982   5.467   6.059  1.1912  0.8990  1.3351
  192POPC  H12B22122   3.860   5.523   5.948  0.2279 -1.2922 -0.3842
  192POPC   C1322123   4.050   5.631   5.779 -0.3630 -1.0930  0.6072
  192POPC  H13A22124   3.959   5.616   5.722 -0.7168 -0.8282  1.0971
  192POPC  H13B22125   4.065   5.731   5.818 -1.1625 -1.4969  1.9981
  192POPC  H13C22126   4.135   5.627   5.714  1.4068  1.0030  2.7083
  192POPC   C1422127   4.202   5.569   5.946 -0.2135  0.3569  0.0069
  192POPC  H14A22128   4.257   5.620   5.869  0.3775  1.5475  1.1920
  192POPC  H14B22129   4.199   5.630   6.036  0.0805 -0.8889  0.8761
  192POPC  H14C22130   4.264   5.483   5.966 -1.2018 -0.2264  0.6657
  192POPC   C1522131   4.069   5.398   5.824  0.4483 -0.1266  0.7032
  192POPC  H15A22132   4.128   5.327   5.880  1.1195 -3.0479 -3.4613
  192POPC  H15B22133   4.119   5.414   5.729 -3.0423  1.2349 -1.0240
  192POPC  H15C22134   3.971   5.364   5.793 -0.0488  2.5950 -0.9168
  192POPC   C1122135   3.939   5.684   6.062 -0.2033  0.2393  0.4628
  192POPC  H11A22136   3.858   5.684   6.139  0.8932  0.1541  1.6271
  192POPC  H11B22137   3.900   5.745   5.978  0.9134 -0.4545 -0.5708
  192POPC     P22138   4.087   5.876   6.123  0.0280 -0.1801  0.1764
  192POPC   O1322139   3.971   5.934   6.200  0.1163  0.0985 -0.1786
  192POPC   O1422140   4.120   5.919   5.991  0.6638 -0.3651 -0.5187
  192POPC   O1222141   4.063   5.723   6.112  0.3676 -0.0090 -1.2520
  192POPC   O1122142   4.216   5.908   6.208  0.6010  0.7116  0.2899
  192POPC    C122143   4.276   5.808   6.300  0.2079  0.0573  0.2013
  192POPC    HA22144   4.387   5.803   6.294  0.2465  1.3713 -0.3905
  192POPC    HB22145   4.251   5.702   6.280 -1.4832  0.6347 -0.8042
  192POPC    C222146   4.230   5.843   6.441 -0.2446  1.0895 -0.1855
  192POPC    HS22147   4.120   5.847   6.431 -0.3645  0.7846  0.9216
  192POPC   O2122148   4.283   5.971   6.476 -0.3908 -0.5012  0.1028
  192POPC   C2122149   4.195   6.051   6.532  0.3163  0.3337  0.4512
  192POPC   O2222150   4.076   6.027   6.549 -0.0730  0.5787  0.5853
  192POPC   C2222151   4.264   6.178   6.580  0.0402  0.3721  0.6181
  192POPC   H2R22152   4.173   6.234   6.611  0.1884  0.2092  1.3725
  192POPC   H2S22153   4.312   6.239   6.501  0.6277  0.9428  1.4021
  192POPC    C322154   4.260   5.729   6.545  0.3065  0.1273 -0.8824
  192POPC    HX22155   4.360   5.682   6.544 -0.3973 -1.4245 -0.3977
  192POPC    HY22156   4.191   5.644   6.524  0.2704 -0.1821  0.4532
  192POPC   O3122157   4.230   5.783   6.682  0.2588 -0.0046 -0.3099
  192POPC   C3122158   4.111   5.744   6.727  0.6930 -0.4463  0.0493
  192POPC   O3222159   4.035   5.663   6.680 -0.2837  0.2719  0.4238
  192POPC   C3222160   4.072   5.835   6.841  0.3818  0.2403 -0.2292
  192POPC   H2X22161   4.009   5.768   6.904  2.3647  1.4299  3.1465
  192POPC   H2Y22162   4.000   5.912   6.806 -0.7119  1.0111  3.5366
  192POPC   C2322163   4.371   6.157   6.689  0.4264  0.3126 -0.0540
  192POPC   H3R22164   4.440   6.081   6.648  0.6996 -0.5458  1.9355
  192POPC   H3S22165   4.328   6.111   6.781 -0.6538  1.0897 -0.1562
  192POPC   C2422166   4.450   6.280   6.720  0.6796  0.1126  0.4677
  192POPC   H4R22167   4.377   6.360   6.744 -0.7352 -1.0854  0.2242
  192POPC   H4S22168   4.503   6.317   6.629 -2.9658 -1.6636 -2.5201
  192POPC   C2522169   4.566   6.272   6.816  0.3907 -0.0148 -0.0440
  192POPC   H5R22170   4.610   6.373   6.832 -1.0794  0.6679 -0.2326
  192POPC   H5S22171   4.642   6.197   6.786 -1.6521 -1.4795 -1.6360
  192POPC   C2622172   4.525   6.235   6.964  0.9228  0.0513  0.4531
  192POPC   H6R22173   4.621   6.214   7.015  1.8365  1.4150 -0.6519
  192POPC   H6S22174   4.477   6.135   6.964  2.0671 -0.5164  1.9227
  192POPC   C2722175   4.433   6.341   7.032  0.6813  0.1263  0.0854
  192POPC   H7R22176   4.331   6.313   6.996  1.0984 -1.3645  0.0427
  192POPC   H7S22177   4.460   6.442   6.994  2.6154 -0.1060  0.7949
  192POPC   C2822178   4.438   6.342   7.189 -0.4543  0.0484 -0.6584
  192POPC   H8R22179   4.431   6.238   7.226 -2.8306  0.7195  0.8950
  192POPC   H8S22180   4.346   6.393   7.225 -0.2394 -0.8180  1.1466
  192POPC   C2922181   4.545   6.430   7.241  0.0757 -0.4666  0.1671
  192POPC   H9122182   4.628   6.444   7.170 -0.1938  0.5333  0.0363
  192POPC  C21022183   4.554   6.492   7.356  0.1322  0.1753 -0.8591
  192POPC  H10122184   4.645   6.545   7.389 -0.7414  1.7240 -0.8761
  192POPC  C21122185   4.452   6.481   7.468 -0.4217 -0.5078  0.7085
  192POPC  H11R22186   4.373   6.410   7.437 -1.9216  0.3903  2.4211
  192POPC  H11S22187   4.397   6.577   7.475  0.9892  0.2946  1.1842
  192POPC  C21222188   4.528   6.425   7.587  0.4394 -0.9820  0.2518
  192POPC  H12R22189   4.604   6.349   7.559  0.6588 -0.5644 -0.2936
  192POPC  H12S22190   4.455   6.382   7.659 -1.2320  2.3342  0.6173
  192POPC  C21322191   4.603   6.536   7.670  0.2832  0.2483  0.4431
  192POPC  H13R22192   4.521   6.607   7.693 -1.5802 -1.1948 -1.5052
  192POPC  H13S22193   4.685   6.584   7.612  0.0380 -0.4867 -0.5176
  192POPC  C21422194   4.674   6.474   7.801  1.2274 -0.0697  0.1188
  192POPC  H14R22195   4.763   6.533   7.833 -1.8613  3.3232  2.7761
  192POPC  H14S22196   4.715   6.377   7.764 -1.2131 -1.6019  1.3543
  192POPC  C21522197   4.584   6.446   7.925 -0.9797 -0.1350  0.6140
  192POPC  H15R22198   4.517   6.363   7.893  0.9646 -1.1164 -1.0543
  192POPC  H15S22199   4.519   6.531   7.953 -3.1379 -1.8539  0.9136
  192POPC  C21622200   4.675   6.423   8.050 -0.0656  0.3969 -1.2259
  192POPC  H16R22201   4.748   6.506   8.057  0.7527 -0.1642 -2.8074
  192POPC  H16S22202   4.736   6.331   8.035  1.4727  0.8061  2.2382
  192POPC  C21722203   4.604   6.414   8.186 -0.1381  0.0255  0.2524
  192POPC  H17R22204   4.680   6.385   8.262  0.8118 -1.9563 -1.4038
  192POPC  H17S22205   4.532   6.331   8.171 -2.3140  1.6643  1.3996
  192POPC  C21822206   4.526   6.539   8.228 -0.0692  0.0173 -0.3390
  192POPC  H18R22207   4.556   6.626   8.166  0.5986 -0.0084 -0.0570
  192POPC  H18S22208   4.549   6.563   8.334  0.1042  1.5844 -0.7077
  192POPC  H18T22209   4.419   6.508   8.223 -0.4370  1.4817 -2.4800
  192POPC   C3322210   4.175   5.888   6.942  0.0706  0.1594  0.0581
  192POPC   H3X22211   4.257   5.935   6.885  1.9811 -1.2725  1.5461
  192POPC   H3Y22212   4.216   5.796   6.990 -1.1827  0.1853  1.2446
  192POPC   C3422213   4.119   5.975   7.052  0.4611  0.3330 -0.2857
  192POPC   H4X22214   4.012   5.959   7.077  0.2646 -1.2662 -2.0169
  192POPC   H4Y22215   4.122   6.081   7.019  1.3704  0.5117  0.3806
  192POPC   C3522216   4.199   5.958   7.181 -0.2548  0.4177 -0.2345
  192POPC   H5X22217   4.310   5.967   7.173 -0.1673 -0.3574  0.0450
  192POPC   H5Y22218   4.179   5.856   7.220 -1.0527  1.1963  1.4066
  192POPC   C3622219   4.151   6.053   7.282 -0.0196 -0.1166 -0.0303
  192POPC   H6X22220   4.046   6.045   7.317 -0.4050  0.1160 -1.1139
  192POPC   H6Y22221   4.151   6.161   7.257  0.6227  0.4985  2.5034
  192POPC   C3722222   4.242   6.061   7.406  0.3251  0.9694  0.1519
  192POPC   H7X22223   4.345   6.082   7.371 -0.1305  0.0441 -1.8048
  192POPC   H7Y22224   4.241   5.963   7.458  0.1085  0.5073 -0.7073
  192POPC   C3822225   4.195   6.174   7.498 -0.3344  0.2863 -0.3463
  192POPC   H8X22226   4.085   6.172   7.509 -0.4966 -0.5339 -1.9771
  192POPC   H8Y22227   4.219   6.279   7.470  0.3069  0.4185  0.6781
  192POPC   C3922228   4.259   6.170   7.639 -0.5465  0.0532 -0.0852
  192POPC   H9X22229   4.370   6.175   7.629 -0.5068  1.3555  0.8366
  192POPC   H9Y22230   4.233   6.074   7.690 -1.7290 -0.8062 -2.2425
  192POPC  C31022231   4.188   6.278   7.722 -0.5059 -0.4142  0.0048
  192POPC  H10X22232   4.078   6.274   7.705 -0.5249 -0.0559  0.0374
  192POPC  H10Y22233   4.206   6.380   7.683  0.5085  0.0873  1.7549
  192POPC  C31122234   4.219   6.267   7.872  0.1330 -0.7758 -0.0023
  192POPC  H11X22235   4.321   6.309   7.889  0.6973 -2.2117  0.2497
  192POPC  H11Y22236   4.213   6.163   7.910 -0.8147 -1.4160 -1.8745
  192POPC  C31222237   4.122   6.356   7.961 -0.3144 -0.0990 -0.1996
  192POPC  H12X22238   4.016   6.321   7.956 -0.0055 -1.1687  0.5852
  192POPC  H12Y22239   4.122   6.454   7.910  0.4324 -0.9679 -1.9136
  192POPC  C31322240   4.166   6.355   8.109 -0.2643  0.2057 -0.7782
  192POPC  H13X22241   4.109   6.433   8.164  1.0602 -0.4154  1.5880
  192POPC  H13Y22242   4.275   6.378   8.104 -0.2138  0.3851  0.9365
  192POPC  C31422243   4.164   6.217   8.175 -0.4082 -0.8465  0.5529
  192POPC  H14X22244   4.234   6.157   8.113 -0.2778  0.1374 -0.2613
  192POPC  H14Y22245   4.061   6.177   8.168 -1.2545  1.2187  0.6354
  192POPC  C31522246   4.198   6.208   8.325  0.4558 -0.4529  0.0632
  192POPC  H15X22247   4.302   6.237   8.352  0.4878  0.8869 -1.4297
  192POPC  H15Y22248   4.186   6.100   8.349 -1.6953 -0.2134  0.1946
  192POPC  C31622249   4.116   6.289   8.423  0.4938 -0.2863  0.1372
  192POPC  H16X22250   4.011   6.265   8.399  0.4423 -1.0289  1.1017
  192POPC  H16Y22251   4.128   6.398   8.404  0.5966 -0.2530  0.3844
  192POPC  H16Z22252   4.134   6.269   8.531  1.4764  1.5402  0.3305
  193SOD    SOD22253   5.091   3.981   0.666 -0.3694 -0.4022 -0.1331
  194SOD    SOD22254   1.001   2.253   5.871  0.2640 -0.4679 -0.0117
  195SOD    SOD22255   5.999   1.428   2.422  0.0390 -0.2042 -0.4503
  196SOD    SOD22256   5.161   6.115  13.756  0.3780 -0.0701  0.0465
  197SOD    SOD22257   5.354   0.511   2.217 -0.3574  0.2697 -0.0646
  198SOD    SOD22258   4.127   0.383  13.482 -0.2035 -0.4944 -0.1761
  199SOD    SOD22259   3.281   4.181  12.573 -1.0594  0.5607 -0.0758
  200SOD    SOD22260   5.450   1.079  14.005 -0.0301  0.4076 -0.3980
  201SOD    SOD22261   3.756   3.691  11.332  0.0262 -0.1462  0.2130
  202SOD    SOD22262   1.316   1.805  11.578 -0.4347 -0.1220  0.3832
  203SOD    SOD22263   1.934   3.218   5.562  0.2742 -0.4091 -0.6164
  204SOD    SOD22264   3.091   6.111  11.351  0.2139 -0.1560  0.3298
  205SOD    SOD22265   6.269   0.850  13.663 -0.2163 -0.5394  0.3395
  206SOD    SOD22266   0.382   1.161   0.419 -0.1006  0.7482  0.3461
  207SOD    SOD22267   1.726   5.890   0.566 -0.2762  0.2199 -0.0963
  208SOD    SOD22268   1.557   5.677   5.044  0.5891 -0.2210 -0.4174
  209SOD    SOD22269   3.667   5.672   2.270 -0.0919 -0.0186 -0.1435
  210SOD    SOD22270   4.203   0.900  16.361 -0.1551 -0.1535  0.5165
  211SOD    SOD22271   6.620   0.147   4.717 -0.1613  0.7055  0.3403
  212SOD    SOD22272   3.085   0.859   5.940  0.4633 -0.1515 -0.3371
  213SOD    SOD22273   1.868   3.609  11.458  0.2386  0.1148  0.1455
  214SOD    SOD22274   5.185   3.108   5.470  0.3135  0.0529 -0.0723
  215SOD    SOD22275   0.450   1.078   2.355  0.3697  0.6132  0.7217
  216SOD    SOD22276   6.665   1.762   3.067  0.3148 -0.0376  0.4754
  217SOD    SOD22277   1.445   6.356   0.398  0.0402  0.5286  0.0902
  218SOD    SOD22278   2.028   0.458  13.168  0.4445  0.0511 -0.3304
  219SOD    SOD22279   4.655   0.728  12.600  0.1289  0.4166  0.1117
  220SOD    SOD22280   3.476   3.597  12.566 -0.0580 -0.2888  0.2899
  221SOD    SOD22281   0.644   4.162   6.268  0.0056  0.4218 -0.0189
  222SOD    SOD22282   6.405   5.044  12.768  0.5444  0.4879  0.1368
  223SOD    SOD22283   5.543   2.148   2.763  0.0422  0.0311 -0.1869
  224SOD    SOD22284   2.142   1.660   0.039  0.3504  0.1318 -0.1095
  225SOD    SOD22285   2.277   1.769   0.874 -1.0125  0.2729  0.1251
  226SOD    SOD22286   4.840   4.367  11.738 -0.4001 -0.6829 -0.2529
  227SOD    SOD22287   5.880   2.455  12.012  0.0676  0.1825 -0.1157
  228SOD    SOD22288   4.186   2.419  10.854  0.1617  0.4736 -0.0726
  229SOD    SOD22289   3.525   6.181  13.297 -0.0875 -0.0485 -0.4383
  230SOD    SOD22290   0.303   1.172  11.625 -0.3028  0.0772 -0.0312
  231SOD    SOD22291   1.819   5.780  13.524 -0.1128  0.1310  0.1025
  232SOD    SOD22292   0.923   4.031  12.574  0.4277 -0.1752  0.4649
  233SOD    SOD22293   5.435   5.391  10.219  0.1964 -0.2197 -0.0247
  234SOD    SOD22294   6.638   3.824  14.824  0.2690  0.5058  0.1645
  235SOD    SOD22295   5.709   5.530  11.340  0.0406 -0.1058  1.0975
  236SOD    SOD22296   3.704   5.899   4.875 -0.3113  0.5307  0.1406
  237SOD    SOD22297   4.937   3.770  14.751 -0.1659 -0.7433 -0.5828
  238SOD    SOD22298   0.007   0.660  11.307 -0.0598 -0.1170  0.2147
  239SOD    SOD22299   2.768   5.358   6.120 -0.1710 -0.2710  0.0232
  240SOD    SOD22300   2.457   3.169  16.713 -0.2414 -0.0443  0.2129
  241SOD    SOD22301   3.670   1.669   4.852  0.4096 -0.3387 -0.2826
  242SOD    SOD22302   6.440   3.837   0.638  0.2369  0.3166  0.2270
  243SOD    SOD22303   2.684   4.821   4.873 -0.4693 -0.1835  0.4204
  244SOD    SOD22304   3.436   4.165   4.781  0.0657  0.5472 -0.1215
  245SOD    SOD22305   1.282   5.937   4.109  0.5582 -0.4298  0.1990
  246SOD    SOD22306   2.346   1.112   6.183  0.6899  0.0482 -0.1527
  247SOD    SOD22307   5.982   6.500   4.448  0.4039  0.1940 -0.1694
  248SOD    SOD22308   2.753   2.463  17.173  0.0096 -0.5685 -0.2256
  249SOD    SOD22309   0.100   3.125  16.384  0.0635  0.1057 -0.1334
  250SOD    SOD22310   6.634   2.943  12.660  0.1240 -0.1497  0.7101
  251SOD    SOD22311   5.684   1.274   0.692 -0.3524 -0.2281 -0.1487
  252SOD    SOD22312   2.304   0.807   3.870  0.5837  0.2120 -0.2737
  253SOD    SOD22313   4.213   0.137   2.933  0.1305  0.3679 -0.2430
  254SOD    SOD22314   4.683   2.755   6.454  0.2752 -0.4146  0.4764
  255SOD    SOD22315   0.557   3.495   2.714 -0.5482  0.7556  0.1926
  256SOD    SOD22316   5.119   4.504   0.186 -0.1056  0.2860  0.0697
  257SOD    SOD22317   2.056   1.493  11.638  0.1554 -0.2689  0.5154
  258SOD    SOD22318   5.264   0.868  17.048  0.1120 -0.2063  0.1786
  259SOD    SOD22319   0.666   0.176  10.671  0.3313  0.2384  0.3615
  260SOD    SOD22320   6.202   3.808   5.248  0.4920  0.2670 -0.1960
  261SOD    SOD22321   6.289   6.703   0.421 -0.8647  0.2356  0.1576
  262SOD    SOD22322   2.773   5.030   0.643  0.2630  0.0967 -0.1001
  263SOD    SOD22323   6.113   3.978   0.095 -0.7607 -0.1543 -0.1646
  264SOD    SOD22324   0.207   5.244   4.521  0.0932  0.4663  0.1377
  265SOD    SOD22325   4.226   1.780   6.722  0.0588 -0.3682  0.3779
  266SOD    SOD22326   2.435   1.758  12.147  0.0506 -0.1936 -0.2342
  267SOD    SOD22327   0.374   6.214  16.972 -0.3529 -0.6999 -0.2139
  268SOD    SOD22328   1.656   4.731  13.406  0.0852 -0.0873 -0.2495
  269SOD    SOD22329   3.517   5.930  15.857  0.2364 -0.5217  0.5475
  270CLA    CLA22330   6.469   0.689  12.153  0.2055 -0.3894  0.1036
  271CLA    CLA22331   4.744   3.033   4.667 -0.0495  0.0556  0.2516
  272CLA    CLA22332   2.320   1.200  12.415 -0.2638 -0.2248 -0.1068
  273CLA    CLA22333   3.226   1.009   0.330  0.0530 -0.2695 -0.0081
  274CLA    CLA22334   5.130   5.717   1.800 -0.1329 -0.3881 -0.1856
  275CLA    CLA22335   1.417   5.100  13.290 -0.0207  0.0451  0.2985
  276CLA    CLA22336   0.452   3.132   3.889 -0.0552 -0.4220 -0.0280
  277CLA    CLA22337   1.797   6.167  14.194 -0.0923 -0.0534  0.0177
  278CLA    CLA22338   5.326   0.221  16.134 -0.1299  0.2425  0.4286
  279CLA    CLA22339   3.054   2.007  17.129 -0.2550 -0.2277  0.0987
  280CLA    CLA22340   2.707   6.680  15.986 -0.3245  0.1013 -0.3286
  281CLA    CLA22341   1.438   3.329  12.653 -0.3009  0.2600 -0.1849
  282CLA    CLA22342   2.924   4.674   0.963 -0.0425  0.0913  0.2538
  283CLA    CLA22343   2.104   3.734  13.488  0.0157  0.1516  0.1949
  284CLA    CLA22344   2.913   4.274   4.807 -0.2887 -0.2762 -0.0656
  285CLA    CLA22345   5.968   3.624  16.947  0.1616  0.1129 -0.4341
  286CLA    CLA22346   4.199   0.747  14.446  0.4346 -0.0870  0.2019
  287CLA    CLA22347   0.345   0.913  11.540 -0.1887  0.1808 -0.0165
  288CLA    CLA22348   3.658   3.786   5.838 -0.0754  0.1893 -0.1220
  289CLA    CLA22349   2.675   0.766   4.397 -0.1991 -0.3076  0.7159
  290CLA    CLA22350   3.858   2.076   0.561  0.4753  0.0326  0.5331
  291CLA    CLA22351   2.293   5.462  16.200  0.0812  0.2599  0.2137
  292CLA    CLA22352   4.558   3.853  16.749 -0.1573  0.0983 -0.1002
  293CLA    CLA22353   1.375   0.181   2.121  0.4588 -0.1240 -0.2912
  294CLA    CLA22354   4.198   6.464  13.978 -0.3836  0.0163  0.2820
  295CLA    CLA22355   3.935   1.389  12.866 -0.4445 -0.1486  0.0724
  296CLA    CLA22356   0.201   3.129   5.205 -0.2374 -0.0302  0.0785
  297CLA    CLA22357   5.012   0.228  12.488 -0.1151 -0.2644  0.0025
  298CLA    CLA22358   2.709   1.149   2.057  0.5158 -0.0155  0.1674
  299CLA    CLA22359   2.451   0.972  16.718 -0.0624 -0.4913  0.1030
  300CLA    CLA22360   0.468   1.142  16.346  0.2510  0.1774  0.0239
  301CLA    CLA22361   4.382   1.578  13.443 -0.4656  0.2521 -0.2387
  302CLA    CLA22362   4.386   4.595  14.272 -0.1978 -0.1558 -0.1134
  303CLA    CLA22363   1.087   5.857   2.873 -0.3999  0.2232 -0.0434
  304CLA    CLA22364   0.138   1.642   3.741  0.3380  0.0946 -0.5536
  305CLA    CLA22365   6.238   1.248   1.133  0.0096 -0.1960  0.1319
  306CLA    CLA22366   5.914   4.347  14.227 -0.2655 -0.3878  0.4236
  307CLA    CLA22367   0.202   0.986   2.791 -0.2223 -0.0862 -0.1489
  308CLA    CLA22368   6.288   0.280  13.665 -0.1102 -0.0747 -0.3877
  309CLA    CLA22369   6.058   3.014   4.767 -0.4897  0.1538  0.2524
  310CLA    CLA22370   0.899   4.821  16.537 -0.2961  0.4217  0.0861
  311CLA    CLA22371   5.220   0.076   5.468 -0.6484 -0.0544 -0.2810
  312CLA    CLA22372   6.779   0.848   3.371  0.4373  0.0950 -0.4762
  313CLA    CLA22373   5.983   4.511   0.266 -0.1939 -0.1231  0.2017
  314CLA    CLA22374   6.470   4.623   4.658  0.3568  0.5262  0.1370
  315CLA    CLA22375   6.563   2.004  16.964 -0.0907 -0.3128 -0.2194
  316CLA    CLA22376   2.476   4.822  12.993 -0.3844  0.0651  0.2037
  317CLA    CLA22377   5.352   6.546   3.184 -0.2696  0.1163 -0.0073
  318CLA    CLA22378   2.594   5.940   2.244  0.0419  0.1737 -0.1517
  319CLA    CLA22379   3.320   5.118  16.336  0.1874  0.1868 -0.0485
  320CLA    CLA22380   5.776   2.010   2.748  0.0103 -0.1338  0.2826
  321CLA    CLA22381   4.618   6.691   0.090  0.3814  0.0505  0.0197
  322CLA    CLA22382   0.845   3.240   0.757 -0.2703 -0.2291  0.5251
  323TIP3   OH222383   2.490   4.439   1.628 -0.2198 -0.6598  0.0841
  323TIP3    H122384   2.545   4.437   1.706  0.5924  0.2630 -0.4578
  323TIP3    H222385   2.528   4.508   1.573 -2.5495  0.7677  0.1898
  324TIP3   OH222386   3.909   2.083  13.555  0.2504  0.2353 -0.0883
  324TIP3    H122387   3.870   2.131  13.628  1.2337  0.2929  0.4163
  324TIP3    H222388   3.962   2.148  13.510  0.0005  0.0902 -0.5871
  325TIP3   OH222389   0.239   5.921   3.040  0.1402  0.3018 -0.7240
  325TIP3    H122390   0.153   5.879   3.036  0.2039  0.1903 -0.9481
  325TIP3    H222391   0.285   5.889   2.962 -0.5454  2.4011 -2.0213
  326TIP3   OH222392   6.524   5.846   5.791 -0.1040  0.6644 -0.7142
  326TIP3    H122393   6.456   5.817   5.852 -0.0919 -0.7646 -1.3738
  326TIP3    H222394   6.536   5.939   5.813 -1.1165  0.5410  0.4882
  327TIP3   OH222395   1.286   5.158   2.059 -0.3846  0.0694  0.2236
  327TIP3    H122396   1.272   5.243   2.100 -1.8193 -0.0219 -0.0557
  327TIP3    H222397   1.223   5.100   2.102 -1.6850 -0.0963 -1.8264
  328TIP3   OH222398   6.349   2.552   1.924 -0.0595  1.1169  0.1490
  328TIP3    H122399   6.347   2.594   2.010 -2.3142  0.4393  0.4523
  328TIP3    H222400   6.362   2.459   1.943 -2.1273  0.7444 -0.1258
  329TIP3   OH222401   1.726   3.445  15.186  0.6963  0.1771  0.2902
  329TIP3    H122402   1.776   3.428  15.106  1.0373 -0.0788  0.5550
  329TIP3    H222403   1.732   3.540  15.198  0.2920  0.2679 -0.2148
  330TIP3   OH222404   4.259   1.332  16.133 -0.1689  0.2730 -0.4423
  330TIP3    H122405   4.267   1.354  16.040 -2.3566  1.9016 -0.2903
  330TIP3    H222406   4.169   1.301  16.142  0.5059 -1.4035  0.8635
  331TIP3   OH222407   2.241   4.847   4.575 -0.1689  0.7050 -1.0300
  331TIP3    H122408   2.270   4.756   4.581 -2.7698 -0.0860  0.9678
  331TIP3    H222409   2.295   4.894   4.639 -0.3435  0.0804 -0.4093
  332TIP3   OH222410   0.431   5.038   2.830 -0.0391  0.0519  0.2311
  332TIP3    H122411   0.459   4.969   2.770  0.5041  1.1720 -0.8421
  332TIP3    H222412   0.372   4.995   2.891 -0.1393 -1.2419 -0.7640
  333TIP3   OH222413   3.120   5.289   5.924  0.5618  0.3887 -0.2847
  333TIP3    H122414   3.027   5.296   5.948  0.2433  1.1797 -1.7312
  333TIP3    H222415   3.142   5.197   5.943 -0.2101  0.4618  1.0836
  334TIP3   OH222416   4.574   0.119   1.058  0.3644 -0.1430 -0.1462
  334TIP3    H122417   4.518   0.189   1.024 -0.1119 -0.8383 -0.8156
  334TIP3    H222418   4.659   0.134   1.016  0.8829  1.2807  1.3457
  335TIP3   OH222419   2.353   0.228  16.420 -0.6137  0.1447 -0.4519
  335TIP3    H122420   2.268   0.269  16.403 -1.1536 -0.9366 -0.4559
  335TIP3    H222421   2.336   0.169  16.494  1.0246  2.6657  2.0081
  336TIP3   OH222422   6.113   3.017   4.079  0.0371 -0.7768  0.3503
  336TIP3    H122423   6.021   3.013   4.107  0.1773  2.5887  1.4441
  336TIP3    H222424   6.115   3.084   4.011  1.8457 -0.0670  1.0648
  337TIP3   OH222425   3.286   4.944  12.019  0.0721 -0.3239  0.6232
  337TIP3    H122426   3.376   4.970  11.999 -0.2645  0.6574  0.3667
  337TIP3    H222427   3.245   4.931  11.934  0.0345 -0.9814  0.7434
  338TIP3   OH222428   6.743   1.728  16.226  0.3157  0.0019 -0.3038
  338TIP3    H122429   6.688   1.736  16.147 -0.1827 -0.8535 -0.0564
  338TIP3    H222430   6.723   1.806  16.277 -0.9650 -0.4771 -0.0494
  339TIP3   OH222431   3.397   3.995  16.795 -0.5280  0.2242 -0.0617
  339TIP3    H122432   3.369   3.978  16.704 -2.0404  2.1315  0.0201
  339TIP3    H222433   3.418   4.088  16.796  1.6429 -0.2445  1.0340
  340TIP3   OH222434   4.574   3.190  15.763 -0.0378 -0.3955 -0.2108
  340TIP3    H122435   4.550   3.281  15.778 -0.0685 -0.7829  2.1837
  340TIP3    H222436   4.609   3.189  15.673  2.1330  2.3920  0.5305
  341TIP3   OH222437   5.776   6.072   2.221 -0.2640 -0.3903  0.0301
  341TIP3    H122438   5.838   6.135   2.257 -1.6720  1.4817 -0.7649
  341TIP3    H222439   5.708   6.065   2.288 -1.0184  0.3235 -0.6414
  342TIP3   OH222440   5.687   3.614  15.548  0.5153 -0.3173 -0.2026
  342TIP3    H122441   5.684   3.704  15.514 -1.8761 -0.3421 -0.1294
  342TIP3    H222442   5.607   3.605  15.599  0.7943 -2.4723 -0.0969
  343TIP3   OH222443   0.021   4.744   1.644  0.5872  0.6013 -0.0855
  343TIP3    H122444   0.112   4.717   1.654 -0.1725 -2.9505 -2.0248
  343TIP3    H222445   0.022   4.800   1.566  1.1511  0.9135  0.1400
  344TIP3   OH222446   6.549   6.336   3.117  0.1192  0.1729 -0.1975
  344TIP3    H122447   6.557   6.241   3.122  0.4499  0.2161  0.0643
  344TIP3    H222448   6.589   6.368   3.198  2.9414  0.6960 -1.7399
  345TIP3   OH222449   0.264   2.925  13.090 -0.1355  0.5608 -0.2986
  345TIP3    H122450   0.316   2.846  13.104  0.3387  0.8667 -0.3176
  345TIP3    H222451   0.175   2.900  13.116  0.0750  0.1172  0.0072
  346TIP3   OH222452   0.739   6.191   0.207  0.2501  0.2916  0.3942
  346TIP3    H122453   0.735   6.218   0.298  0.7282 -0.0766  0.5280
  346TIP3    H222454   0.831   6.168   0.193  0.0522 -0.2691  0.0028
  347TIP3   OH222455   5.729   6.085   1.664 -0.4243  1.1049  0.1568
  347TIP3    H122456   5.681   6.120   1.589 -1.8421 -1.1925 -0.0367
  347TIP3    H222457   5.720   5.990   1.657  1.9321  0.7210  1.5999
  348TIP3   OH222458   2.050   1.624  15.127  0.7449  0.7493  0.4780
  348TIP3    H122459   1.988   1.691  15.157  1.2274  2.1140 -1.4842
  348TIP3    H222460   2.135   1.655  15.157  0.9267  0.8621 -0.1411
  349TIP3   OH222461   0.785   0.596   3.875  0.6161 -0.1869  0.5104
  349TIP3    H122462   0.878   0.576   3.880  0.2518 -2.2924 -0.5047
  349TIP3    H222463   0.771   0.624   3.784  0.3557  0.7622  0.8296
  350TIP3   OH222464   2.326   1.569   0.120  0.0862 -0.4405  0.3546
  350TIP3    H122465   2.331   1.493   0.177  0.6654 -0.1716  0.6676
  350TIP3    H222466   2.395   1.556   0.055  1.4165  0.7041  1.5141
  351TIP3   OH222467   3.249   2.747   0.753  0.0957  0.2926  0.1000
  351TIP3    H122468   3.186   2.801   0.800  0.4315  2.2222 -1.5804
  351TIP3    H222469   3.327   2.748   0.808  0.3830  2.2530 -0.2988
  352TIP3   OH222470   2.473   3.536  16.524 -0.2663  0.0474 -0.6748
  352TIP3    H122471   2.563   3.557  16.499  0.2555 -0.1070  0.9891
  352TIP3    H222472   2.442   3.614  16.570 -0.6061 -0.2972 -0.3135
  353TIP3   OH222473   6.325   4.252  16.200  1.1399 -0.3136 -0.6297
  353TIP3    H122474   6.387   4.250  16.128  0.3131  0.8517 -1.3912
  353TIP3    H222475   6.245   4.289  16.162  0.3649 -0.6529  0.6284
  354TIP3   OH222476   1.892   1.489   1.349 -0.0677  0.4208  0.2033
  354TIP3    H122477   1.837   1.417   1.319  0.8405 -0.4909  0.6948
  354TIP3    H222478   1.981   1.464   1.321 -0.0682  2.6002 -1.9783
  355TIP3   OH222479   6.202   2.717  16.946  0.1053 -0.2881 -0.1041
  355TIP3    H122480   6.134   2.774  16.909  0.9327  0.5536 -0.3613
  355TIP3    H222481   6.159   2.670  17.016 -0.7181  0.3315 -0.1933
  356TIP3   OH222482   2.682   2.842  15.335  0.5769  0.6310  0.3063
  356TIP3    H122483   2.642   2.928  15.347 -0.4632  0.2816 -0.5238
  356TIP3    H222484   2.728   2.848  15.252  0.0939  0.2470  0.0055
  357TIP3   OH222485   0.119   3.783   6.114  0.7161  0.6730  0.0257
  357TIP3    H122486   0.051   3.808   6.176  0.6636  0.1425  0.1845
  357TIP3    H222487   0.082   3.802   6.028 -0.3345 -1.2725  0.0276
  358TIP3   OH222488   2.693   6.625  16.705  0.3963  0.7361  0.2357
  358TIP3    H122489   2.698   6.639  16.799  1.3648 -1.1451  0.4911
  358TIP3    H222490   2.782   6.639  16.673  0.2530  0.5327 -0.2665
  359TIP3   OH222491   5.920   5.323   4.118  0.0981 -0.1966  0.3071
  359TIP3    H122492   5.995   5.381   4.126  0.5544 -0.7584  0.1646
  359TIP3    H222493   5.930   5.282   4.032 -1.3327  1.0562 -0.4876
  360TIP3   OH222494   1.110   3.136  16.386 -0.2951  0.6228  0.1265
  360TIP3    H122495   1.154   3.073  16.329 -1.3780 -0.7095  0.7425
  360TIP3    H222496   1.054   3.187  16.327 -1.7543 -1.0494  0.0414
  361TIP3   OH222497   4.193   2.151  13.429  0.6906  0.4540  0.7596
  361TIP3    H122498   4.267   2.153  13.490 -0.1127  1.3058  1.7292
  361TIP3    H222499   4.202   2.230  13.377  0.2471  0.7670  1.1511
  362TIP3   OH222500   4.589   3.017   2.843  0.2940 -0.2180 -0.3241
  362TIP3    H122501   4.547   2.963   2.910  0.7444  0.4772  0.5407
  362TIP3    H222502   4.528   3.017   2.770  0.3155 -1.9260 -0.3565
  363TIP3   OH222503   1.276   6.600   1.333  0.1621  0.1259 -0.1963
  363TIP3    H122504   1.292   6.506   1.339 -3.4386 -0.5757 -0.2187
  363TIP3    H222505   1.349   6.640   1.380  0.9439 -2.7532  1.1550
  364TIP3   OH222506   1.877   5.811   2.147  0.2497  0.4502  0.1170
  364TIP3    H122507   1.942   5.741   2.158 -0.2650 -0.3000 -1.3998
  364TIP3    H222508   1.848   5.803   2.056 -3.2792 -0.4151  1.2030
  365TIP3   OH222509   6.699   6.726   1.329 -0.0774 -0.2693  0.1162
  365TIP3    H122510   6.761   6.793   1.302 -0.2540  0.1472  0.7406
  365TIP3    H222511   6.751   6.665   1.381  0.3132 -1.1934 -1.3153
  366TIP3   OH222512   5.201   2.866  16.522 -0.4468  0.2470 -0.4851
  366TIP3    H122513   5.173   2.806  16.453 -0.6411 -1.0749  0.7160
  366TIP3    H222514   5.166   2.827  16.602  2.0960  0.3011  0.6786
  367TIP3   OH222515   4.424   4.895  16.381 -0.6164  0.4873  1.1196
  367TIP3    H122516   4.470   4.949  16.445  0.3475  1.0207  0.0032
  367TIP3    H222517   4.332   4.920  16.388 -0.3029  1.6244  1.2484
  368TIP3   OH222518   4.578   3.589  12.851  0.3591 -0.3513 -0.2163
  368TIP3    H122519   4.514   3.562  12.785  0.7932 -0.8332 -0.4403
  368TIP3    H222520   4.530   3.586  12.934 -0.8330  2.3989 -0.7533
  369TIP3   OH222521   5.849   2.133   5.800  0.3468 -0.5044 -0.2372
  369TIP3    H122522   5.858   2.226   5.782  1.0285 -0.6511 -0.6768
  369TIP3    H222523   5.854   2.127   5.895 -1.5378  0.0914 -0.0852
  370TIP3   OH222524   4.343   0.471  11.757 -0.0475  0.0328 -0.0294
  370TIP3    H122525   4.299   0.555  11.768  0.9991  0.3525  1.8407
  370TIP3    H222526   4.272   0.410  11.736 -1.4290  0.5731  2.8120
  371TIP3   OH222527   4.824   5.261  12.972  0.4988  0.3957  0.2389
  371TIP3    H122528   4.759   5.325  12.942 -1.3876 -1.5015  0.1299
  371TIP3    H222529   4.810   5.185  12.915  3.5821  0.3331 -0.4818
  372TIP3   OH222530   2.306   0.045   0.736 -0.4658  0.4221 -0.2634
  372TIP3    H122531   2.270   0.021   0.651  0.8141  1.2928 -1.0643
  372TIP3    H222532   2.240   0.103   0.774 -0.6781  0.6785 -1.0087
  373TIP3   OH222533   6.661   4.745  15.076  0.0980  0.6327 -0.2196
  373TIP3    H122534   6.756   4.749  15.087  0.3858 -3.5550 -0.3524
  373TIP3    H222535   6.628   4.732  15.165 -0.2556  0.8517 -0.3186
  374TIP3   OH222536   3.698   4.986  17.165 -0.2722  0.2905 -0.2827
  374TIP3    H122537   3.697   4.947  17.252  3.8150  0.0159 -0.2838
  374TIP3    H222538   3.678   5.079  17.180 -0.9452 -0.0135  0.7469
  375TIP3   OH222539   4.889   5.898   1.968 -0.2098 -0.2707 -0.3532
  375TIP3    H122540   4.959   5.839   1.940  0.2779 -0.4492  1.1968
  375TIP3    H222541   4.908   5.915   2.060 -1.2489  1.0472 -0.3780
  376TIP3   OH222542   0.402   1.142   2.570  0.3522  0.2693 -0.1597
  376TIP3    H122543   0.353   1.097   2.639 -0.7186  0.2327 -0.9338
  376TIP3    H222544   0.432   1.223   2.612 -2.4585  1.4771 -0.3296
  377TIP3   OH222545   0.522   4.535  11.709  0.1631 -1.1729 -0.0596
  377TIP3    H122546   0.607   4.556  11.747  0.2966 -1.1904 -0.3467
  377TIP3    H222547   0.536   4.539  11.614 -0.3738 -0.3042 -0.1044
  378TIP3   OH222548   5.276   1.054   3.568  0.2563  0.2702 -0.3168
  378TIP3    H122549   5.185   1.027   3.585  0.6299 -0.4190  0.6016
  378TIP3    H222550   5.298   1.012   3.485 -0.8189  1.8029 -1.4182
  379TIP3   OH222551   6.613   6.084   1.126  0.0701  0.7451 -0.7403
  379TIP3    H122552   6.575   6.108   1.211 -1.8645 -0.6786 -1.1560
  379TIP3    H222553   6.703   6.060   1.146 -0.3895  0.3329  0.9411
  380TIP3   OH222554   4.349   2.431  14.777  0.1002  0.1220 -0.6009
  380TIP3    H122555   4.320   2.466  14.693  1.2202 -4.0787 -2.8747
  380TIP3    H222556   4.444   2.419  14.766  0.0836 -1.4808  0.8849
  381TIP3   OH222557   1.437   0.281  16.819  0.0236 -0.1620  0.0557
  381TIP3    H122558   1.496   0.355  16.807  0.1965 -0.5358 -1.5207
  381TIP3    H222559   1.363   0.299  16.761  0.3107 -1.4701 -0.7361
  382TIP3   OH222560   6.532   1.020   1.617  0.1150  0.5891 -0.2924
  382TIP3    H122561   6.510   1.024   1.711 -0.3583  0.8174 -0.4090
  382TIP3    H222562   6.603   0.957   1.612 -0.8933 -0.5894  0.0291
  383TIP3   OH222563   4.113   0.820   5.272  0.3124 -0.0857 -0.2759
  383TIP3    H122564   4.034   0.855   5.315 -0.3611 -0.6753 -1.0260
  383TIP3    H222565   4.176   0.892   5.276 -0.4805  0.6140 -0.2556
  384TIP3   OH222566   1.830   4.802  12.658 -0.2856 -0.7245  0.4106
  384TIP3    H122567   1.861   4.739  12.592  0.2169  0.5285 -0.5674
  384TIP3    H222568   1.906   4.855  12.678 -1.4241  1.5310 -1.0271
  385TIP3   OH222569   4.546   3.574  10.957 -1.2859 -0.0730  0.2613
  385TIP3    H122570   4.542   3.658  10.911  0.3743 -0.2772 -0.2849
  385TIP3    H222571   4.530   3.509  10.888  1.6786 -0.4039 -0.1455
  386TIP3   OH222572   0.892   0.613   5.869  0.1610  0.2928 -0.4416
  386TIP3    H122573   0.945   0.618   5.949 -0.3361  0.6045 -0.1296
  386TIP3    H222574   0.818   0.557   5.892  0.4973 -0.3590 -0.9564
  387TIP3   OH222575   0.774   0.396  14.783  0.2097  0.3918  0.4634
  387TIP3    H122576   0.831   0.368  14.711  1.3655  0.3281  1.3827
  387TIP3    H222577   0.830   0.452  14.837 -1.0594  1.6047  0.5529
  388TIP3   OH222578   3.385   2.097   4.855 -0.2964  0.1535  0.7973
  388TIP3    H122579   3.395   2.171   4.915 -0.1962  0.7098  0.1005
  388TIP3    H222580   3.395   2.020   4.910  0.0066  0.6642  1.4627
  389TIP3   OH222581   5.485   4.382  13.830 -0.7752 -0.7063  0.0454
  389TIP3    H122582   5.415   4.320  13.809  0.7279 -1.7577 -2.1005
  389TIP3    H222583   5.502   4.370  13.923 -2.1671 -1.7816  0.1733
  390TIP3   OH222584   2.716   4.283   0.214 -0.3053 -0.1126  0.2293
  390TIP3    H122585   2.667   4.292   0.132 -1.2896  1.5571  0.9781
  390TIP3    H222586   2.703   4.367   0.259  2.9710  0.2545  0.6020
  391TIP3   OH222587   3.436   5.548   1.899 -0.9313 -0.6693  0.3257
  391TIP3    H122588   3.356   5.559   1.951 -2.6854 -0.6061 -2.2761
  391TIP3    H222589   3.419   5.598   1.820  0.7104 -2.6471 -1.3179
  392TIP3   OH222590   3.932   0.420   3.839 -0.6220  0.1350 -0.6585
  392TIP3    H122591   3.996   0.381   3.780  0.3801  0.0559  0.4622
  392TIP3    H222592   3.984   0.453   3.912 -1.6869  1.6516 -0.5744
  393TIP3   OH222593   2.303   3.022  16.787  0.1724 -0.2171  0.0786
  393TIP3    H122594   2.231   3.045  16.846 -0.0949 -1.4300  0.2430
  393TIP3    H222595   2.261   2.977  16.714  0.6593 -0.0536 -0.3061
  394TIP3   OH222596   3.208   2.534   4.050 -0.1397  0.6276  0.5125
  394TIP3    H122597   3.151   2.543   4.127  0.3426  0.1548  0.9287
  394TIP3    H222598   3.173   2.458   4.003  0.3446  0.1343  0.9431
  395TIP3   OH222599   3.503   3.792  16.936  0.2457  0.0646 -0.4141
  395TIP3    H122600   3.587   3.779  16.893  0.7466  1.2942  0.1699
  395TIP3    H222601   3.465   3.868  16.891 -0.1773  0.0256 -0.1226
  396TIP3   OH222602   6.633   0.754   1.098 -0.3613  0.3573 -0.3100
  396TIP3    H122603   6.701   0.745   1.031 -0.2233  0.4373 -0.1791
  396TIP3    H222604   6.589   0.669   1.099  1.2487 -0.4771  1.2595
  397TIP3   OH222605   4.037   2.799  16.534  0.0857 -0.2668  0.7072
  397TIP3    H122606   3.951   2.796  16.578 -0.8867 -0.1591 -1.1415
  397TIP3    H222607   4.075   2.712  16.550 -0.9454 -0.7814  0.4408
  398TIP3   OH222608   0.369   2.507  15.321  0.2125 -0.1743 -0.2555
  398TIP3    H122609   0.462   2.527  15.318  0.3361 -0.4973  1.3290
  398TIP3    H222610   0.343   2.524  15.412 -1.4072  0.5409 -0.8320
  399TIP3   OH222611   6.012   0.047  14.869  0.0179  0.3054  0.0883
  399TIP3    H122612   6.090  -0.004  14.850 -1.4772 -1.4050 -1.6506
  399TIP3    H222613   5.986   0.019  14.957  0.0945 -0.7963 -0.2307
  400TIP3   OH222614   5.141   3.007   5.090  0.8329  0.2077  0.4862
  400TIP3    H122615   5.154   3.033   4.999 -0.4062 -0.1940  0.1861
  400TIP3    H222616   5.225   2.967   5.116 -0.0678 -3.4284 -1.7772
  401TIP3   OH222617   4.086   4.111  14.594 -0.0585 -0.8424 -0.0329
  401TIP3    H122618   4.024   4.153  14.653 -0.3557  0.1554 -1.0347
  401TIP3    H222619   4.132   4.184  14.551  0.2354 -1.5405 -0.9314
  402TIP3   OH222620   3.093   6.423  15.906  0.2813 -0.1563  0.2972
  402TIP3    H122621   3.158   6.482  15.867  0.4791  0.3218  1.3430
  402TIP3    H222622   3.046   6.477  15.969  0.5021 -1.1253  1.3067
  403TIP3   OH222623   1.932   2.101  15.499 -0.2317 -0.1216  0.1962
  403TIP3    H122624   1.973   2.169  15.553 -0.4468 -0.0651  0.2852
  403TIP3    H222625   1.959   2.019  15.539 -2.5620 -0.0681  1.9793
  404TIP3   OH222626   4.926   5.637   0.250 -0.0004 -0.1769  0.0151
  404TIP3    H122627   4.936   5.673   0.338 -1.4463 -0.3256  0.2588
  404TIP3    H222628   4.907   5.713   0.195  0.0019 -0.1941 -0.0089
  405TIP3   OH222629   2.468   2.830  16.515  0.0865  0.6812 -0.2913
  405TIP3    H122630   2.541   2.807  16.572  0.5649  0.7838 -0.8640
  405TIP3    H222631   2.485   2.921  16.490 -1.2211  1.3257  1.0754
  406TIP3   OH222632   1.671   6.216   2.737  0.8073 -0.4653 -0.5712
  406TIP3    H122633   1.699   6.201   2.647  2.1586 -0.4464 -0.1542
  406TIP3    H222634   1.670   6.312   2.746  1.0223 -0.4738 -0.4584
  407TIP3   OH222635   2.361   2.348   0.092  0.2271  0.5359 -0.3293
  407TIP3    H122636   2.322   2.431   0.064 -0.3434  0.0794 -0.9081
  407TIP3    H222637   2.336   2.340   0.184  1.9560  1.9569  0.3177
  408TIP3   OH222638   2.391   6.568   1.079 -0.2304 -0.0165 -0.4239
  408TIP3    H122639   2.439   6.635   1.129 -0.3052 -0.1690 -0.1449
  408TIP3    H222640   2.305   6.608   1.062 -0.5352 -0.3053  0.3629
  409TIP3   OH222641   4.844   5.933  12.008 -0.0471  0.2591 -0.4453
  409TIP3    H122642   4.829   6.005  11.947 -0.0046 -0.1432 -0.9347
  409TIP3    H222643   4.936   5.941  12.033 -0.5255  1.4920  0.9620
  410TIP3   OH222644   2.331   2.875   5.159  0.5785 -0.5289  0.0470
  410TIP3    H122645   2.355   2.784   5.146  2.8741  0.1019 -0.3252
  410TIP3    H222646   2.412   2.919   5.185 -0.2688  1.5735 -0.6688
  411TIP3   OH222647   3.400   3.951   4.664 -0.1861  0.1598 -0.2439
  411TIP3    H122648   3.486   3.912   4.645  0.1085  0.8562 -0.3695
  411TIP3    H222649   3.378   3.999   4.585  0.5476  2.1826  0.7545
  412TIP3   OH222650   4.911   4.414   3.927  0.4967  0.0548 -0.3361
  412TIP3    H122651   4.976   4.468   3.882  0.4543 -0.4087 -0.9613
  412TIP3    H222652   4.947   4.326   3.923  0.8114  0.1018  1.1336
  413TIP3   OH222653   1.855   3.273  14.549  0.0625  0.6275  0.0890
  413TIP3    H122654   1.878   3.292  14.458 -0.8433 -0.8850 -0.4768
  413TIP3    H222655   1.772   3.318  14.564 -0.8740 -0.8646 -0.5122
  414TIP3   OH222656   2.254   1.968   2.200 -0.5722 -1.0899 -0.3370
  414TIP3    H122657   2.184   1.903   2.202 -1.1117 -0.4821  1.6513
  414TIP3    H222658   2.264   1.996   2.291  0.3969  0.8232 -0.9954
  415TIP3   OH222659   2.439   1.861  12.362 -0.3434  0.4600 -0.3270
  415TIP3    H122660   2.523   1.901  12.383  0.0148 -0.0962 -0.6808
  415TIP3    H222661   2.375   1.929  12.382  0.2181  1.0416 -0.4632
  416TIP3   OH222662   4.734   0.328  10.764  0.1878 -0.8614  0.0533
  416TIP3    H122663   4.748   0.418  10.733  2.6432 -1.4219 -0.6415
  416TIP3    H222664   4.682   0.287  10.695  0.6873 -0.4785 -0.5624
  417TIP3   OH222665   4.503   6.766  14.683 -0.2931 -0.0472 -0.5755
  417TIP3    H122666   4.457   6.719  14.613  0.4833 -0.8032 -0.5892
  417TIP3    H222667   4.452   6.747  14.762 -0.8230  0.3056 -0.8271
  418TIP3   OH222668   2.344   4.996   1.321  0.3434  0.5655 -0.2886
  418TIP3    H122669   2.250   4.998   1.340  0.2906 -1.6443 -0.2026
  418TIP3    H222670   2.386   5.006   1.407  0.1768  0.4530 -0.1945
  419TIP3   OH222671   3.999   4.181  11.967  0.0622 -0.2969 -0.3009
  419TIP3    H122672   4.009   4.253  11.905 -0.3164 -0.0176 -0.0373
  419TIP3    H222673   3.914   4.196  12.008  1.1446  0.6084  1.6926
  420TIP3   OH222674   4.787   3.924   4.441  0.5783 -0.1931  0.3541
  420TIP3    H122675   4.816   3.843   4.399  0.9460  0.4376 -0.6360
  420TIP3    H222676   4.861   3.984   4.429 -0.1431  0.6427  0.0496
  421TIP3   OH222677   5.477   4.340  16.016  0.1958 -0.3684 -0.5950
  421TIP3    H122678   5.383   4.325  16.026 -0.4025  2.2754 -1.8121
  421TIP3    H222679   5.516   4.253  16.011 -2.1045 -1.4934  0.5565
  422TIP3   OH222680   2.508   5.890  14.469  0.5011 -0.0958 -0.0722
  422TIP3    H122681   2.529   5.807  14.511  0.0638 -0.8120 -1.2494
  422TIP3    H222682   2.537   5.957  14.532  0.5560 -1.1329  1.0155
  423TIP3   OH222683   5.806   5.648  10.878 -0.2797  0.3900 -0.3120
  423TIP3    H122684   5.774   5.695  10.800 -0.3362  0.7725 -0.0584
  423TIP3    H222685   5.901   5.655  10.873 -0.3369  3.8983  1.7618
  424TIP3   OH222686   1.531   2.824   6.035  0.1401 -0.0669 -0.1364
  424TIP3    H122687   1.583   2.794   5.961 -0.3078  2.2697 -1.4400
  424TIP3    H222688   1.579   2.900   6.069  0.3184 -1.0858  1.9559
  425TIP3   OH222689   3.571   1.375  14.844 -0.2927 -0.3018 -0.0461
  425TIP3    H122690   3.583   1.451  14.901  2.7834  0.2791 -1.3415
  425TIP3    H222691   3.577   1.299  14.902  0.5047  0.3559  0.7283
  426TIP3   OH222692   6.012   3.582   1.958  0.1431 -0.4638  0.5320
  426TIP3    H122693   5.965   3.553   1.880 -0.6311 -1.5445  1.3909
  426TIP3    H222694   6.019   3.504   2.013 -1.0397  0.7165  2.4254
  427TIP3   OH222695   3.708   0.825  16.241  0.3819  0.4178 -0.5346
  427TIP3    H122696   3.677   0.853  16.327  0.9426 -0.7305  0.0480
  427TIP3    H222697   3.642   0.859  16.180 -0.2275  0.9004  0.3733
  428TIP3   OH222698   4.706   3.831   3.171  0.1374  0.6079 -0.2343
  428TIP3    H122699   4.631   3.881   3.139  0.7116  1.8225  0.2874
  428TIP3    H222700   4.752   3.802   3.092 -0.4474  0.5128 -0.5414
  429TIP3   OH222701   5.655   5.143   0.101 -0.6822  0.2506 -0.2415
  429TIP3    H122702   5.668   5.202   0.027 -2.4341  1.4385  0.3903
  429TIP3    H222703   5.562   5.149   0.121 -0.6793 -1.8939  0.5465
  430TIP3   OH222704   1.378   1.610  12.693  0.3630 -0.6760 -0.0659
  430TIP3    H122705   1.387   1.521  12.658 -1.9513 -1.3494  1.0049
  430TIP3    H222706   1.348   1.662  12.619 -0.5149 -1.2561 -0.1205
  431TIP3   OH222707   5.752   5.225   6.165  0.1830 -0.2402 -0.1553
  431TIP3    H122708   5.752   5.138   6.205 -1.1527 -0.3224 -0.3242
  431TIP3    H222709   5.693   5.277   6.219 -0.4952  0.0429 -1.1448
  432TIP3   OH222710   0.415   1.526   0.776 -0.3124 -0.2711  0.2792
  432TIP3    H122711   0.464   1.607   0.789  0.3041 -0.6613  0.4260
  432TIP3    H222712   0.378   1.506   0.862 -1.6087  0.5779 -0.0674
  433TIP3   OH222713   5.717   5.002   1.204 -0.3012  0.3961  0.0143
  433TIP3    H122714   5.623   4.992   1.213 -0.1876 -0.0204  0.7679
  433TIP3    H222715   5.750   5.009   1.293  0.6614 -2.2083 -0.0984
  434TIP3   OH222716   4.243   5.946   3.038  0.5401 -0.0838 -0.5797
  434TIP3    H122717   4.225   6.035   3.007  0.1323 -0.0951 -0.3871
  434TIP3    H222718   4.249   5.954   3.133 -0.4549 -0.4164 -0.4784
  435TIP3   OH222719   6.243   0.479  16.497  0.5868 -0.2012  0.0732
  435TIP3    H122720   6.251   0.570  16.525  0.6907 -0.2911  0.3342
  435TIP3    H222721   6.326   0.439  16.522  0.4979 -0.3955  0.0559
  436TIP3   OH222722   2.616   2.918  13.780  0.2712  0.3734 -0.2735
  436TIP3    H122723   2.533   2.943  13.821  0.5404  0.9162 -0.0627
  436TIP3    H222724   2.616   2.963  13.696 -0.1885 -0.5805 -0.8032
  437TIP3   OH222725   2.901   2.462  13.299  0.7896 -0.4751  0.8635
  437TIP3    H122726   2.927   2.504  13.381  0.3853 -2.1847  1.8953
  437TIP3    H222727   2.821   2.507  13.273  2.3202  1.8320  0.0028
  438TIP3   OH222728   6.219   1.015  14.404 -0.3419  0.7804  0.8907
  438TIP3    H122729   6.127   1.004  14.383 -0.6341  1.8781  1.5962
  438TIP3    H222730   6.220   1.044  14.495  0.6858  1.1673  0.7634
  439TIP3   OH222731   6.306   2.337   5.360 -0.3975  0.1563 -0.2867
  439TIP3    H122732   6.289   2.430   5.372  0.8449  0.1563  1.6190
  439TIP3    H222733   6.219   2.299   5.344 -0.9120  1.6115 -1.0523
  440TIP3   OH222734   4.968   1.413   2.777 -0.3536  0.2211  0.4342
  440TIP3    H122735   4.978   1.357   2.701  0.6146 -0.7881  1.2994
  440TIP3    H222736   4.988   1.501   2.745  1.9413 -0.4610 -0.0360
  441TIP3   OH222737   6.552   5.511   3.137 -0.2482 -0.5000  0.3218
  441TIP3    H122738   6.620   5.576   3.155 -1.3294  1.2417 -1.6065
  441TIP3    H222739   6.470   5.555   3.159 -0.9595 -1.3717 -0.5045
  442TIP3   OH222740   3.222   3.466   0.831 -0.2868 -0.2612  0.7715
  442TIP3    H122741   3.289   3.397   0.837  1.0693  1.0550  1.0640
  442TIP3    H222742   3.261   3.540   0.877 -1.7995  0.6607  0.5789
  443TIP3   OH222743   5.573   3.051  12.141  0.7389 -0.2902 -0.7033
  443TIP3    H122744   5.597   3.062  12.049 -0.3401 -1.9866 -1.2053
  443TIP3    H222745   5.539   2.962  12.147 -2.1293  0.8093  0.6826
  444TIP3   OH222746   3.392   1.232   5.459 -0.3408  0.2885 -0.4127
  444TIP3    H122747   3.483   1.205   5.451 -0.1116  0.8555  0.1578
  444TIP3    H222748   3.347   1.156   5.496 -0.1664 -0.1087 -1.0196
  445TIP3   OH222749   5.673   4.983  14.373 -0.4559  0.2292 -0.1456
  445TIP3    H122750   5.722   5.066  14.374  0.7636 -0.4683  1.5602
  445TIP3    H222751   5.582   5.009  14.360  0.0221  1.7732 -0.5313
  446TIP3   OH222752   4.595   5.325  15.196 -0.1723 -0.3248  0.7353
  446TIP3    H122753   4.558   5.265  15.130  0.0547  0.2118  0.1179
  446TIP3    H222754   4.519   5.369  15.233 -0.3691 -1.2451  1.4367
  447TIP3   OH222755   0.128   3.875   0.083 -0.0332  0.2458  0.3081
  447TIP3    H122756   0.182   3.831   0.018  0.1716  0.4529  0.3376
  447TIP3    H222757   0.039   3.864   0.052  0.1094  0.8690 -0.3249
  448TIP3   OH222758   0.949   2.623  14.252  0.3118  0.4283 -0.4024
  448TIP3    H122759   0.956   2.717  14.269 -1.5313  0.4044  0.7196
  448TIP3    H222760   0.973   2.613  14.160 -0.8013  2.1906 -0.9102
  449TIP3   OH222761   5.489   5.858  17.192  0.8729  0.2791 -0.3333
  449TIP3    H122762   5.505   5.797  17.120 -0.6094 -1.1415  0.5174
  449TIP3    H222763   5.408   5.902  17.168  0.5099 -0.0156  0.3280
  450TIP3   OH222764   4.173   1.003  14.888 -0.0815  0.0115 -1.0884
  450TIP3    H122765   4.210   0.925  14.930  1.4748 -0.7142 -3.6987
  450TIP3    H222766   4.079   0.988  14.888 -0.1326  0.0002  2.0147
  451TIP3   OH222767   0.589   4.344   1.368  0.0786  0.2683  0.0185
  451TIP3    H122768   0.599   4.293   1.449  0.8483  0.9290  0.3553
  451TIP3    H222769   0.612   4.284   1.298 -0.3634 -0.2421  0.3114
  452TIP3   OH222770   6.579   0.489   0.943 -0.5217  0.1783  0.2734
  452TIP3    H122771   6.626   0.563   0.904  1.2214 -0.4789  1.0796
  452TIP3    H222772   6.609   0.413   0.893 -1.7396 -0.0832 -0.0658
  453TIP3   OH222773   4.117   0.983   4.554  0.1826  0.0527  0.3958
  453TIP3    H122774   4.099   0.964   4.462  1.9728  2.2480 -0.4414
  453TIP3    H222775   4.138   1.076   4.556 -1.4706  0.4264  3.2991
  454TIP3   OH222776   1.454   3.274   3.745  0.1801  0.0869 -0.4059
  454TIP3    H122777   1.361   3.295   3.734  0.2377  1.6202  1.7789
  454TIP3    H222778   1.489   3.277   3.656 -1.9917 -1.3071 -1.3657
  455TIP3   OH222779   2.261   3.631  13.847 -0.6576  0.4887  0.1081
  455TIP3    H122780   2.352   3.644  13.822 -0.9000  1.9890 -0.0344
  455TIP3    H222781   2.243   3.539  13.825  0.8582  0.1247  0.3154
  456TIP3   OH222782   2.040   0.187  16.400 -0.5968 -0.1898  0.0840
  456TIP3    H122783   2.026   0.261  16.340 -0.7890  0.6022  1.0803
  456TIP3    H222784   2.070   0.116  16.344 -2.4345  0.0018 -1.2083
  457TIP3   OH222785   4.623   0.925  12.700  0.0304  0.0790  0.1919
  457TIP3    H122786   4.689   0.983  12.737  1.3174  0.0756 -2.0147
  457TIP3    H222787   4.550   0.983  12.677 -0.4840  0.1779  2.0116
  458TIP3   OH222788   0.264   5.080  11.941 -0.2262 -0.1659  0.1618
  458TIP3    H122789   0.254   5.103  11.848  1.6347  1.1916  0.2664
  458TIP3    H222790   0.188   5.026  11.960 -1.3517  0.6449 -1.8101
  459TIP3   OH222791   1.790   1.468  11.706  0.3209  0.5380 -0.5073
  459TIP3    H122792   1.787   1.544  11.763  2.2560  0.4249 -0.2386
  459TIP3    H222793   1.759   1.500  11.621 -0.2704  1.2656 -0.0196
  460TIP3   OH222794   5.984   2.325   1.197  0.1072  0.1865  0.0090
  460TIP3    H122795   5.939   2.385   1.138 -1.2199 -0.7614  0.0378
  460TIP3    H222796   5.980   2.240   1.153 -0.1017 -0.3499  1.0329
  461TIP3   OH222797   2.156   2.350  16.107  0.1974 -0.6156  0.3642
  461TIP3    H122798   2.069   2.356  16.148  0.3869  1.3308  0.5652
  461TIP3    H222799   2.180   2.258  16.115 -1.5113 -1.0354  1.0177
  462TIP3   OH222800   3.200   0.543   1.591  0.1325 -0.0021 -0.5491
  462TIP3    H122801   3.106   0.532   1.606 -0.0559  1.2881 -0.6852
  462TIP3    H222802   3.207   0.565   1.498  0.5221  0.3843 -0.4331
  463TIP3   OH222803   0.638   1.281  12.438  0.2653  0.6621  0.1393
  463TIP3    H122804   0.711   1.258  12.380 -1.2598 -0.2710 -1.4439
  463TIP3    H222805   0.585   1.342  12.387 -0.7529  0.3503  0.8139
  464TIP3   OH222806   3.161   5.279   0.354  0.6327 -0.5321  0.0615
  464TIP3    H122807   3.092   5.323   0.402 -1.2508 -1.5264 -1.6370
  464TIP3    H222808   3.129   5.189   0.344  1.7537 -0.7727 -1.5294
  465TIP3   OH222809   5.842   4.472  15.738 -0.0414  0.2900 -0.3134
  465TIP3    H122810   5.932   4.457  15.709 -0.4280 -1.2572 -0.7191
  465TIP3    H222811   5.811   4.544  15.683  0.7974  0.5713 -0.4361
  466TIP3   OH222812   2.186   4.108   1.412 -0.0103  0.0914  0.2874
  466TIP3    H122813   2.274   4.071   1.404  0.4113  1.3896 -1.5101
  466TIP3    H222814   2.189   4.159   1.493  1.1064  0.6535 -0.0964
  467TIP3   OH222815   1.444   0.470  16.437 -0.1985  0.2035 -0.7866
  467TIP3    H122816   1.499   0.471  16.360  0.0226 -0.8031 -0.6541
  467TIP3    H222817   1.479   0.538  16.494  0.1474  0.3852 -1.2237
  468TIP3   OH222818   0.865   4.752   1.570  0.1842 -0.7502  0.8442
  468TIP3    H122819   0.943   4.737   1.624  0.9553 -0.4490 -0.1649
  468TIP3    H222820   0.881   4.701   1.491 -0.1667  0.1731  0.1819
  469TIP3   OH222821   6.369   1.406   0.571  0.0296 -0.0165 -0.1632
  469TIP3    H122822   6.316   1.476   0.533  1.2750  1.9890  1.6830
  469TIP3    H222823   6.314   1.367   0.639 -1.5924 -2.5525 -2.7783
  470TIP3   OH222824   4.353   0.465   2.857 -0.0278  0.3266  0.3673
  470TIP3    H122825   4.343   0.445   2.950 -1.4794  1.1824  0.4161
  470TIP3    H222826   4.446   0.483   2.846  0.0516  0.9041  1.8131
  471TIP3   OH222827   6.532   4.069   5.092 -0.5210  0.0413 -0.0300
  471TIP3    H122828   6.552   4.034   5.178 -0.1740  1.0149  0.2868
  471TIP3    H222829   6.614   4.065   5.044 -0.7185 -0.5185 -0.3310
  472TIP3   OH222830   6.121   5.229  16.144 -0.4472  0.3352 -0.1058
  472TIP3    H122831   6.052   5.294  16.159 -0.6138  0.2828 -0.6294
  472TIP3    H222832   6.197   5.262  16.192 -0.6963  0.6407  0.0757
  473TIP3   OH222833   3.243   3.559   3.849 -0.4148 -0.2044  0.5223
  473TIP3    H122834   3.263   3.648   3.880  0.7645 -0.1530 -0.3909
  473TIP3    H222835   3.195   3.520   3.922 -2.4176  1.7228  0.3163
  474TIP3   OH222836   4.949   4.679  11.360  0.1421 -0.1033 -0.0893
  474TIP3    H122837   4.929   4.758  11.311  0.8616  0.8205  1.0870
  474TIP3    H222838   4.973   4.615  11.293  1.2799  1.1822 -0.9377
  475TIP3   OH222839   0.917   6.559  15.067 -0.3927 -0.1303  0.4491
  475TIP3    H122840   0.907   6.575  14.973 -4.1670 -1.4341  0.5444
  475TIP3    H222841   0.898   6.644  15.108  2.1246  0.6687  0.0808
  476TIP3   OH222842   1.919   4.346  16.855  0.2440 -0.6540  0.0266
  476TIP3    H122843   1.936   4.414  16.921  0.1402 -0.2636 -0.3454
  476TIP3    H222844   1.853   4.290  16.895  0.4050 -0.5944  0.3782
  477TIP3   OH222845   2.026   5.434   0.803 -0.0357  0.0229  0.4869
  477TIP3    H122846   1.938   5.415   0.772 -0.2659  2.3930 -0.4008
  477TIP3    H222847   2.081   5.430   0.725  0.5680 -0.8953  0.9469
  478TIP3   OH222848   0.484   1.106   0.952 -0.3394  0.1257  0.1448
  478TIP3    H122849   0.412   1.052   0.917 -1.3042  1.5460 -0.0858
  478TIP3    H222850   0.442   1.160   1.019  0.5450  0.8949  0.0774
  479TIP3   OH222851   6.078   0.257   3.205 -0.2404 -0.0140  0.1166
  479TIP3    H122852   6.158   0.214   3.235  0.3389  0.3585 -0.8741
  479TIP3    H222853   6.070   0.335   3.260  0.4542  0.3128 -0.2412
  480TIP3   OH222854   2.812   1.330   3.359  0.3778  1.3711  0.0256
  480TIP3    H122855   2.810   1.378   3.277 -0.1215  2.4505  0.6566
  480TIP3    H222856   2.747   1.261   3.349  1.2268  0.6933 -0.9522
  481TIP3   OH222857   0.279   0.512   5.185 -1.1986 -0.5505 -0.4886
  481TIP3    H122858   0.197   0.464   5.194 -1.2871 -0.3875 -0.4291
  481TIP3    H222859   0.315   0.517   5.274 -1.4412 -0.0618 -0.4156
  482TIP3   OH222860   4.496   0.313   6.638  0.1577  0.0100 -0.4435
  482TIP3    H122861   4.523   0.224   6.661 -0.7473 -0.1241  0.1369
  482TIP3    H222862   4.578   0.361   6.631  0.5548 -0.2389  1.9294
  483TIP3   OH222863   4.522   4.458   0.428 -0.7596  0.4648  0.2866
  483TIP3    H122864   4.517   4.542   0.473 -0.0701  0.7265 -0.1120
  483TIP3    H222865   4.515   4.480   0.335 -0.2503  0.1223  0.1612
  484TIP3   OH222866   6.710   4.149   1.160  0.3910 -0.1714  0.3298
  484TIP3    H122867   6.714   4.152   1.256  0.7262 -0.8639  0.3369
  484TIP3    H222868   6.746   4.064   1.137  0.9796  0.2746 -0.4471
  485TIP3   OH222869   3.793   1.208   4.250 -0.3635 -0.2269  0.1254
  485TIP3    H122870   3.884   1.237   4.250 -0.7173  0.9924 -2.9803
  485TIP3    H222871   3.755   1.251   4.326  1.0261  1.2757  0.0057
  486TIP3   OH222872   3.541   6.250   2.959  0.0113 -0.1643  0.1279
  486TIP3    H122873   3.581   6.333   2.935 -0.3765  0.2019  0.7495
  486TIP3    H222874   3.452   6.254   2.923 -0.1376 -0.1496  0.4956
  487TIP3   OH222875   4.494   1.619   3.416  0.5194 -0.3794  0.1137
  487TIP3    H122876   4.480   1.542   3.361 -0.4872 -0.3284  0.2876
  487TIP3    H222877   4.421   1.677   3.396  1.3878  0.6384 -0.1768
  488TIP3   OH222878   1.153   3.340  14.648  0.0652 -0.2817  0.3010
  488TIP3    H122879   1.177   3.293  14.728 -0.5911 -2.0065 -0.4874
  488TIP3    H222880   1.066   3.307  14.626 -0.3865  1.2821 -0.3146
  489TIP3   OH222881   1.172   2.936   5.576  0.1945 -0.4527 -0.0818
  489TIP3    H122882   1.256   2.962   5.614  0.0305 -1.0256  0.6839
  489TIP3    H222883   1.112   3.004   5.604  0.2078 -0.5461  0.1853
  490TIP3   OH222884   5.261   5.499   5.817 -0.4541 -0.3923 -0.3854
  490TIP3    H122885   5.356   5.503   5.824 -0.5776  1.6281  0.1866
  490TIP3    H222886   5.231   5.468   5.902 -0.2674 -2.1048 -0.9153
  491TIP3   OH222887   4.447   3.543  11.221 -0.5450  0.6197 -0.1283
  491TIP3    H122888   4.453   3.464  11.167  0.6941  0.7146 -0.1361
  491TIP3    H222889   4.474   3.614  11.163  1.6996  0.6082  0.8721
  492TIP3   OH222890   2.417   5.560   3.584  0.3469 -0.0056  0.2484
  492TIP3    H122891   2.462   5.476   3.594  0.4104 -0.2717 -1.9784
  492TIP3    H222892   2.366   5.550   3.503 -1.6710  1.2179  1.3344
  493TIP3   OH222893   5.421   6.748  12.977  0.0078 -0.0947  0.1263
  493TIP3    H122894   5.449   6.732  13.067 -1.6991  0.4917  0.7914
  493TIP3    H222895   5.444   6.668  12.929  3.4095  0.6365  0.4317
  494TIP3   OH222896   4.238   0.987  11.748  0.3011 -0.2588  0.3210
  494TIP3    H122897   4.234   1.001  11.842  2.0773 -0.6906  0.4827
  494TIP3    H222898   4.328   1.011  11.724 -1.4146  4.4446 -2.0667
  495TIP3   OH222899   6.692   6.127  12.822 -0.0231 -0.0311 -0.0211
  495TIP3    H122900   6.777   6.170  12.827 -1.0873  2.4460 -2.1466
  495TIP3    H222901   6.630   6.191  12.858 -1.1337 -1.3867  0.5392
  496TIP3   OH222902   0.804   1.659  16.884  0.4518  0.0247 -0.4455
  496TIP3    H122903   0.868   1.699  16.826  0.0775 -1.7893 -2.1509
  496TIP3    H222904   0.721   1.700  16.859  0.7284  1.4404  0.8949
  497TIP3   OH222905   5.274   0.550  16.150  0.0367  0.0203 -0.3610
  497TIP3    H122906   5.302   0.460  16.133 -1.6991 -0.8053  0.9352
  497TIP3    H222907   5.353   0.594  16.182  0.6950 -1.2799 -0.1520
  498TIP3   OH222908   3.314   0.171   4.251 -0.0123 -1.0966  0.2070
  498TIP3    H122909   3.312   0.267   4.259  0.0448 -1.1730  1.1656
  498TIP3    H222910   3.224   0.147   4.231  0.1585 -0.7637 -0.9912
  499TIP3   OH222911   5.438   1.831   4.388 -0.6138 -0.0595 -0.3577
  499TIP3    H122912   5.425   1.926   4.390 -0.8707 -0.1068  0.1929
  499TIP3    H222913   5.416   1.802   4.476 -0.3778 -0.6137 -0.4819
  500TIP3   OH222914   4.145   2.844   3.726 -0.5375  0.4889 -0.4736
  500TIP3    H122915   4.122   2.912   3.789  0.2921  1.7787 -1.5463
  500TIP3    H222916   4.100   2.766   3.758  0.1487  1.0263  1.8942
  501TIP3   OH222917   1.349   0.659   4.746 -0.2381 -0.2081 -0.0931
  501TIP3    H122918   1.261   0.695   4.759 -0.3262 -0.6727  0.6380
  501TIP3    H222919   1.372   0.621   4.831  0.8114  0.2094 -0.1867
  502TIP3   OH222920   5.913   4.738   2.153  0.1944  0.9366  0.5494
  502TIP3    H122921   5.909   4.752   2.058  0.1011  0.2866  0.4548
  502TIP3    H222922   5.973   4.663   2.163  0.7340  1.4283  1.0439
  503TIP3   OH222923   0.013   5.753  16.247 -0.2736 -0.0615  0.0739
  503TIP3    H122924  -0.032   5.831  16.282 -0.8582 -0.5942  0.5165
  503TIP3    H222925  -0.013   5.682  16.306 -0.6800 -0.8236 -1.0152
  504TIP3   OH222926   3.253   5.496  12.830  0.3656  0.0024 -0.2828
  504TIP3    H122927   3.192   5.568  12.848  2.8098  1.8782  0.8364
  504TIP3    H222928   3.309   5.529  12.760  1.4206 -0.8447  0.1460
  505TIP3   OH222929   1.629   5.096  16.093  0.2993 -0.3377  0.4235
  505TIP3    H122930   1.599   5.060  16.009  0.1861  3.0168 -1.0528
  505TIP3    H222931   1.550   5.105  16.145  0.0045 -0.0867 -0.0627
  506TIP3   OH222932   3.887   4.584   1.991 -0.3823  0.0270 -0.2599
  506TIP3    H122933   3.823   4.518   2.018 -2.4325  1.6301 -1.0738
  506TIP3    H222934   3.899   4.639   2.069  0.3193 -0.4882  0.0062
  507TIP3   OH222935   6.336   6.418  12.146  0.2337  0.2085 -0.0404
  507TIP3    H122936   6.359   6.481  12.215  1.1416 -1.4785  1.2316
  507TIP3    H222937   6.408   6.355  12.146  0.0970  0.0318 -2.3618
  508TIP3   OH222938   1.682   1.977  16.667 -0.6180  0.8366 -0.8293
  508TIP3    H122939   1.756   2.009  16.718 -0.8642  0.3067 -0.1245
  508TIP3    H222940   1.605   2.011  16.712 -0.9140 -1.2478  0.3267
  509TIP3   OH222941   4.120   6.332  13.616  0.1313 -0.0645 -0.2175
  509TIP3    H122942   4.135   6.321  13.710 -0.0215 -0.2810 -0.2212
  509TIP3    H222943   4.206   6.314  13.576 -0.1782 -1.4966 -0.2489
  510TIP3   OH222944   2.388   5.945  13.979  0.3211 -0.2532  0.2806
  510TIP3    H122945   2.440   5.867  13.960 -0.5605 -0.9558  0.7415
  510TIP3    H222946   2.378   5.944  14.074  2.1050  1.5774  0.5294
  511TIP3   OH222947   5.897   1.039  13.259  0.2140 -0.4386  0.0532
  511TIP3    H122948   5.989   1.041  13.233  0.5400  0.3966  1.2352
  511TIP3    H222949   5.899   1.045  13.355 -1.1039  1.0006  0.0084
  512TIP3   OH222950   0.522   4.162  16.111  0.1037  0.1430  0.1736
  512TIP3    H122951   0.576   4.230  16.070 -1.9990  1.2093 -0.9334
  512TIP3    H222952   0.470   4.209  16.176 -1.5759 -0.3091 -0.7926
  513TIP3   OH222953   5.735   1.860   2.453  0.2309  0.2449 -0.2235
  513TIP3    H122954   5.749   1.906   2.536 -0.9525 -1.1297  0.7595
  513TIP3    H222955   5.662   1.907   2.413 -0.2737 -0.0871  0.2875
  514TIP3   OH222956   2.059   0.897   0.566 -0.1902 -0.4666  0.0182
  514TIP3    H122957   1.967   0.925   0.559 -0.1594 -0.4442 -0.3058
  514TIP3    H222958   2.071   0.880   0.659 -0.6459 -0.8714  0.0082
  515TIP3   OH222959   3.215   4.591  12.648 -0.1903 -0.1860 -0.3425
  515TIP3    H122960   3.309   4.607  12.650 -0.2657  0.2744  2.9781
  515TIP3    H222961   3.207   4.495  12.648  0.2662 -0.2244 -0.3933
  516TIP3   OH222962   4.448   5.269  15.921 -0.6275 -0.2384  0.1820
  516TIP3    H122963   4.448   5.176  15.898 -0.2813  0.3107 -2.1485
  516TIP3    H222964   4.356   5.294  15.919 -0.6322 -0.2845 -0.2786
  517TIP3   OH222965   0.477   6.367  13.432 -0.0825 -0.3139 -0.1776
  517TIP3    H122966   0.467   6.403  13.343  0.2898  0.4921  0.1039
  517TIP3    H222967   0.388   6.363  13.466 -0.1798 -0.1256 -0.4034
  518TIP3   OH222968   6.018   6.191  13.163 -0.3422  0.2628 -0.0326
  518TIP3    H122969   6.025   6.132  13.237  0.6393 -0.6715 -0.8521
  518TIP3    H222970   5.943   6.159  13.114 -0.0771 -0.0446 -0.2414
  519TIP3   OH222971   1.775   1.977  10.941 -0.1983  0.2038  0.3266
  519TIP3    H122972   1.736   1.933  11.017  0.4758 -1.1981 -0.1332
  519TIP3    H222973   1.702   1.988  10.880 -1.0469  2.5323  1.6748
  520TIP3   OH222974   0.325   0.082  13.788  0.6661  0.8244 -0.4892
  520TIP3    H122975   0.356   0.131  13.711  0.8251  1.8209  0.1943
  520TIP3    H222976   0.403   0.068  13.841  0.2573  1.7731  0.3763
  521TIP3   OH222977   5.986   2.726   1.121 -0.1702  0.5929 -0.8788
  521TIP3    H122978   5.912   2.671   1.144 -0.6015  0.9545 -1.4081
  521TIP3    H222979   5.969   2.809   1.165 -0.8209  1.1718 -2.2182
  522TIP3   OH222980   3.575   4.045   3.506  0.7764  0.1589  0.0728
  522TIP3    H122981   3.593   4.037   3.413 -0.0926 -0.5057 -0.0414
  522TIP3    H222982   3.501   4.107   3.511  0.1469 -0.5957  0.2451
  523TIP3   OH222983   2.698   2.813  16.738  0.6958  0.5401  0.0463
  523TIP3    H122984   2.630   2.790  16.801 -1.6930 -0.5357 -2.8480
  523TIP3    H222985   2.772   2.756  16.762 -0.9225 -1.4027  0.5579
  524TIP3   OH222986   0.427   6.066   3.674 -0.2228  0.2543  0.3700
  524TIP3    H122987   0.472   6.015   3.742  1.8328 -0.3009 -1.3565
  524TIP3    H222988   0.368   6.002   3.632 -1.1940  0.4992  1.3451
  525TIP3   OH222989   0.664   5.927   1.846  0.1592 -0.1671 -0.1100
  525TIP3    H122990   0.732   5.944   1.911 -1.7160 -0.4066  1.9767
  525TIP3    H222991   0.589   5.897   1.897 -1.1266 -1.0893 -2.4748
  526TIP3   OH222992   5.298   5.119   3.245 -0.7795  0.0706  0.4008
  526TIP3    H122993   5.387   5.086   3.240 -0.9706 -0.6924  1.7808
  526TIP3    H222994   5.306   5.213   3.227  0.2466 -0.0504  0.1987
  527TIP3   OH222995   6.548   1.344  12.633 -0.2230 -0.2291 -0.1291
  527TIP3    H122996   6.499   1.397  12.569  0.2771  0.5330  0.1053
  527TIP3    H222997   6.640   1.361  12.612 -0.0283  1.1137  1.6429
  528TIP3   OH222998   3.858   2.594   2.701 -0.1242 -0.1831  0.1891
  528TIP3    H122999   3.876   2.669   2.757 -0.3400 -1.2697  1.7435
  528TIP3    H223000   3.916   2.525   2.734  0.3054 -0.6219 -1.4212
  529TIP3   OH223001   3.464   6.347  11.537  0.0069  0.5491  0.6250
  529TIP3    H123002   3.559   6.340  11.545  0.1624 -0.1192 -1.5382
  529TIP3    H223003   3.449   6.428  11.488 -0.4667  0.0204 -0.1252
  530TIP3   OH223004   0.066   5.752  11.202 -0.8619  0.3912  0.2898
  530TIP3    H123005   0.026   5.837  11.223 -0.4151  0.8339 -0.6105
  530TIP3    H223006   0.154   5.774  11.172 -0.7329 -0.3974  0.0773
  531TIP3   OH223007   0.836   4.590   0.696 -0.1597 -0.1974  0.1466
  531TIP3    H123008   0.918   4.568   0.652 -0.6842 -1.0227 -0.4169
  531TIP3    H223009   0.822   4.518   0.758 -1.5811 -1.2205 -1.3035
  532TIP3   OH223010   0.427   4.116   2.946 -0.0699 -0.5779  0.0223
  532TIP3    H123011   0.383   4.076   2.870 -2.3010 -2.5981  2.2849
  532TIP3    H223012   0.495   4.053   2.970 -0.6604 -0.8997  0.8755
  533TIP3   OH223013   4.996   5.341   5.235 -0.2750 -0.5340 -0.4190
  533TIP3    H123014   5.057   5.279   5.275  0.0494  1.4419  2.2346
  533TIP3    H223015   5.051   5.397   5.180  0.0230  0.0118  0.4339
  534TIP3   OH223016   0.040   0.628   5.860  0.4208 -0.3089  0.2018
  534TIP3    H123017   0.008   0.635   5.949  0.2935  1.8114  0.0130
  534TIP3    H223018   0.072   0.716   5.839 -0.8311 -0.4110 -2.3165
  535TIP3   OH223019   3.579   1.078  14.090 -0.1540 -1.1018 -0.1737
  535TIP3    H123020   3.674   1.066  14.103 -0.3549 -2.8929 -0.2341
  535TIP3    H223021   3.564   1.170  14.112  1.9907 -0.1412 -2.4483
  536TIP3   OH223022   5.955   6.434  13.619  0.0372 -0.4385 -0.2314
  536TIP3    H123023   5.985   6.418  13.709 -1.2106  0.8661  0.4412
  536TIP3    H223024   5.907   6.355  13.595 -0.0192 -0.6134  0.4350
  537TIP3   OH223025   5.733   1.416  14.070 -0.0273  0.4905 -0.2797
  537TIP3    H123026   5.687   1.484  14.020 -0.9325  0.2499  0.1985
  537TIP3    H223027   5.707   1.433  14.161  1.5471  0.8859  0.1020
  538TIP3   OH223028   3.928   3.755   3.584 -0.1274 -0.1857  0.0134
  538TIP3    H123029   3.979   3.678   3.557  1.3158  0.8536 -0.3192
  538TIP3    H223030   3.850   3.720   3.626 -0.5192 -1.8520 -2.0507
  539TIP3   OH223031   2.366   5.705   1.503  0.6289 -0.4101  0.9581
  539TIP3    H123032   2.327   5.666   1.581  3.3595 -0.2223  2.4622
  539TIP3    H223033   2.312   5.782   1.484 -0.2567 -0.6619  2.4406
  540TIP3   OH223034   1.834   5.606  12.771  0.4721 -0.4765  0.6174
  540TIP3    H123035   1.885   5.550  12.830  0.9039 -1.3490 -0.5690
  540TIP3    H223036   1.748   5.564  12.766 -0.5966  1.2872  3.0447
  541TIP3   OH223037   6.245   3.607   5.154 -0.3028 -0.5348  0.1895
  541TIP3    H123038   6.297   3.546   5.207 -0.1175  0.6125  1.3589
  541TIP3    H223039   6.230   3.560   5.072  2.2059 -1.0657 -0.0103
  542TIP3   OH223040   1.596   2.896  16.210 -0.4015  0.1272  0.5446
  542TIP3    H123041   1.629   2.842  16.282 -0.6149 -0.6129  0.0902
  542TIP3    H223042   1.662   2.887  16.141 -0.8685 -0.2499  0.1473
  543TIP3   OH223043   5.974   4.822   0.627 -0.2595 -0.5601  0.6053
  543TIP3    H123044   5.937   4.865   0.550  0.5589  0.1871  0.6118
  543TIP3    H223045   6.000   4.895   0.684  1.1274 -1.0577  0.6299
  544TIP3   OH223046   0.563   1.700  10.435  0.0324  0.7557  0.3994
  544TIP3    H123047   0.529   1.777  10.389  2.2988  1.3317 -0.3845
  544TIP3    H223048   0.621   1.736  10.502  1.3437 -0.2566 -0.1754
  545TIP3   OH223049   3.596   2.640  12.367  0.5201 -0.3875 -0.7841
  545TIP3    H123050   3.517   2.653  12.313  0.3846 -1.3062 -0.8139
  545TIP3    H223051   3.668   2.652  12.306  0.4692  2.4091 -0.3482
  546TIP3   OH223052   2.786   4.567  15.087 -0.4941  0.5533 -0.1673
  546TIP3    H123053   2.756   4.511  15.158  1.2418 -0.1255  0.0610
  546TIP3    H223054   2.716   4.564  15.022 -0.6749 -1.4222  0.1012
  547TIP3   OH223055   2.124   6.303  17.023  0.4889 -0.1440 -0.4947
  547TIP3    H123056   2.055   6.262  16.971  0.3690  0.1354 -0.5524
  547TIP3    H223057   2.091   6.390  17.044  0.7164 -0.1016 -0.3102
  548TIP3   OH223058   1.811   5.119   1.502  0.1217 -0.2226 -0.2612
  548TIP3    H123059   1.757   5.191   1.533 -1.9427 -1.3777 -1.0938
  548TIP3    H223060   1.826   5.137   1.410  1.2437  0.1266 -0.0226
  549TIP3   OH223061   5.274   5.570   0.739  0.3935  0.5705 -0.7408
  549TIP3    H123062   5.355   5.536   0.777  0.7533 -0.0709 -2.0527
  549TIP3    H223063   5.296   5.590   0.648 -0.5844  1.6129 -0.7591
  550TIP3   OH223064   6.639   4.311   4.802  0.3206 -0.4628 -0.6469
  550TIP3    H123065   6.588   4.248   4.751  1.3641 -1.4734 -0.4677
  550TIP3    H223066   6.663   4.379   4.739 -1.7099  0.3253 -0.6031
  551TIP3   OH223067   4.884   1.261  15.613 -1.0105 -0.8034  0.1290
  551TIP3    H123068   4.853   1.332  15.556 -1.7530 -1.1807  0.0539
  551TIP3    H223069   4.895   1.186  15.555 -1.7686 -1.1880  0.4668
  552TIP3   OH223070   6.404   1.112   3.445 -0.3833 -0.4101 -0.0048
  552TIP3    H123071   6.454   1.142   3.521 -0.7952 -2.8348  1.2624
  552TIP3    H223072   6.320   1.157   3.454  1.0284  2.6494 -1.4236
  553TIP3   OH223073   5.451   6.002  11.545  0.3061 -0.2913 -0.1912
  553TIP3    H123074   5.411   5.915  11.532 -2.1973  0.4761  1.8169
  553TIP3    H223075   5.472   6.003  11.639  1.2612  0.8962 -0.4216
  554TIP3   OH223076   3.911   6.319  15.341 -0.7888  0.4510  0.0457
  554TIP3    H123077   3.972   6.392  15.333 -1.2832  0.9622  0.8886
  554TIP3    H223078   3.947   6.251  15.284  0.4122  0.8460  0.3290
  555TIP3   OH223079   4.828   3.723   1.086 -0.4351  0.6534 -0.2526
  555TIP3    H123080   4.822   3.789   1.016  0.9582  0.0618 -0.9398
  555TIP3    H223081   4.907   3.747   1.135 -0.8575  0.4788  0.5150
  556TIP3   OH223082   4.142   3.240  13.530 -0.1387 -0.5692 -0.2205
  556TIP3    H123083   4.187   3.251  13.614  2.4127 -0.3894 -1.5415
  556TIP3    H223084   4.054   3.210  13.553  1.0019 -2.0724  2.4640
  557TIP3   OH223085   2.671   2.246   5.063  0.3628 -0.0284  0.0269
  557TIP3    H123086   2.708   2.309   5.000  0.7815 -0.3449 -0.0459
  557TIP3    H223087   2.595   2.291   5.100  0.3428  0.3100 -0.4221
  558TIP3   OH223088   4.210   5.935   5.744 -0.1842  0.6301 -0.7560
  558TIP3    H123089   4.167   5.922   5.828  0.9246  0.6783 -0.1631
  558TIP3    H223090   4.191   6.026   5.721 -0.1787  0.7290 -0.3749
  559TIP3   OH223091   1.374   2.042  13.325  0.0899 -0.6500 -0.2806
  559TIP3    H123092   1.465   2.059  13.301 -0.3833  0.9846 -0.9760
  559TIP3    H223093   1.380   1.989  13.405  1.6463 -2.2344 -1.3930
  560TIP3   OH223094   6.609   1.100  16.560  0.0365  0.5229  0.2491
  560TIP3    H123095   6.645   1.072  16.644  1.0617 -0.4189 -0.4807
  560TIP3    H223096   6.580   1.019  16.518  1.9668  0.6520 -1.4071
  561TIP3   OH223097   5.132   1.179   5.935 -0.1360 -0.2873  0.3728
  561TIP3    H123098   5.080   1.233   5.876 -0.9634 -1.3960  0.0602
  561TIP3    H223099   5.105   1.206   6.023 -0.2272  0.1098  0.2212
  562TIP3   OH223100   4.516   2.841  11.918 -0.1698  0.1658 -0.0744
  562TIP3    H123101   4.606   2.872  11.933  0.3285 -2.2030  2.2498
  562TIP3    H223102   4.461   2.904  11.963  0.4258  0.7617 -0.1660
  563TIP3   OH223103   0.771   0.960   1.737  0.6476 -0.1587 -0.2893
  563TIP3    H123104   0.702   0.899   1.766 -0.1221 -0.0574 -1.8759
  563TIP3    H223105   0.723   1.037   1.707  1.5464  0.5955  0.2014
  564TIP3   OH223106   2.791   1.183   4.232 -0.0400 -0.3235 -0.5327
  564TIP3    H123107   2.713   1.187   4.177 -0.6350 -0.7867  0.2691
  564TIP3    H223108   2.757   1.169   4.321  0.9539 -0.6189 -0.1943
  565TIP3   OH223109   5.889   1.914  14.327 -0.2725 -0.0652 -0.6534
  565TIP3    H123110   5.818   1.853  14.303 -0.2361 -0.1850 -0.4590
  565TIP3    H223111   5.912   1.889  14.416  1.2974 -1.2644 -1.3754
  566TIP3   OH223112   3.183   5.429  12.227 -0.0571  0.3405 -0.5183
  566TIP3    H123113   3.180   5.335  12.209  1.9134  0.1837 -0.1105
  566TIP3    H223114   3.250   5.463  12.168 -0.0521  1.3289  0.0384
  567TIP3   OH223115   5.555   0.293   2.617  0.3761 -0.6933  0.6572
  567TIP3    H123116   5.626   0.231   2.601  0.7008 -0.0547 -0.4127
  567TIP3    H223117   5.578   0.335   2.700  1.9691  0.5029 -0.3705
  568TIP3   OH223118   6.627   6.286  13.779  0.0531 -0.0669  0.5738
  568TIP3    H123119   6.630   6.213  13.716  0.8764 -0.5149  1.1290
  568TIP3    H223120   6.689   6.350  13.743  1.2385 -0.7233  1.4085
  569TIP3   OH223121   1.704   0.989   0.972  0.0527 -0.0993  0.0151
  569TIP3    H123122   1.617   0.955   0.993 -0.1447  1.1702  1.3422
  569TIP3    H223123   1.757   0.969   1.049  0.1539  1.7476  0.4570
  570TIP3   OH223124   0.579   6.126   5.474  0.2522 -0.1387  0.0892
  570TIP3    H123125   0.551   6.035   5.466 -0.3108  0.1383 -1.1501
  570TIP3    H223126   0.604   6.135   5.566  0.2961 -1.5355  0.2252
  571TIP3   OH223127   0.558   0.871   2.294  0.3537 -0.0727  0.1779
  571TIP3    H123128   0.518   0.786   2.273 -0.6046  0.4452 -0.1485
  571TIP3    H223129   0.642   0.870   2.249  0.2746 -0.7851  0.0346
  572TIP3   OH223130   6.772   2.343  12.160  0.7144  0.4675 -0.4400
  572TIP3    H123131   6.703   2.403  12.130  0.3828  0.5416  0.4661
  572TIP3    H223132   6.729   2.257  12.163  0.6481  0.5222  0.1745
  573TIP3   OH223133   4.991   0.709   2.382  0.3658 -0.0867 -0.3652
  573TIP3    H123134   4.989   0.752   2.297 -1.5022  1.8590  0.6096
  573TIP3    H223135   5.029   0.773   2.441 -2.2586  0.2020  1.0725
  574TIP3   OH223136   1.582   0.904  13.957  0.5824 -0.5311  0.3804
  574TIP3    H123137   1.550   0.938  13.873  3.5089 -0.8518 -0.9207
  574TIP3    H223138   1.507   0.914  14.016 -1.6262 -0.5030 -2.2874
  575TIP3   OH223139   5.339   1.125  10.980 -0.1102 -0.5827 -0.0154
  575TIP3    H123140   5.323   1.047  11.033  0.1150  0.0563  1.0161
  575TIP3    H223141   5.370   1.190  11.043 -1.4805  0.7141 -0.6676
  576TIP3   OH223142   5.773   4.073  13.588  0.5130  0.8184  0.3967
  576TIP3    H123143   5.805   4.127  13.661 -1.9919  1.2022  1.2764
  576TIP3    H223144   5.691   4.035  13.621 -0.8651  1.2735 -2.3230
  577TIP3   OH223145   2.778   1.594  16.556 -0.2622  0.2125  0.2983
  577TIP3    H123146   2.802   1.501  16.552  0.4586  0.4218 -0.2516
  577TIP3    H223147   2.687   1.593  16.587 -0.1531 -0.6591  0.6212
  578TIP3   OH223148   4.919   4.210   3.044 -0.1605 -0.1156  0.5490
  578TIP3    H123149   4.971   4.132   3.026  1.7407  1.4458 -1.0132
  578TIP3    H223150   4.971   4.260   3.107  0.8972  2.0279 -1.9387
  579TIP3   OH223151   6.447   4.033   1.427 -0.4898 -0.5195  0.2533
  579TIP3    H123152   6.388   4.075   1.490 -1.7104 -1.3088 -0.3512
  579TIP3    H223153   6.523   4.092   1.423  0.0274 -0.8782  3.1063
  580TIP3   OH223154   0.595   3.210   4.531  0.6847 -0.5502 -0.0859
  580TIP3    H123155   0.657   3.138   4.541  0.3958 -0.5864  1.5323
  580TIP3    H223156   0.526   3.192   4.595 -0.6971 -0.1857 -1.4273
  581TIP3   OH223157   1.290   3.567   1.063  0.2455 -0.2913 -0.0395
  581TIP3    H123158   1.263   3.645   1.111 -0.9605  0.2181 -1.4873
  581TIP3    H223159   1.228   3.500   1.089  0.1766 -0.2750 -0.1605
  582TIP3   OH223160   3.559   1.071  12.966 -0.6081  0.1830  0.7249
  582TIP3    H123161   3.551   1.167  12.972 -1.7834  0.0968  0.4922
  582TIP3    H223162   3.594   1.056  12.878  1.4103  0.4909  1.4271
  583TIP3   OH223163   1.065   2.201   0.091 -0.1078 -0.4204  0.0445
  583TIP3    H123164   0.994   2.140   0.110 -0.5575  0.3671  0.8980
  583TIP3    H223165   1.035   2.285   0.125  1.3160 -0.1146  0.5726
  584TIP3   OH223166   0.153   1.015   2.063 -0.2970 -0.8100 -0.3910
  584TIP3    H123167   0.068   0.979   2.038 -0.3534 -1.4385  0.6536
  584TIP3    H223168   0.213   0.941   2.059 -0.2226 -0.8332  0.8675
  585TIP3   OH223169   2.872   2.545  14.296  0.2189 -0.2848  0.6776
  585TIP3    H123170   2.927   2.504  14.364 -0.7896 -1.9695  0.5239
  585TIP3    H223171   2.931   2.604  14.250  1.3508 -0.4138  1.9139
  586TIP3   OH223172   2.935   3.518  15.748 -0.5907 -0.1864  0.2799
  586TIP3    H123173   2.921   3.553  15.835  2.9199 -0.9107  1.2028
  586TIP3    H223174   2.999   3.577  15.708 -2.4111  0.3467 -1.9932
  587TIP3   OH223175   1.127   5.426  16.847  0.6043  0.1195 -0.6160
  587TIP3    H123176   1.166   5.431  16.934 -0.2975  0.8771 -0.2628
  587TIP3    H223177   1.101   5.334  16.838 -0.9139  0.4269  0.6050
  588TIP3   OH223178   6.199   1.280   5.947 -0.3716 -0.0522 -0.4155
  588TIP3    H123179   6.272   1.275   5.885 -0.2287  1.1756 -0.3735
  588TIP3    H223180   6.241   1.306   6.030 -0.8506  0.7406 -0.4138
  589TIP3   OH223181   0.824   4.850  12.746 -0.1511 -0.5168  0.9066
  589TIP3    H123182   0.858   4.891  12.825  0.9851 -0.8167  0.5901
  589TIP3    H223183   0.901   4.812  12.703 -0.8403 -0.9325 -0.0045
  590TIP3   OH223184   1.788   2.777   1.688  0.3670  0.2496  0.8059
  590TIP3    H123185   1.857   2.752   1.750  0.0306  1.2175  1.5843
  590TIP3    H223186   1.751   2.857   1.725  1.3714  1.8821 -1.5493
  591TIP3   OH223187   6.113   2.859   4.500 -0.0547 -0.3805 -0.4582
  591TIP3    H123188   6.078   2.901   4.579 -0.8671  0.5902 -1.3367
  591TIP3    H223189   6.200   2.828   4.527 -0.1656  0.2788  0.7127
  592TIP3   OH223190   2.490   3.671  13.245 -0.3890  0.4948  0.1890
  592TIP3    H123191   2.554   3.693  13.312 -0.2163  1.4669 -0.2828
  592TIP3    H223192   2.469   3.755  13.204 -0.6712 -0.0534 -0.8037
  593TIP3   OH223193   6.760   3.192  12.100  0.6455  0.5004 -0.9298
  593TIP3    H123194   6.770   3.282  12.132  0.6433  0.1447  0.0821
  593TIP3    H223195   6.785   3.197  12.008  1.3589  1.3968 -0.6993
  594TIP3   OH223196   6.584   6.583  15.351 -0.1378 -0.0832 -0.3838
  594TIP3    H123197   6.654   6.628  15.303  2.0468 -2.3903  0.5190
  594TIP3    H223198   6.626   6.551  15.431 -2.3729 -1.0575  0.4585
  595TIP3   OH223199   1.078   4.748  12.230  0.0637  0.4905 -0.4424
  595TIP3    H123200   1.031   4.826  12.257  0.6249  0.1282  1.6444
  595TIP3    H223201   1.028   4.675  12.268  1.3236  0.0120  0.3245
  596TIP3   OH223202   5.266   5.215   4.405  0.2721  0.0330  0.0819
  596TIP3    H123203   5.172   5.225   4.387 -0.1526 -1.3211  1.4030
  596TIP3    H223204   5.298   5.305   4.416 -1.3541  0.4337  1.8984
  597TIP3   OH223205   5.556   4.399   0.248 -0.0173  0.0798  0.6949
  597TIP3    H123206   5.470   4.362   0.227  0.5293 -1.5192  1.1975
  597TIP3    H223207   5.541   4.450   0.328 -0.5331 -0.0540  0.6870
  598TIP3   OH223208   3.048   2.864  12.906 -0.1357 -0.1598  0.1672
  598TIP3    H123209   2.998   2.876  12.987 -0.1173 -2.9826  0.6347
  598TIP3    H223210   3.107   2.940  12.902 -1.2584  0.8241  1.9525
  599TIP3   OH223211   1.338   1.506   6.224  0.0920 -0.3058  0.7631
  599TIP3    H123212   1.359   1.418   6.191 -3.1470 -1.2101  0.9332
  599TIP3    H223213   1.349   1.500   6.318 -0.8013 -0.7588  0.8462
  600TIP3   OH223214   5.494   6.000   4.981 -0.1696 -0.7329  0.3377
  600TIP3    H123215   5.566   6.037   4.929  1.7453 -3.5726  0.8955
  600TIP3    H223216   5.420   5.997   4.921  0.8235  0.0380 -0.9469
  601TIP3   OH223217   1.269   3.189   0.999 -0.8640 -0.4346 -0.5299
  601TIP3    H123218   1.292   3.142   1.079 -3.2756 -0.5897  0.0861
  601TIP3    H223219   1.266   3.121   0.932  0.5643 -0.3902 -0.6685
  602TIP3   OH223220   2.760   3.674   4.271  0.1863  1.1143 -0.0738
  602TIP3    H123221   2.761   3.667   4.366 -1.1200 -0.2292 -0.1388
  602TIP3    H223222   2.749   3.768   4.254 -0.9529  1.2137  1.1183
  603TIP3   OH223223   6.471   2.010   1.455 -0.1646  0.3207  0.3274
  603TIP3    H123224   6.494   1.946   1.522 -0.7952 -0.2528  0.0016
  603TIP3    H223225   6.553   2.054   1.434  0.6510 -1.6933 -0.8092
  604TIP3   OH223226   1.252   1.842  17.176  0.6653 -0.1247  0.0630
  604TIP3    H123227   1.281   1.892  17.252  0.8757  0.7445 -0.5794
  604TIP3    H223228   1.160   1.821  17.194  0.7251  0.0555  0.5645
  605TIP3   OH223229   4.900   6.694  14.486 -0.0519  0.0620  0.1268
  605TIP3    H123230   4.861   6.776  14.516 -1.3955 -0.9947  1.3780
  605TIP3    H223231   4.984   6.689  14.532 -0.0251  0.6743  0.1462
  606TIP3   OH223232   2.388   4.413  14.346 -0.1084  0.4795 -0.4170
  606TIP3    H123233   2.421   4.347  14.407  1.4612  0.8192 -0.8890
  606TIP3    H223234   2.454   4.482  14.346 -1.6124  1.9685 -0.1239
  607TIP3   OH223235   3.615   5.089   5.560 -0.0398  0.0793 -0.3591
  607TIP3    H123236   3.591   4.997   5.564  0.3904 -0.0527 -0.7221
  607TIP3    H223237   3.608   5.112   5.467  1.5013 -0.0450 -0.5261
  608TIP3   OH223238   3.613   0.121  12.982  0.2910 -0.1406  0.0722
  608TIP3    H123239   3.628   0.209  12.946 -0.3817  0.4502  1.2194
  608TIP3    H223240   3.669   0.064  12.929 -0.2621  0.7872 -1.5655
  609TIP3   OH223241   4.318   3.342  15.550 -1.1229 -0.1617  0.4257
  609TIP3    H123242   4.245   3.387  15.592 -0.7922 -0.8173  1.7009
  609TIP3    H223243   4.368   3.304  15.622  0.9669  1.0168 -0.3756
  610TIP3   OH223244   2.839   1.076  15.336 -0.7306 -0.8583  0.0795
  610TIP3    H123245   2.750   1.112  15.329 -0.3534  0.6003  2.1136
  610TIP3    H223246   2.889   1.145  15.379  1.5446 -1.4543 -1.5113
  611TIP3   OH223247   2.538   5.745   4.765 -0.4951  0.1401 -0.1584
  611TIP3    H123248   2.616   5.744   4.822 -0.5278 -0.4197 -0.1269
  611TIP3    H223249   2.480   5.809   4.806 -0.6993 -0.5712  0.6915
  612TIP3   OH223250   0.072   4.283  14.793 -0.4170 -0.9086  0.5244
  612TIP3    H123251   0.167   4.289  14.799 -0.2344 -2.3991 -0.7152
  612TIP3    H223252   0.044   4.372  14.769  0.6693 -0.5250  0.6328
  613TIP3   OH223253   5.738   0.426   3.096 -0.1873  0.2921 -0.3476
  613TIP3    H123254   5.781   0.461   3.174  0.1734  0.5548 -0.6659
  613TIP3    H223255   5.808   0.416   3.032 -0.4348 -0.1914 -0.5485
  614TIP3   OH223256   0.703   5.395   5.082 -0.2160 -0.6432  0.0087
  614TIP3    H123257   0.643   5.445   5.137 -0.4239  0.0317 -0.8094
  614TIP3    H223258   0.709   5.309   5.124 -1.1647 -0.4686  0.5211
  615TIP3   OH223259   1.639   2.830  14.937 -0.3437  0.2386 -0.6536
  615TIP3    H123260   1.678   2.742  14.934  1.8890  1.1570  0.5688
  615TIP3    H223261   1.551   2.815  14.972 -0.2712 -1.6032 -1.1891
  616TIP3   OH223262   2.626   2.725  16.224 -0.1082 -0.2433 -0.1086
  616TIP3    H123263   2.703   2.751  16.275 -0.1917  0.0416 -0.1269
  616TIP3    H223264   2.660   2.712  16.135 -0.8884  4.3791 -1.2045
  617TIP3   OH223265   0.773   2.289  13.474  0.3940  0.2245  0.3128
  617TIP3    H123266   0.706   2.251  13.530  0.4782  0.2944  0.4622
  617TIP3    H223267   0.781   2.228  13.401 -1.1246  1.1559 -0.6394
  618TIP3   OH223268   3.865   6.489   1.666  0.3510  0.6392  0.1967
  618TIP3    H123269   3.808   6.413   1.678  0.0610  0.9467  0.7965
  618TIP3    H223270   3.892   6.513   1.755  3.6061 -1.1579 -0.2148
  619TIP3   OH223271   2.687   2.477  11.473 -0.2091 -0.1537  0.1743
  619TIP3    H123272   2.649   2.390  11.461 -0.7723  0.2751 -1.2329
  619TIP3    H223273   2.673   2.496  11.566 -1.0638 -1.0945  0.2542
  620TIP3   OH223274   1.220   5.733  15.310 -0.0084  0.2264 -0.1276
  620TIP3    H123275   1.267   5.762  15.233  1.4099 -1.4500  0.0818
  620TIP3    H223276   1.135   5.704  15.277 -0.1457  1.3492 -0.7815
  621TIP3   OH223277   6.544   6.285   2.816 -0.4680  0.3117 -0.1643
  621TIP3    H123278   6.516   6.331   2.895 -0.8893 -0.4497  0.1315
  621TIP3    H223279   6.604   6.217   2.847 -0.4402  0.1718 -0.5251
  622TIP3   OH223280   5.213   2.242   0.937  0.3035  0.4553  0.1056
  622TIP3    H123281   5.201   2.337   0.941  0.3723  0.4142  1.4507
  622TIP3    H223282   5.172   2.216   0.854 -0.0697  1.6084 -0.0742
  623TIP3   OH223283   1.344   0.994  15.759 -0.8747  0.6097 -0.3510
  623TIP3    H123284   1.382   1.003  15.671 -3.5865 -0.8255 -1.7307
  623TIP3    H223285   1.272   1.056  15.761 -2.2219 -0.9202  0.0233
  624TIP3   OH223286   5.206   3.290   1.355 -0.1268  0.3076 -0.7007
  624TIP3    H123287   5.170   3.202   1.340 -0.3902 -0.2178  2.6604
  624TIP3    H223288   5.139   3.350   1.322 -1.6601 -0.7381  0.4116
  625TIP3   OH223289   4.181   5.074   4.528  0.5907 -0.4186  0.4107
  625TIP3    H123290   4.249   5.022   4.484 -1.4118 -1.9112 -1.0463
  625TIP3    H223291   4.149   5.018   4.599  0.5895  0.0955  0.8177
  626TIP3   OH223292   2.616   3.264   3.240  0.4398 -1.0217  0.5186
  626TIP3    H123293   2.621   3.199   3.170 -1.2541 -0.0386 -0.5485
  626TIP3    H223294   2.692   3.321   3.225 -0.1499 -0.5530 -0.8203
  627TIP3   OH223295   0.562   1.734   0.836  0.1211  0.2402 -0.6894
  627TIP3    H123296   0.569   1.826   0.808  0.9491  0.4630  0.2466
  627TIP3    H223297   0.636   1.721   0.895 -0.7389 -0.6780  0.1897
  628TIP3   OH223298   6.203   2.262  15.196 -0.2508  0.1586 -0.2634
  628TIP3    H123299   6.156   2.339  15.227  0.5626  0.8313 -0.7097
  628TIP3    H223300   6.156   2.236  15.116  0.8609  1.5525 -1.3872
  629TIP3   OH223301   3.902   4.417   1.526  0.4138 -0.5093  0.1535
  629TIP3    H123302   3.908   4.460   1.440 -0.3119 -1.6321 -0.4790
  629TIP3    H223303   3.981   4.364   1.531  0.3613 -0.5940  0.0911
  630TIP3   OH223304   3.574   2.073  11.359 -0.0066 -0.1448  0.1050
  630TIP3    H123305   3.589   2.150  11.413 -0.1766 -1.5804  2.2366
  630TIP3    H223306   3.660   2.054  11.321  1.0145 -1.3794  2.9241
  631TIP3   OH223307   0.510   2.739   2.684  0.2519  0.3491  0.2067
  631TIP3    H123308   0.486   2.832   2.684 -1.4015 -0.0534  0.9317
  631TIP3    H223309   0.478   2.706   2.768  0.3695 -0.9937 -0.2689
  632TIP3   OH223310   1.122   1.062  14.890 -0.3315 -0.1056 -0.3689
  632TIP3    H123311   1.194   1.121  14.912 -0.6053  0.6496 -1.4779
  632TIP3    H223312   1.165   0.985  14.853 -0.1448  1.1063 -2.7862
  633TIP3   OH223313   6.251   3.307  11.741 -0.7911 -0.2834 -0.2217
  633TIP3    H123314   6.285   3.238  11.798 -1.0773 -0.8149 -0.6831
  633TIP3    H223315   6.213   3.259  11.667 -0.7671  0.3823 -0.6644
  634TIP3   OH223316   1.769   6.355  16.664  0.2714  0.3877 -0.5636
  634TIP3    H123317   1.844   6.397  16.704  0.7406  0.0144 -1.0412
  634TIP3    H223318   1.794   6.263  16.657 -0.0681  0.3337 -1.0900
  635TIP3   OH223319   6.051   3.127   0.815 -0.2790  0.1945 -0.8279
  635TIP3    H123320   5.966   3.109   0.775 -0.2075 -1.6217 -0.2119
  635TIP3    H223321   6.032   3.142   0.908 -0.0720  1.1780 -0.9333
  636TIP3   OH223322   2.362   2.982   5.516 -0.1224 -0.0762  0.4239
  636TIP3    H123323   2.392   2.952   5.602  0.7898  0.3943  0.2754
  636TIP3    H223324   2.347   2.902   5.466  0.4667 -0.3228  0.6415
  637TIP3   OH223325   5.147   0.303  12.798  0.0732  0.1425  0.1461
  637TIP3    H123326   5.197   0.223  12.782 -0.3607  0.0032 -0.5563
  637TIP3    H223327   5.104   0.321  12.715  0.8160  1.5756  0.0562
  638TIP3   OH223328   0.598   2.274  16.008 -0.2823  0.2723 -0.4315
  638TIP3    H123329   0.646   2.355  16.026  0.4884 -0.0469 -0.9923
  638TIP3    H223330   0.667   2.208  15.999 -0.8606 -0.2808 -0.8226
  639TIP3   OH223331   2.412   2.212   5.818 -0.2723 -0.8236 -0.7049
  639TIP3    H123332   2.409   2.116   5.821 -0.5662 -0.7738  0.6808
  639TIP3    H223333   2.502   2.233   5.842  0.0808 -0.7806 -2.0297
  640TIP3   OH223334   0.587   5.706   4.082 -0.8294  0.1747 -0.4555
  640TIP3    H123335   0.515   5.742   4.134 -1.2615 -0.1239 -0.8370
  640TIP3    H223336   0.597   5.616   4.114 -1.0158  0.0304 -0.7985
  641TIP3   OH223337   4.816   1.265  15.972  0.5151 -0.1476  0.2354
  641TIP3    H123338   4.733   1.230  15.940  0.5511  1.7705 -2.0866
  641TIP3    H223339   4.880   1.244  15.903  1.0333  2.1855 -0.0485
  642TIP3   OH223340   3.000   0.750   4.918 -0.0202 -0.1546  0.0793
  642TIP3    H123341   3.009   0.677   4.857  5.1663 -2.2361  3.0146
  642TIP3    H223342   2.977   0.709   5.002 -1.5837  2.0981  0.8149
  643TIP3   OH223343   3.545   5.662   3.655 -0.1653 -0.2106  0.0121
  643TIP3    H123344   3.480   5.598   3.627  0.9387 -1.2809 -0.1522
  643TIP3    H223345   3.564   5.638   3.746  1.4792 -1.1965 -0.5593
  644TIP3   OH223346   1.885   3.627  14.911  0.1398 -0.4573 -0.4672
  644TIP3    H123347   1.798   3.589  14.916  0.6454 -1.4865  1.0912
  644TIP3    H223348   1.878   3.709  14.960  0.0231 -0.5094 -0.3945
  645TIP3   OH223349   5.720   4.256   1.498 -0.2876 -0.0547 -0.3763
  645TIP3    H123350   5.772   4.320   1.546 -1.0529  0.6084 -0.4196
  645TIP3    H223351   5.724   4.177   1.551 -0.5717  0.4750  0.4351
  646TIP3   OH223352   5.642   0.077  14.937  0.7336  0.2832  0.2792
  646TIP3    H123353   5.680   0.063  14.851  1.3691  1.0356  0.4268
  646TIP3    H223354   5.659   0.170  14.956 -1.9650  0.9056 -0.0363
  647TIP3   OH223355   2.934   6.040  14.268  0.4606 -0.3769 -0.4911
  647TIP3    H123356   2.951   6.102  14.197 -0.0030 -0.0720 -0.3332
  647TIP3    H223357   2.890   5.966  14.225  1.0403 -0.6171 -0.6817
  648TIP3   OH223358   6.578   1.266   2.714  0.2658 -0.1037  0.3030
  648TIP3    H123359   6.494   1.264   2.758 -0.1194 -1.0652 -0.4519
  648TIP3    H223360   6.634   1.209   2.766  0.0087 -0.6954 -0.0710
  649TIP3   OH223361   0.524   2.479   0.606 -0.2675  0.4877 -0.7987
  649TIP3    H123362   0.497   2.569   0.622 -1.6813  0.2164 -1.5251
  649TIP3    H223363   0.584   2.458   0.677  0.8538  2.3321 -1.1840
  650TIP3   OH223364   4.944   4.068  16.386 -0.5273 -0.4193 -0.3041
  650TIP3    H123365   4.904   4.056  16.300 -2.1995 -1.7250  0.6227
  650TIP3    H223366   4.877   4.038  16.448  0.0849  1.8935  1.5353
  651TIP3   OH223367   0.990   1.448  14.381  0.3192 -0.0081  0.2767
  651TIP3    H123368   1.044   1.485  14.312  1.2500 -0.0327  0.9858
  651TIP3    H223369   1.052   1.424  14.450 -0.4688 -1.1234  0.6116
  652TIP3   OH223370   2.456   5.160  15.461 -0.1017  0.2284 -0.9077
  652TIP3    H123371   2.506   5.145  15.542 -1.6692 -1.5495 -0.2295
  652TIP3    H223372   2.522   5.154  15.392  0.7352 -1.6039 -0.0035
  653TIP3   OH223373   6.674   5.552   5.295  0.3160 -0.3109 -0.3835
  653TIP3    H123374   6.594   5.591   5.331 -0.5871 -1.1162 -1.4570
  653TIP3    H223375   6.745   5.595   5.341 -0.6789  1.9346 -0.8735
  654TIP3   OH223376   0.510   5.803  17.167  0.8664  0.1255  0.0498
  654TIP3    H123377   0.540   5.716  17.143  1.9614  0.3787  0.4927
  654TIP3    H223378   0.433   5.818  17.111  0.9401 -0.9380 -0.3417
  655TIP3   OH223379   1.860   4.333   1.959  0.1850  0.1207  0.0278
  655TIP3    H123380   1.951   4.314   1.983 -0.9861 -3.6891  1.8847
  655TIP3    H223381   1.813   4.334   2.043 -1.7732  0.1568 -1.0427
  656TIP3   OH223382   3.050   2.353   3.924 -0.0317 -0.5448 -0.1935
  656TIP3    H123383   2.961   2.358   3.888 -0.5654 -0.0730  1.1696
  656TIP3    H223384   3.071   2.260   3.920 -1.3681 -0.9451  1.2804
  657TIP3   OH223385   3.293   0.930  12.375 -0.1239 -0.1912 -0.3498
  657TIP3    H123386   3.235   0.999  12.406 -0.1016 -0.5575  0.5472
  657TIP3    H223387   3.376   0.974  12.356  0.0063 -0.0245  0.5759
  658TIP3   OH223388   3.613   4.076   5.463 -0.7935  0.2068  0.3377
  658TIP3    H123389   3.695   4.041   5.499 -2.2486 -0.7444  2.8956
  658TIP3    H223390   3.630   4.170   5.453  0.7834 -0.0544  0.3163
  659TIP3   OH223391   4.995   6.164   5.200 -0.4158 -0.1058  0.6802
  659TIP3    H123392   5.071   6.129   5.155 -0.5732  0.0392  0.2983
  659TIP3    H223393   5.019   6.164   5.293 -0.0694 -0.3460  0.5884
  660TIP3   OH223394   2.834   3.347   3.775 -0.5245 -0.4506  0.0122
  660TIP3    H123395   2.837   3.388   3.862  3.8375 -1.7441  0.5805
  660TIP3    H223396   2.877   3.409   3.717 -2.1451 -0.2317 -0.9921
  661TIP3   OH223397   1.636   2.650   3.575  0.0609 -0.3668 -0.1894
  661TIP3    H123398   1.635   2.648   3.671  0.7342  1.7500 -0.1300
  661TIP3    H223399   1.586   2.728   3.552 -1.2805 -1.6202 -1.6166
  662TIP3   OH223400   3.084   1.096  16.320 -0.5903 -0.2392 -0.1416
  662TIP3    H123401   3.071   1.179  16.366  1.9418 -0.1506  0.4855
  662TIP3    H223402   3.114   1.035  16.388 -3.0962 -1.8967 -0.4581
  663TIP3   OH223403   3.007   1.063  11.238  0.3459 -0.6563 -0.4459
  663TIP3    H123404   3.081   1.059  11.299  0.7174  0.0056 -0.8455
  663TIP3    H223405   2.956   1.139  11.265 -0.3905 -1.3212  0.0485
  664TIP3   OH223406   1.606   0.043   2.350  0.4893  0.2278 -0.0040
  664TIP3    H123407   1.601   0.066   2.443 -0.4633  2.4723 -0.5706
  664TIP3    H223408   1.533   0.091   2.310 -0.9519 -2.9927 -1.4865
  665TIP3   OH223409   3.248   5.791  15.107  0.1445  0.1982 -0.4882
  665TIP3    H123410   3.200   5.795  15.190 -0.5262  0.3478 -0.8800
  665TIP3    H223411   3.289   5.876  15.099 -0.1486  0.3357 -0.5254
  666TIP3   OH223412   1.890   2.853   0.340  0.0542  0.4214 -0.0417
  666TIP3    H123413   1.983   2.854   0.320 -0.1569 -0.1175 -1.0957
  666TIP3    H223414   1.877   2.928   0.398  0.9883  1.0128 -0.5913
  667TIP3   OH223415   2.647   4.496   3.126 -0.5485 -0.6046 -0.4775
  667TIP3    H123416   2.692   4.549   3.192 -0.4435 -0.4156 -0.7020
  667TIP3    H223417   2.590   4.558   3.080 -0.8260 -0.7894 -0.3842
  668TIP3   OH223418   0.174   1.782   3.388 -0.1745  0.1636 -0.1668
  668TIP3    H123419   0.221   1.811   3.310  1.3494 -2.1077 -0.1709
  668TIP3    H223420   0.241   1.738   3.440 -2.0583 -2.2134  0.3498
  669TIP3   OH223421   4.612   0.414   0.342 -0.5746  0.1572  0.2946
  669TIP3    H123422   4.628   0.327   0.306 -0.9914  0.1456  0.1373
  669TIP3    H223423   4.593   0.468   0.265 -1.3746  0.1516  0.4952
  670TIP3   OH223424   6.247   5.461  15.552 -0.0037  0.1258 -0.0623
  670TIP3    H123425   6.328   5.460  15.603 -0.9686 -1.4109  1.5003
  670TIP3    H223426   6.275   5.474  15.462  1.8654  1.2129  0.6442
  671TIP3   OH223427   3.681   6.306  14.060  0.1467  0.0911 -0.3837
  671TIP3    H123428   3.759   6.251  14.068 -0.1427 -0.3047 -0.2891
  671TIP3    H223429   3.700   6.383  14.114  1.6272  1.3084 -2.5662
  672TIP3   OH223430   6.009   4.249   5.021 -0.2068  0.5502  0.7577
  672TIP3    H123431   6.065   4.224   4.947 -2.0308  1.5905 -1.0283
  672TIP3    H223432   6.058   4.221   5.098  2.7099  1.3100 -0.7354
  673TIP3   OH223433   4.108   5.831  16.217  0.0376  0.1940 -0.4337
  673TIP3    H123434   4.159   5.903  16.181 -0.4921  1.0966  0.6125
  673TIP3    H223435   4.151   5.752  16.184  3.0070  0.8904  1.5597
  674TIP3   OH223436   4.651   6.325   3.633 -0.4971  0.3084  0.2032
  674TIP3    H123437   4.649   6.412   3.594 -0.6233 -0.1295 -0.7668
  674TIP3    H223438   4.739   6.293   3.618 -1.2555 -0.8691 -1.9838
  675TIP3   OH223439   1.263   6.141   4.419 -0.1265 -0.1333 -0.3450
  675TIP3    H123440   1.296   6.068   4.472 -0.6506  1.0445  1.6278
  675TIP3    H223441   1.226   6.202   4.482  0.7655  2.1034 -1.9137
  676TIP3   OH223442   3.141   0.265  17.049  0.1763  0.2636 -0.3791
  676TIP3    H123443   3.103   0.190  17.003  0.7844 -0.8723  0.9257
  676TIP3    H223444   3.123   0.247  17.141  3.8036 -0.2975  0.2670
  677TIP3   OH223445   1.022   0.818  13.283  0.0228 -0.3729  0.1281
  677TIP3    H123446   0.967   0.742  13.299 -2.4038  1.0766 -1.1565
  677TIP3    H223447   1.064   0.801  13.199  0.5130 -0.8354  0.4545
  678TIP3   OH223448   3.272   6.720  13.100  0.2750  0.1245 -0.6764
  678TIP3    H123449   3.308   6.785  13.161 -0.0301  0.4101 -0.8064
  678TIP3    H223450   3.286   6.636  13.145  0.3769  0.3037 -0.3723
  679TIP3   OH223451   1.542   1.642   4.613 -0.0240 -0.5954 -0.5266
  679TIP3    H123452   1.488   1.599   4.546 -1.0619  1.4164 -1.0418
  679TIP3    H223453   1.482   1.657   4.686  0.1894  0.3618 -0.5382
  680TIP3   OH223454   0.055   4.887   0.689 -0.1164 -0.5126 -0.3153
  680TIP3    H123455  -0.025   4.886   0.637 -0.3879  0.3665  0.0872
  680TIP3    H223456   0.031   4.931   0.770  0.6672 -0.6195 -0.0178
  681TIP3   OH223457   3.626   6.330   5.171 -0.0184 -0.1899 -0.3824
  681TIP3    H123458   3.656   6.292   5.088 -2.9549 -0.7052 -1.2744
  681TIP3    H223459   3.658   6.420   5.169  0.3548 -0.3416 -1.8354
  682TIP3   OH223460   2.517   2.295   1.409 -0.4135 -0.1764  0.1287
  682TIP3    H123461   2.604   2.323   1.440 -0.9618 -1.0190  2.5822
  682TIP3    H223462   2.476   2.374   1.376  1.2710  0.2383 -1.0489
  683TIP3   OH223463   1.499   6.373   2.193  0.4152  0.2928 -0.0919
  683TIP3    H123464   1.413   6.361   2.234  0.4021 -0.8362 -0.4101
  683TIP3    H223465   1.547   6.293   2.214  1.1481  0.6216 -0.4907
  684TIP3   OH223466   5.716   0.350  12.180 -0.3008  0.4499  0.3658
  684TIP3    H123467   5.724   0.313  12.268 -1.7099 -1.1304 -0.1551
  684TIP3    H223468   5.806   0.368  12.153  0.1700  0.5291  1.9537
  685TIP3   OH223469   3.417   0.362   2.878 -0.3491  0.3649  0.0927
  685TIP3    H123470   3.323   0.360   2.861 -0.3329 -1.1541  0.1226
  685TIP3    H223471   3.456   0.385   2.794 -0.6085 -1.5414 -0.5796
  686TIP3   OH223472   4.840   6.447   1.296 -0.2645  0.2258 -0.0446
  686TIP3    H123473   4.821   6.513   1.363 -0.2091 -0.8538  1.0499
  686TIP3    H223474   4.755   6.430   1.254 -0.3729  0.6126  0.0168
  687TIP3   OH223475   0.786   1.985   6.417  0.1019 -0.0035  0.0470
  687TIP3    H123476   0.797   1.890   6.421 -0.0026 -0.1747 -3.1282
  687TIP3    H223477   0.871   2.018   6.389 -0.0254  0.8237  0.6037
  688TIP3   OH223478   0.994   3.662  14.049 -0.5796  0.4819 -0.6299
  688TIP3    H123479   1.013   3.697  14.136 -3.4795  1.6372 -0.3974
  688TIP3    H223480   0.898   3.665  14.043 -0.5633 -2.2657 -2.7748
  689TIP3   OH223481   6.520   4.543  15.561  0.1673 -0.4319  0.3054
  689TIP3    H123482   6.446   4.515  15.507 -0.5054  2.8386 -0.6092
  689TIP3    H223483   6.492   4.527  15.651 -0.7816 -1.1607 -0.1061
  690TIP3   OH223484   4.757   5.331  11.933  0.4624 -0.5220  0.6975
  690TIP3    H123485   4.827   5.271  11.909 -0.6973 -1.4927 -0.2773
  690TIP3    H223486   4.681   5.301  11.884 -0.1062  1.8069  0.1007
  691TIP3   OH223487   2.155   0.120   1.633  0.2515  0.4074 -0.2825
  691TIP3    H123488   2.136   0.192   1.693  0.6959  1.4474 -1.3678
  691TIP3    H223489   2.200   0.055   1.688  1.4427  1.7141  0.3277
  692TIP3   OH223490   6.271   0.021   3.165  0.6185 -0.5616 -0.5126
  692TIP3    H123491   6.230  -0.062   3.143 -0.0292 -0.5208  0.5267
  692TIP3    H223492   6.363  -0.002   3.183  0.2789 -1.1617  0.4780
  693TIP3   OH223493   2.073   5.906  12.363 -0.3332  0.0145 -0.0616
  693TIP3    H123494   2.053   5.824  12.318 -0.7391  0.8562 -1.4133
  693TIP3    H223495   2.133   5.880  12.433 -0.8385 -1.5082 -0.1789
  694TIP3   OH223496   5.437   0.611   4.500 -0.4604  0.3278  0.4913
  694TIP3    H123497   5.462   0.519   4.490 -0.4888  0.3300  0.4023
  694TIP3    H223498   5.513   0.660   4.469 -0.0981  0.3354  1.3774
  695TIP3   OH223499   6.410   2.635  16.164  0.4737 -0.3876 -0.2660
  695TIP3    H123500   6.358   2.628  16.244  2.1937  0.5203  0.9807
  695TIP3    H223501   6.357   2.689  16.105 -0.0099  0.5325  0.9857
  696TIP3   OH223502   2.440   6.538   1.407  0.1983  0.1628  0.1872
  696TIP3    H123503   2.425   6.592   1.329 -2.0139 -0.6795 -0.0229
  696TIP3    H223504   2.532   6.553   1.430  0.7061  0.9530 -2.1918
  697TIP3   OH223505   3.887   1.049   5.596  0.2363 -0.1515  0.1510
  697TIP3    H123506   3.975   1.013   5.592 -0.3616 -1.8491  1.5606
  697TIP3    H223507   3.887   1.103   5.676 -0.4966 -1.6374  1.1937
  698TIP3   OH223508   5.342   1.595  14.755  0.2406  0.4296  0.0537
  698TIP3    H123509   5.367   1.503  14.755 -0.0087  0.3617 -0.2231
  698TIP3    H223510   5.276   1.603  14.685  0.4862  0.8785 -0.1305
  699TIP3   OH223511   5.413   1.291  10.757 -0.2568 -0.2848 -0.5146
  699TIP3    H123512   5.416   1.255  10.845  0.0141  1.4173  0.1941
  699TIP3    H223513   5.502   1.279  10.722 -0.1705 -0.3188 -0.2829
  700TIP3   OH223514   0.973   5.063  11.098 -0.3746  0.2988  0.4289
  700TIP3    H123515   0.927   5.081  11.016 -1.2544 -2.0944  0.3514
  700TIP3    H223516   1.050   5.012  11.072  0.5444  1.4503  0.8802
  701TIP3   OH223517   2.118   1.527   3.261 -0.4747  0.4246 -0.5216
  701TIP3    H123518   2.190   1.464   3.266  2.0690  3.1108 -1.6591
  701TIP3    H223519   2.076   1.509   3.177  0.7142  0.6680 -1.1891
  702TIP3   OH223520   6.284   3.792  11.354  0.0611  0.1771 -0.0357
  702TIP3    H123521   6.236   3.874  11.360  0.1427  0.3079 -1.1200
  702TIP3    H223522   6.370   3.812  11.392 -1.1491 -0.4017  3.0812
  703TIP3   OH223523   1.232   3.560   0.776 -0.0843 -0.3774  0.2619
  703TIP3    H123524   1.178   3.537   0.700  0.6135  1.4707 -0.8273
  703TIP3    H223525   1.169   3.588   0.842 -0.5399  0.5928 -0.5782
  704TIP3   OH223526   2.855   3.432  12.821  0.2658 -0.4332 -0.0668
  704TIP3    H123527   2.761   3.444  12.810  0.4148  0.5347 -0.3267
  704TIP3    H223528   2.871   3.453  12.913  0.3750  0.4768 -0.2794
  705TIP3   OH223529   2.042   2.364  11.694  0.5934  0.0310  0.3379
  705TIP3    H123530   2.002   2.310  11.762 -1.9982  2.0642  0.5096
  705TIP3    H223531   2.009   2.327  11.612  2.2386 -1.2786  0.2643
  706TIP3   OH223532   0.313   4.759  12.585 -0.1041 -0.3076 -0.0860
  706TIP3    H123533   0.240   4.699  12.599 -0.2088 -0.1837 -0.0949
  706TIP3    H223534   0.303   4.825  12.655 -0.7283  0.4105 -0.8475
  707TIP3   OH223535   0.481   1.670  17.001 -0.2763 -0.0393  0.1182
  707TIP3    H123536   0.419   1.699  16.934  0.9577 -0.5089 -1.2571
  707TIP3    H223537   0.511   1.751  17.042 -1.0161  0.2623  0.0578
  708TIP3   OH223538   0.323   3.612   2.705  0.6773 -0.8955  0.0212
  708TIP3    H123539   0.243   3.607   2.757  1.0485  1.7659  0.8905
  708TIP3    H223540   0.298   3.659   2.626  1.6359  0.9887  0.8201
  709TIP3   OH223541   5.773   5.753  17.130  0.3117 -0.5589 -0.4891
  709TIP3    H123542   5.700   5.702  17.094  1.2929 -1.2926 -1.4951
  709TIP3    H223543   5.752   5.844  17.108 -0.4593 -0.7256 -0.4785
  710TIP3   OH223544   1.318   1.249   5.824 -0.0454  0.0498 -0.6280
  710TIP3    H123545   1.312   1.345   5.825 -1.4849 -0.0407 -0.4144
  710TIP3    H223546   1.228   1.219   5.818  0.4948 -1.2911 -2.5580
  711TIP3   OH223547   1.376   4.452   0.338 -0.1100 -0.6687  0.5794
  711TIP3    H123548   1.452   4.488   0.384 -0.7251 -0.4366  1.4219
  711TIP3    H223549   1.334   4.396   0.404 -1.4482  0.2978  0.5467
  712TIP3   OH223550   4.608   1.286  11.166  0.3868  0.7639 -0.4623
  712TIP3    H123551   4.583   1.293  11.258 -0.0132  0.0597 -0.5132
  712TIP3    H223552   4.609   1.377  11.135 -3.0053  0.7986 -0.6782
  713TIP3   OH223553   5.087   3.360  16.101 -0.5679  0.0300  0.5196
  713TIP3    H123554   5.076   3.362  16.006  0.0639 -1.2803  0.4035
  713TIP3    H223555   5.160   3.420  16.118  1.2304 -1.9186 -0.1418
  714TIP3   OH223556   3.972   1.578  14.363  0.1130  0.6071  0.3953
  714TIP3    H123557   3.917   1.518  14.311 -0.6227  1.3769  0.2596
  714TIP3    H223558   3.972   1.541  14.451 -0.7922  0.6930  0.4388
  715TIP3   OH223559   0.891   3.891   0.316 -1.0123 -0.2497 -0.0042
  715TIP3    H123560   0.922   3.978   0.291  0.6312 -1.5389 -2.6294
  715TIP3    H223561   0.959   3.856   0.372 -1.3315 -0.1291  0.4602
  716TIP3   OH223562   0.291   2.564   4.531 -0.0835  0.1714  0.8783
  716TIP3    H123563   0.299   2.490   4.471 -0.1596  1.0189 -0.2230
  716TIP3    H223564   0.309   2.529   4.617  0.4249 -1.0094  0.2953
  717TIP3   OH223565   5.647   3.480   0.356  0.6644  0.4209 -0.2925
  717TIP3    H123566   5.595   3.404   0.329  0.3075  0.6330 -0.2014
  717TIP3    H223567   5.604   3.512   0.436  1.5945 -0.0848  0.4305
  718TIP3   OH223568   6.042   4.584   0.782 -0.3536 -0.3406  0.4265
  718TIP3    H123569   6.028   4.624   0.696  2.5086  0.4851  0.3000
  718TIP3    H223570   6.057   4.659   0.841  3.3348 -1.0774  0.5178
  719TIP3   OH223571   1.977   2.771   3.716  0.7619 -0.1889 -0.2271
  719TIP3    H123572   1.957   2.760   3.623 -0.8099 -0.2776  0.1090
  719TIP3    H223573   1.935   2.697   3.759  0.3646  0.5665  0.7043
  720TIP3   OH223574   6.407   2.456   0.932 -0.1979  0.2193  0.0362
  720TIP3    H123575   6.417   2.537   0.883 -0.7626  0.6315  0.5845
  720TIP3    H223576   6.383   2.485   1.021 -0.8774 -0.5528  0.1111
  721TIP3   OH223577   4.877   4.203  12.983 -0.0605 -0.0466 -0.4431
  721TIP3    H123578   4.799   4.234  13.030 -0.1121  0.1797 -0.6790
  721TIP3    H223579   4.871   4.244  12.897  0.6505  0.4722 -0.2447
  722TIP3   OH223580   3.013   5.124  16.278  0.5081  0.2177 -0.0972
  722TIP3    H123581   3.105   5.113  16.302  1.2669  0.8094 -2.5880
  722TIP3    H223582   3.009   5.213  16.242 -0.6117 -0.5240 -1.8418
  723TIP3   OH223583   6.644   1.813  12.407 -0.6559  0.5020 -0.2573
  723TIP3    H123584   6.571   1.868  12.436 -1.6825 -1.5316  1.1728
  723TIP3    H223585   6.723   1.861  12.431 -1.5249  1.7249  0.1726
  724TIP3   OH223586   1.177   0.451   2.954  0.4300  0.4333  1.0322
  724TIP3    H123587   1.229   0.386   2.908  0.7127 -0.4401  2.5596
  724TIP3    H223588   1.227   0.532   2.946  0.3356  0.3628 -0.4218
  725TIP3   OH223589   1.863   3.884  14.119 -0.4987  0.7234 -0.0039
  725TIP3    H123590   1.911   3.810  14.083 -0.2093  0.8785  0.0625
  725TIP3    H223591   1.814   3.920  14.045  1.0589  1.8045 -0.5319
  726TIP3   OH223592   1.448   6.348   2.963 -0.4604  0.4232  0.6374
  726TIP3    H123593   1.526   6.344   2.908 -0.5655 -1.9092  0.5715
  726TIP3    H223594   1.376   6.325   2.904 -0.6597 -1.4236  1.5504
  727TIP3   OH223595   0.706   6.752   4.957 -0.3514  0.0466  0.7665
  727TIP3    H123596   0.645   6.685   4.989 -0.6641  1.0619  2.3474
  727TIP3    H223597   0.792   6.712   4.967 -0.6212 -0.6304  0.4226
  728TIP3   OH223598   1.382   4.556  13.966 -0.0696  0.3961 -0.0452
  728TIP3    H123599   1.423   4.641  13.952 -0.4476  1.5179  4.5539
  728TIP3    H223600   1.454   4.494  13.961  0.7628  1.3697 -0.3819
  729TIP3   OH223601   5.853   0.308   3.742 -0.1200  0.6375  0.0306
  729TIP3    H123602   5.809   0.372   3.686  1.7858  2.2531  0.3072
  729TIP3    H223603   5.875   0.356   3.822  0.3342 -0.6711  0.7174
  730TIP3   OH223604   0.023   1.529   5.814  0.0351 -0.2268 -0.4733
  730TIP3    H123605   0.053   1.611   5.855  1.4374 -0.6413 -0.6302
  730TIP3    H223606  -0.046   1.497   5.872  0.2678  0.4813  0.2062
  731TIP3   OH223607   2.143   1.246   2.659 -0.3081 -0.2524 -0.4780
  731TIP3    H123608   2.233   1.223   2.680  0.1588  1.0554 -1.0421
  731TIP3    H223609   2.144   1.267   2.565 -0.9298  1.0459 -0.2093
  732TIP3   OH223610   3.962   4.804   5.573  0.7140 -0.2213  0.1008
  732TIP3    H123611   4.022   4.744   5.527 -0.2184 -2.3207  1.5622
  732TIP3    H223612   3.991   4.801   5.664 -1.6122 -1.2861  0.8235
  733TIP3   OH223613   3.762   3.492   2.501  0.3405 -0.2281  0.6312
  733TIP3    H123614   3.682   3.471   2.548  0.8197 -0.0233  1.5582
  733TIP3    H223615   3.825   3.516   2.569  0.9516  0.4043 -0.1299
  734TIP3   OH223616   6.421   2.546   5.835  0.4242  0.1080  0.2668
  734TIP3    H123617   6.392   2.506   5.753 -1.3911 -0.5216  1.1930
  734TIP3    H223618   6.410   2.478   5.901  1.3403  0.7906  1.1585
  735TIP3   OH223619   2.586   5.341  13.319 -0.1550 -0.4058  0.2067
  735TIP3    H123620   2.622   5.311  13.236 -1.9339 -0.7102 -0.4801
  735TIP3    H223621   2.563   5.261  13.366  1.9640 -0.2783  1.5512
  736TIP3   OH223622   3.550   4.327  15.106  0.0537 -0.0391  0.4261
  736TIP3    H123623   3.483   4.376  15.059 -0.0498 -0.1909  0.4150
  736TIP3    H223624   3.572   4.254  15.048 -0.6019 -0.6410  0.9245
  737TIP3   OH223625   0.238   4.576   3.699  0.2807 -0.1945  0.1538
  737TIP3    H123626   0.151   4.613   3.714  0.3071 -0.3382  0.6907
  737TIP3    H223627   0.268   4.617   3.618 -0.9404 -1.3426 -0.8988
  738TIP3   OH223628   3.334   5.863  15.431 -0.2428  0.2735 -0.3337
  738TIP3    H123629   3.415   5.856  15.381  0.1684 -0.0647  0.3829
  738TIP3    H223630   3.280   5.923  15.380  1.4238  2.5193  0.4506
  739TIP3   OH223631   2.333   5.403  12.023 -0.3880 -0.0207  0.5477
  739TIP3    H123632   2.279   5.338  11.978  0.7557 -0.6993  0.1618
  739TIP3    H223633   2.273   5.477  12.037 -1.2426 -0.5064 -0.4570
  740TIP3   OH223634   2.483   1.290  12.894 -0.4619  0.5762  0.1230
  740TIP3    H123635   2.526   1.307  12.978  0.7862  1.4466 -0.6759
  740TIP3    H223636   2.516   1.204  12.868 -1.2038  0.1008  0.7348
  741TIP3   OH223637   5.699   2.223  16.911 -0.0637  0.0950 -0.5665
  741TIP3    H123638   5.654   2.250  16.991 -0.6445 -1.4606 -0.3556
  741TIP3    H223639   5.792   2.236  16.929 -0.3250  1.7902 -0.4165
  742TIP3   OH223640   4.612   5.825   3.057 -0.4829  0.2534  0.6083
  742TIP3    H123641   4.667   5.778   2.994 -0.2229 -0.8764  1.6390
  742TIP3    H223642   4.523   5.812   3.026 -0.1964  1.7276 -0.8384
  743TIP3   OH223643   6.642   0.806  11.441 -0.0580 -0.3192  0.2547
  743TIP3    H123644   6.550   0.818  11.465 -0.2718 -1.5535  0.0677
  743TIP3    H223645   6.690   0.814  11.523 -0.4381 -0.8167  0.5208
  744TIP3   OH223646   3.027   6.199   5.007  0.6119  0.1729 -0.4347
  744TIP3    H123647   3.019   6.271   5.070 -0.3407  0.2619 -0.6444
  744TIP3    H223648   2.953   6.142   5.027  0.8237 -0.2622 -0.8856
  745TIP3   OH223649   6.566   6.416  14.735  0.3240 -0.5390 -0.0938
  745TIP3    H123650   6.585   6.379  14.649 -2.2704 -1.5772 -0.2595
  745TIP3    H223651   6.526   6.501  14.716  0.0474 -0.6238  0.1243
  746TIP3   OH223652   6.482   1.831  15.476  0.1927 -0.0025 -0.7968
  746TIP3    H123653   6.408   1.872  15.432 -1.3047  0.0562  1.6435
  746TIP3    H223654   6.457   1.739  15.485  0.0996  0.1404  0.5822
  747TIP3   OH223655   3.261   5.402  14.079 -0.0800 -0.0583  0.2888
  747TIP3    H123656   3.324   5.333  14.099  1.1439  1.3984  1.5629
  747TIP3    H223657   3.312   5.470  14.036 -1.1513  0.3440 -0.3711
  748TIP3   OH223658   2.510   2.715  12.280 -0.0793  0.2656 -0.6817
  748TIP3    H123659   2.452   2.774  12.232  0.8243  1.8267  0.0772
  748TIP3    H223660   2.596   2.727  12.239  0.4304  0.6576  0.4508
  749TIP3   OH223661   6.203   0.747   1.071  0.9618 -0.3239 -0.6758
  749TIP3    H123662   6.264   0.686   1.114 -0.0558  0.4637  2.0066
  749TIP3    H223663   6.184   0.812   1.138 -1.7078  0.2463 -1.9444
  750TIP3   OH223664   6.348   3.780   1.451 -0.1087 -0.3267  0.5041
  750TIP3    H123665   6.390   3.865   1.438 -0.6416 -0.0036  0.8679
  750TIP3    H223666   6.261   3.790   1.412 -0.0894 -0.7829  0.3393
  751TIP3   OH223667   3.860   5.534   0.746  0.2232  0.0043 -0.2558
  751TIP3    H123668   3.846   5.492   0.662  0.3103  0.3845 -0.4641
  751TIP3    H223669   3.952   5.517   0.767  1.1689  2.7418 -1.8517
  752TIP3   OH223670   3.703   1.282  16.568 -0.0437  0.1322 -0.8774
  752TIP3    H123671   3.707   1.205  16.511 -0.6352  0.7469 -1.7711
  752TIP3    H223672   3.704   1.246  16.657 -0.9660 -0.9391 -1.2790
  753TIP3   OH223673   0.426   3.938  14.764  0.8165 -0.2880  0.1498
  753TIP3    H123674   0.371   3.948  14.686  0.9835 -0.6791 -0.0205
  753TIP3    H223675   0.510   3.908  14.730  1.7008  1.9917  0.2274
  754TIP3   OH223676   4.972   2.382  13.804 -0.2387 -0.0151  0.3679
  754TIP3    H123677   4.968   2.473  13.773  2.2910 -0.7749 -2.4445
  754TIP3    H223678   5.033   2.384  13.877 -1.2507  0.7591  1.2048
  755TIP3   OH223679   6.212   3.675   0.951  0.7922 -0.0426 -0.1456
  755TIP3    H123680   6.284   3.695   0.891  0.9995  2.1642  0.7833
  755TIP3    H223681   6.252   3.676   1.038 -0.1189 -0.1008  0.2840
  756TIP3   OH223682   2.088   0.401   3.948  0.4842  0.2700  0.1034
  756TIP3    H123683   2.133   0.324   3.915  1.2750  0.2666  1.1861
  756TIP3    H223684   2.119   0.412   4.037 -0.9411  0.8297  0.5565
  757TIP3   OH223685   3.690   6.104   1.529  0.1040  0.0734  0.1699
  757TIP3    H123686   3.694   6.149   1.613 -0.3488 -0.4689  0.4911
  757TIP3    H223687   3.617   6.145   1.483 -0.6564 -0.6771  0.6784
  758TIP3   OH223688   3.398   5.198  11.805 -0.2402  0.2227 -0.4626
  758TIP3    H123689   3.370   5.106  11.801 -1.1617  0.4804  0.1546
  758TIP3    H223690   3.317   5.247  11.816  0.3356  1.0603  0.0062
  759TIP3   OH223691   5.139   3.282  12.386 -0.4050 -0.3621  0.0079
  759TIP3    H123692   5.093   3.365  12.401  0.7585  0.2377  0.3032
  759TIP3    H223693   5.212   3.283  12.448  0.0448 -1.2834 -0.4922
  760TIP3   OH223694   5.082   2.136   2.918  0.4715 -0.2935  0.2603
  760TIP3    H123695   5.054   2.056   2.961  0.2548 -0.0509  0.5721
  760TIP3    H223696   5.122   2.189   2.987 -0.2476  0.2685  0.2600
  761TIP3   OH223697   3.121   5.480   4.410 -0.3500 -0.0758  0.0594
  761TIP3    H123698   3.186   5.411   4.397  0.9176  1.1949 -0.4533
  761TIP3    H223699   3.173   5.558   4.428 -1.8010  0.4696  2.0105
  762TIP3   OH223700   1.515   5.178   5.671 -0.0737  0.0030  0.0192
  762TIP3    H123701   1.489   5.251   5.615  1.0768  1.2634  1.0789
  762TIP3    H223702   1.479   5.200   5.757  0.7713 -0.3910  0.4813
  763TIP3   OH223703   6.622   6.522   2.031  0.0066  0.4556 -0.4667
  763TIP3    H123704   6.572   6.445   2.005  1.5622 -0.5237 -0.5554
  763TIP3    H223705   6.647   6.564   1.949  2.2766 -0.9542 -0.5280
  764TIP3   OH223706   4.092   2.353  13.718  0.2658 -0.4002  0.4903
  764TIP3    H123707   4.089   2.340  13.624  0.0685 -1.2784  0.6185
  764TIP3    H223708   4.002   2.336  13.747  0.0518  0.9657  0.7022
  765TIP3   OH223709   3.120   2.515  13.159  0.3236 -0.0762 -0.4707
  765TIP3    H123710   3.029   2.532  13.181  0.4182  2.6937 -1.9991
  765TIP3    H223711   3.118   2.481  13.070  0.7690 -0.4566 -0.3423
  766TIP3   OH223712   0.114   0.798  16.812 -0.3349 -0.9643  0.2849
  766TIP3    H123713   0.099   0.858  16.885 -3.2081 -0.9307 -0.2706
  766TIP3    H223714   0.123   0.855  16.735  3.5509 -0.9511  0.6808
  767TIP3   OH223715   1.513   5.640  17.164 -0.0247 -0.8505 -0.1509
  767TIP3    H123716   1.555   5.575  17.109  0.7196 -0.2328 -0.3197
  767TIP3    H223717   1.572   5.650  17.239  0.7096  0.8468 -0.9358
  768TIP3   OH223718   4.071   2.806   0.566 -0.1229  0.0154  0.4393
  768TIP3    H123719   4.106   2.844   0.646  1.3564 -0.7217  0.1820
  768TIP3    H223720   4.056   2.880   0.508  0.8454  0.3792  0.6443
  769TIP3   OH223721   1.840   1.814  13.878  0.2009  0.2945 -0.1223
  769TIP3    H123722   1.791   1.738  13.909 -0.8115  1.5937  1.5419
  769TIP3    H223723   1.932   1.787  13.885 -0.1766 -1.1467 -0.5687
  770TIP3   OH223724   2.833   3.681   4.592 -0.3066  0.0978 -0.1474
  770TIP3    H123725   2.804   3.740   4.662  0.5876 -0.4085  0.6696
  770TIP3    H223726   2.804   3.594   4.621 -0.5499 -0.0248 -0.7536
  771TIP3   OH223727   0.879   4.567  16.143  0.1343 -0.1052 -0.1377
  771TIP3    H123728   0.968   4.545  16.115 -0.3766 -1.5170 -0.7075
  771TIP3    H223729   0.854   4.641  16.087  0.5359 -0.4300 -0.7484
  772TIP3   OH223730   1.084   1.589  13.897 -0.0843 -0.4043  0.5783
  772TIP3    H123731   1.155   1.598  13.834 -0.3418 -0.3823  0.2890
  772TIP3    H223732   1.006   1.618  13.849 -0.1718  0.2754  1.1228
  773TIP3   OH223733   6.123   2.898  17.205  0.3118 -0.3714  0.0481
  773TIP3    H123734   6.197   2.843  17.230  0.0047 -0.9295 -0.2489
  773TIP3    H223735   6.063   2.893  17.280  0.9411  0.7562  0.6418
  774TIP3   OH223736   2.716   4.388   1.204  0.5381 -0.1668 -0.3483
  774TIP3    H123737   2.635   4.336   1.203  1.8253 -2.2437 -1.6236
  774TIP3    H223738   2.688   4.477   1.185 -1.5705 -0.6384  0.3836
  775TIP3   OH223739   1.223   0.093  10.902  0.1707  0.3466  0.1238
  775TIP3    H123740   1.293   0.138  10.855 -0.3476  1.0814  0.0641
  775TIP3    H223741   1.169   0.163  10.939  0.6138 -0.2121  1.8828
  776TIP3   OH223742   6.596   0.876   2.371  0.0438  0.2485 -0.2594
  776TIP3    H123743   6.665   0.843   2.428 -0.7162  0.0065  0.5240
  776TIP3    H223744   6.558   0.797   2.331 -0.9604  0.2385  0.6808
  777TIP3   OH223745   5.792   6.700  13.003  0.0650  0.3828 -0.1277
  777TIP3    H123746   5.786   6.657  12.918  0.0242  0.6395 -0.2550
  777TIP3    H223747   5.753   6.786  12.989 -2.9712 -0.7243  0.9407
  778TIP3   OH223748   1.401   4.622  15.978  1.1251 -0.3776 -0.2863
  778TIP3    H123749   1.469   4.601  15.915  0.8388  1.4756 -1.2459
  778TIP3    H223750   1.377   4.712  15.958 -0.8566 -0.6523  0.7305
  779TIP3   OH223751   5.215   0.057  16.951  0.3755 -0.7453  0.1414
  779TIP3    H123752   5.250   0.107  16.877 -0.1771  0.6135  0.7956
  779TIP3    H223753   5.191  -0.028  16.913 -1.5390  0.5476 -1.5871
  780TIP3   OH223754   2.436   4.385   2.290  0.5974  0.2173  0.1002
  780TIP3    H123755   2.492   4.402   2.366 -1.7092  0.1986  1.8661
  780TIP3    H223756   2.359   4.441   2.303 -0.1339 -0.2621 -1.8937
  781TIP3   OH223757   5.933   3.519   5.160  0.8419  0.0252  0.0695
  781TIP3    H123758   5.985   3.446   5.128  0.9186  0.4867 -0.8884
  781TIP3    H223759   5.857   3.522   5.102  1.3545  1.3287 -0.5654
  782TIP3   OH223760   3.723   5.640  12.877  0.7934 -0.3678 -0.4156
  782TIP3    H123761   3.649   5.624  12.936  1.3560 -1.9534 -0.1278
  782TIP3    H223762   3.784   5.692  12.929  0.5605 -0.3720 -0.1382
  783TIP3   OH223763   5.829   5.919   4.986 -0.4254 -0.4128  0.5018
  783TIP3    H123764   5.836   5.961   5.071  1.8450  0.6238 -0.1349
  783TIP3    H223765   5.819   5.992   4.924  3.3160 -0.7056 -0.5879
  784TIP3   OH223766   1.086   0.502   3.825 -0.7190 -0.0657 -0.3014
  784TIP3    H123767   1.160   0.564   3.821 -0.1607 -0.5700  1.4967
  784TIP3    H223768   1.121   0.428   3.875 -1.2845 -1.9990 -2.6798
  785TIP3   OH223769   3.532   6.156  14.367 -0.3616  0.2403  0.1599
  785TIP3    H123770   3.469   6.186  14.301 -0.3546 -0.5223 -0.1964
  785TIP3    H223771   3.591   6.098  14.319  0.8627  1.2703  0.4049
  786TIP3   OH223772   5.911   4.776   3.727  0.4105  0.3767  0.6036
  786TIP3    H123773   5.873   4.774   3.814 -1.3459 -0.2839 -0.1543
  786TIP3    H223774   5.888   4.692   3.688  0.4525  0.9885 -0.7865
  787TIP3   OH223775   2.748   3.839  16.042  0.7104  0.1789 -0.1481
  787TIP3    H123776   2.699   3.887  15.975  0.8173 -0.3263 -0.5903
  787TIP3    H223777   2.690   3.840  16.118  1.2072  2.0225  0.2206
  788TIP3   OH223778   3.061   6.366   6.479 -0.2122  0.3957  0.2188
  788TIP3    H123779   3.085   6.364   6.571 -0.3113 -0.8206  0.2271
  788TIP3    H223780   3.037   6.457   6.462  1.0034  0.8818  1.0781
  789TIP3   OH223781   6.045   1.175  12.852 -0.2695  0.0632 -0.5053
  789TIP3    H123782   6.118   1.206  12.907  0.3656 -1.4121 -0.5066
  789TIP3    H223783   5.969   1.222  12.886  0.3538  0.1851  0.7572
  790TIP3   OH223784   5.058   3.253   4.975  0.1305  0.4303  0.2326
  790TIP3    H123785   5.110   3.179   5.009  0.2267 -0.0952 -1.0214
  790TIP3    H223786   5.112   3.289   4.905 -1.0506  0.0922 -0.8652
  791TIP3   OH223787   0.212   3.190  14.863  0.0948  0.4672 -0.1540
  791TIP3    H123788   0.133   3.185  14.918 -0.2948 -1.2653 -0.8386
  791TIP3    H223789   0.284   3.189  14.926 -0.3515 -1.4471  0.3672
  792TIP3   OH223790   2.688   0.072   3.798  0.3558  0.4326  0.2398
  792TIP3    H123791   2.625   0.048   3.730 -0.9713 -2.8457  2.4913
  792TIP3    H223792   2.767   0.023   3.775  0.0290 -0.3757  0.7987
  793TIP3   OH223793   1.879   4.908  14.001 -0.5745 -0.3928 -0.6124
  793TIP3    H123794   1.878   4.866  14.087 -0.0754 -0.3824 -0.5975
  793TIP3    H223795   1.972   4.927  13.984 -0.6877 -0.2203 -1.0658
  794TIP3   OH223796   2.566   5.089  13.472  0.1603 -0.1513 -0.0410
  794TIP3    H123797   2.565   5.051  13.561 -3.2488  0.4769  0.2828
  794TIP3    H223798   2.496   5.042  13.426  0.9770  0.5053 -1.9946
  795TIP3   OH223799   0.764   0.016  15.180 -0.0783 -0.2798  0.1871
  795TIP3    H123800   0.858   0.029  15.167  0.3461 -1.7220  1.6601
  795TIP3    H223801   0.735   0.097  15.222  0.4946  0.1771 -0.2706
  796TIP3   OH223802   4.717   1.722  12.629  0.9454 -0.0284  0.2705
  796TIP3    H123803   4.786   1.787  12.615  0.3016  0.8867  1.2539
  796TIP3    H223804   4.685   1.739  12.718 -2.0261  1.0018 -0.9146
  797TIP3   OH223805   2.465   5.344   2.038 -0.3914  0.4072 -0.3977
  797TIP3    H123806   2.441   5.393   1.960 -1.2510 -0.0233 -0.4101
  797TIP3    H223807   2.382   5.306   2.069 -0.2928  1.7544  1.5433
  798TIP3   OH223808   6.711   3.743  15.493 -0.4845 -0.1200 -0.0965
  798TIP3    H123809   6.636   3.688  15.469  0.3838 -0.2936 -2.5558
  798TIP3    H223810   6.678   3.800  15.562 -2.2665 -1.6492  0.3514
  799TIP3   OH223811   2.918   6.634   1.451  0.0858  0.3249  0.1704
  799TIP3    H123812   2.847   6.569   1.451 -0.2460  0.6751  1.2413
  799TIP3    H223813   2.965   6.618   1.533  1.4428 -0.1069 -0.6773
  800TIP3   OH223814   4.065   4.220  15.948  0.7566  0.3334 -0.0657
  800TIP3    H123815   3.981   4.192  15.984 -0.0829  1.2134 -1.2886
  800TIP3    H223816   4.122   4.143  15.956 -0.1712 -0.2809  0.7386
  801TIP3   OH223817   5.671   2.813   4.563  0.0025 -0.2797 -0.7684
  801TIP3    H123818   5.690   2.902   4.535  1.4234 -0.3982 -0.2322
  801TIP3    H223819   5.667   2.763   4.481  0.7515 -0.0009 -0.9839
  802TIP3   OH223820   3.092   0.811   5.451 -0.2000 -0.2622  0.7029
  802TIP3    H123821   3.031   0.738   5.440  1.3270 -1.6357  1.1243
  802TIP3    H223822   3.150   0.806   5.375  0.3577  0.0941  1.1000
  803TIP3   OH223823   3.798   1.235   6.328  0.2161  0.8013  0.2372
  803TIP3    H123824   3.751   1.252   6.410 -1.9860 -0.4986 -0.6876
  803TIP3    H223825   3.736   1.260   6.259  0.8171 -1.0798 -1.0335
  804TIP3   OH223826   2.129   0.514   0.246 -0.1759 -0.8318  0.2515
  804TIP3    H123827   2.138   0.427   0.208  1.2717 -1.5131  2.1059
  804TIP3    H223828   2.200   0.565   0.208  0.9438 -1.3658  1.5945
  805TIP3   OH223829   0.425   3.495   1.691 -0.0457  0.1824  0.3435
  805TIP3    H123830   0.395   3.406   1.677 -2.5594  0.7041  2.0599
  805TIP3    H223831   0.368   3.549   1.635  0.2370  0.8523  0.6904
  806TIP3   OH223832   6.728   3.717  10.995 -0.4463 -0.2993  0.1651
  806TIP3    H123833   6.659   3.656  10.970 -1.3118  0.7518 -0.0258
  806TIP3    H223834   6.770   3.741  10.913 -0.5267 -0.1427  0.1695
  807TIP3   OH223835   1.809   2.655   5.547  0.2302 -0.6190  0.1392
  807TIP3    H123836   1.733   2.608   5.514 -1.8642  0.7666  2.8023
  807TIP3    H223837   1.841   2.602   5.620  1.5961 -1.0000 -0.7241
  808TIP3   OH223838   3.223   6.668   0.943 -0.0147 -0.7687 -0.4426
  808TIP3    H123839   3.240   6.579   0.911 -0.1332 -0.6223 -0.9150
  808TIP3    H223840   3.308   6.712   0.939  0.3863 -1.3663  1.3919
  809TIP3   OH223841   5.238   5.001   5.578 -0.5904  0.0952  0.2942
  809TIP3    H123842   5.262   5.085   5.616 -1.2829 -0.7978  2.8552
  809TIP3    H223843   5.321   4.957   5.562 -0.2733  0.5423  0.6945
  810TIP3   OH223844   4.367   0.707  17.145  0.2604 -0.0078 -0.4801
  810TIP3    H123845   4.285   0.707  17.096  1.2376 -1.3882 -2.1760
  810TIP3    H223846   4.361   0.784  17.202 -1.8197  0.3993 -1.2137
  811TIP3   OH223847   4.471   4.349   0.961 -0.0355  0.5643 -0.0051
  811TIP3    H123848   4.377   4.336   0.944 -0.0338 -0.9623  1.0400
  811TIP3    H223849   4.474   4.417   1.028 -0.3304  1.5740 -0.9972
  812TIP3   OH223850   4.677   4.935   3.180 -0.1403  0.9326 -0.3241
  812TIP3    H123851   4.583   4.923   3.164 -0.1508  2.3457 -1.3484
  812TIP3    H223852   4.681   5.000   3.250  0.0936  1.4238 -0.7969
  813TIP3   OH223853   6.770   4.328   0.974 -0.2248 -0.2865 -0.4267
  813TIP3    H123854   6.856   4.304   0.940 -0.6866  0.0615 -1.8688
  813TIP3    H223855   6.759   4.273   1.052  2.0319  0.9398  0.8001
  814TIP3   OH223856   4.651   4.411  10.794 -0.1549 -0.2770 -0.3719
  814TIP3    H123857   4.622   4.495  10.760  0.1386  0.3065  0.8184
  814TIP3    H223858   4.570   4.360  10.802 -0.4049  0.0972 -0.5057
  815TIP3   OH223859   3.318   5.982  13.001  0.0003 -0.3312  0.0831
  815TIP3    H123860   3.372   5.919  13.049  0.2505 -0.7546 -0.7482
  815TIP3    H223861   3.280   5.931  12.930  0.3739  0.5149 -0.7245
  816TIP3   OH223862   0.211   5.715  16.557 -0.0984 -0.0909  0.2057
  816TIP3    H123863   0.292   5.734  16.605 -0.1066  2.4489 -0.6977
  816TIP3    H223864   0.214   5.773  16.481 -2.2475 -0.7848 -0.4464
  817TIP3   OH223865   1.021   1.376   2.502  0.6170  0.6439 -0.0661
  817TIP3    H123866   1.065   1.293   2.521  0.4288  0.5799  0.0931
  817TIP3    H223867   1.009   1.417   2.588 -0.5569  0.1952 -0.0025
  818TIP3   OH223868   1.778   5.280  11.139 -0.5096 -0.0092  0.5919
  818TIP3    H123869   1.701   5.336  11.149 -1.1213 -0.3985 -1.6113
  818TIP3    H223870   1.752   5.197  11.179 -0.7952  0.2337  0.9125
  819TIP3   OH223871   0.904   5.776  11.065  0.1118  0.5012 -0.1030
  819TIP3    H123872   0.988   5.804  11.103 -0.7017  1.1112  1.2657
  819TIP3    H223873   0.928   5.739  10.980  1.9214 -0.4597  0.7793
  820TIP3   OH223874   3.172   6.315  12.345  0.2610  0.6348  0.5380
  820TIP3    H123875   3.115   6.360  12.282  0.1709 -1.4579 -0.9229
  820TIP3    H223876   3.260   6.345  12.322  0.0950  0.9743  0.3362
  821TIP3   OH223877   2.772   3.876  11.430  0.1225 -0.0297  0.2813
  821TIP3    H123878   2.765   3.819  11.354 -0.6704 -1.0162  1.0798
  821TIP3    H223879   2.714   3.950  11.411 -0.6889 -0.6666  0.2787
  822TIP3   OH223880   0.924   6.183   4.284  0.1006 -0.5576 -0.1896
  822TIP3    H123881   0.956   6.105   4.330 -0.3791 -0.1639  0.8389
  822TIP3    H223882   0.864   6.148   4.217 -0.5064 -1.0577  0.6008
  823TIP3   OH223883   4.231   1.823   2.621  0.1292  0.0744 -0.2797
  823TIP3    H123884   4.217   1.828   2.527 -1.4877 -1.1166 -0.1209
  823TIP3    H223885   4.214   1.732   2.643 -3.0936  1.0377  1.6701
  824TIP3   OH223886   5.626   5.318   4.406  0.2804  0.3313  0.5176
  824TIP3    H123887   5.703   5.375   4.397 -0.1232  0.8851  0.5805
  824TIP3    H223888   5.629   5.262   4.328  0.5444  0.5969  0.3363
  825TIP3   OH223889   2.040   4.442   2.856  0.0095 -0.1859  0.2585
  825TIP3    H123890   2.027   4.367   2.799 -0.0569 -0.2722  0.3861
  825TIP3    H223891   2.134   4.442   2.874 -0.0751 -0.5642  0.7027
  826TIP3   OH223892   4.294   6.000  13.506  0.4405 -0.6652  0.1707
  826TIP3    H123893   4.374   5.949  13.519  1.3867  0.8281  0.3311
  826TIP3    H223894   4.293   6.061  13.580  0.3298  0.8115 -1.0287
  827TIP3   OH223895   1.785   0.295   5.793 -0.3793 -0.0647 -0.0196
  827TIP3    H123896   1.866   0.244   5.783  0.6311  1.4410  0.3632
  827TIP3    H223897   1.735   0.247   5.859  0.0383 -1.1970 -0.4993
  828TIP3   OH223898   3.768   0.881   6.284 -0.1982  0.1086  0.2383
  828TIP3    H123899   3.806   0.794   6.293 -2.2867 -0.8434  0.1429
  828TIP3    H223900   3.744   0.906   6.373  0.2416  0.5356  0.2426
  829TIP3   OH223901   6.477   1.343   3.076  0.0868 -0.3764  0.5148
  829TIP3    H123902   6.570   1.343   3.051 -0.2413  0.9941 -0.8362
  829TIP3    H223903   6.448   1.253   3.060  1.0567 -0.6857  0.4547
  830TIP3   OH223904   2.229   2.031   1.906  0.6962  0.2487  0.0938
  830TIP3    H123905   2.254   1.996   1.991  0.9918 -1.1226 -0.5472
  830TIP3    H223906   2.152   1.979   1.881  1.2649 -0.0982 -0.9600
  831TIP3   OH223907   6.659   2.589   1.981  0.0092  0.3068  0.3692
  831TIP3    H123908   6.647   2.683   1.981  1.6815  0.5418  1.1152
  831TIP3    H223909   6.734   2.574   2.040  0.9217 -1.3025 -1.1355
  832TIP3   OH223910   2.779   0.880  15.732  0.4259  0.8044  0.1086
  832TIP3    H123911   2.694   0.843  15.706  0.4558  0.9581 -0.1983
  832TIP3    H223912   2.788   0.960  15.681  0.8394  0.6965  0.0098
  833TIP3   OH223913   5.078   6.503   3.307 -0.5545 -0.1251 -0.1949
  833TIP3    H123914   5.158   6.490   3.256 -1.7143 -1.4939 -1.7263
  833TIP3    H223915   5.064   6.598   3.305 -0.0761 -0.0677 -1.6537
  834TIP3   OH223916   2.370   6.286   2.020 -0.6141  0.1387 -0.4877
  834TIP3    H123917   2.393   6.352   1.954  0.1842  0.1266 -0.2370
  834TIP3    H223918   2.300   6.235   1.980 -0.8310  0.7645 -0.9227
  835TIP3   OH223919   1.792   0.484  13.617  0.2621 -0.6270 -0.6920
  835TIP3    H123920   1.870   0.459  13.666  1.2961  0.5137 -1.7246
  835TIP3    H223921   1.778   0.576  13.640  0.7018 -0.1131 -2.4335
  836TIP3   OH223922   2.835   5.716  13.051  0.5684  0.7843  0.3179
  836TIP3    H123923   2.797   5.799  13.021  2.1290  1.5910  0.5069
  836TIP3    H223924   2.784   5.693  13.129  0.2695  1.6929  0.3958
  837TIP3   OH223925   1.398   5.661   5.519  0.4333 -0.0199 -0.4498
  837TIP3    H123926   1.302   5.667   5.518  0.4311 -0.1854 -1.9321
  837TIP3    H223927   1.427   5.752   5.524  0.1999  0.0955 -1.0901
  838TIP3   OH223928   4.530   3.277  11.182  0.1230 -0.1127  0.0666
  838TIP3    H123929   4.611   3.267  11.233 -0.4350 -0.7061  0.8537
  838TIP3    H223930   4.522   3.195  11.133 -1.1673 -1.0248  1.7220
  839TIP3   OH223931   6.413   5.560   0.456  0.0854 -0.3613  0.1966
  839TIP3    H123932   6.420   5.465   0.450 -0.1319 -0.2826 -1.6762
  839TIP3    H223933   6.445   5.592   0.372 -1.6940  1.0981  0.0303
  840TIP3   OH223934   4.103   4.607   3.936 -0.0306  0.2243  0.4226
  840TIP3    H123935   4.164   4.580   4.004 -1.8191  1.2291  2.4835
  840TIP3    H223936   4.157   4.651   3.871  1.6293 -0.2236  1.4719
  841TIP3   OH223937   5.759   6.184   0.870  0.2799 -0.2977 -0.2715
  841TIP3    H123938   5.677   6.228   0.894  0.6310 -0.3959  1.1255
  841TIP3    H223939   5.814   6.255   0.836 -0.2173 -0.1534 -0.7874
  842TIP3   OH223940   1.326   3.957  13.713  0.1273 -0.0966  0.6926
  842TIP3    H123941   1.392   3.920  13.773  1.6502  0.1265 -0.8078
  842TIP3    H223942   1.378   4.002  13.646 -1.5549 -0.3947 -0.8248
  843TIP3   OH223943   4.733   2.700   5.964 -0.0825 -0.0564  0.0628
  843TIP3    H123944   4.719   2.723   5.872  1.3448  0.0124 -0.1436
  843TIP3    H223945   4.774   2.613   5.961 -2.1609 -1.1004  0.7208
  844TIP3   OH223946   2.712   0.416  12.994 -0.1114  0.0065 -0.1106
  844TIP3    H123947   2.721   0.321  12.986  0.3791 -0.0485  0.9687
  844TIP3    H223948   2.639   0.428  13.054 -0.1560  0.3027 -0.2264
  845TIP3   OH223949   6.460   4.334  16.976  0.2437 -0.8436  0.0185
  845TIP3    H123950   6.477   4.362  17.066  0.8749 -1.4042  0.0756
  845TIP3    H223951   6.365   4.326  16.970  0.2325 -1.2022  0.7497
  846TIP3   OH223952   1.128   1.338   2.157 -0.1904  0.0934  0.0561
  846TIP3    H123953   1.132   1.267   2.092  0.8398 -0.4663  0.7141
  846TIP3    H223954   1.117   1.293   2.241 -0.0240  0.7400  0.4267
  847TIP3   OH223955   5.349   3.475  16.154  0.1999 -0.1346 -0.1902
  847TIP3    H123956   5.425   3.431  16.192  2.2676  0.5608 -3.3130
  847TIP3    H223957   5.377   3.566  16.142 -0.6724 -0.1234 -2.3980
  848TIP3   OH223958   3.224   6.343  12.027 -0.3873  0.6182 -0.2557
  848TIP3    H123959   3.306   6.322  12.072 -0.2596  2.3604  0.3468
  848TIP3    H223960   3.248   6.346  11.934  0.0428  0.2366 -0.1579
  849TIP3   OH223961   1.690   3.254  16.542  0.1335  0.8030  0.0117
  849TIP3    H123962   1.643   3.285  16.619  1.1254  0.5554  0.7203
  849TIP3    H223963   1.696   3.331  16.485 -0.0746  1.1352  0.4405
  850TIP3   OH223964   4.384   3.961  12.019 -0.4590  0.6689  0.0947
  850TIP3    H123965   4.311   3.992  12.074 -1.1067 -0.6681  0.0001
  850TIP3    H223966   4.357   3.874  11.990  0.9302  0.4041 -0.4297
  851TIP3   OH223967   3.882   6.313  17.216 -0.4349  0.4864 -0.0053
  851TIP3    H123968   3.910   6.363  17.292 -1.5122  1.8937 -0.5255
  851TIP3    H223969   3.793   6.286  17.236 -0.1031 -0.6684 -0.0184
  852TIP3   OH223970   4.526   3.457   1.863  0.4430 -0.0414 -0.1072
  852TIP3    H123971   4.502   3.521   1.929 -1.2955 -1.0386  0.2587
  852TIP3    H223972   4.597   3.498   1.814 -1.9319  3.0066 -1.1436
  853TIP3   OH223973   0.613   1.451  15.369 -0.0623  0.3624 -0.8082
  853TIP3    H123974   0.670   1.437  15.445 -2.5575 -0.6247  0.9272
  853TIP3    H223975   0.586   1.543  15.377 -2.2704 -0.3840  0.9503
  854TIP3   OH223976   5.975   1.542   4.301  0.2546 -0.0346  0.1648
  854TIP3    H123977   5.974   1.468   4.240  1.2824  1.2025 -1.3608
  854TIP3    H223978   5.895   1.590   4.281 -0.8267 -1.1095  1.6937
  855TIP3   OH223979   3.077   4.051  13.401  0.0572 -0.3730 -0.3270
  855TIP3    H123980   3.014   4.020  13.335  0.7553 -2.8585  0.1060
  855TIP3    H223981   3.022   4.081  13.474 -0.6587 -0.3604 -0.8587
  856TIP3   OH223982   0.784   4.563   1.346 -0.0524  0.0092 -0.2351
  856TIP3    H123983   0.761   4.591   1.258  1.6177 -0.6435 -0.8913
  856TIP3    H223984   0.747   4.475   1.354 -0.1993  0.0669 -0.2624
  857TIP3   OH223985   4.588   5.022   3.623 -0.2880  0.0308 -0.1692
  857TIP3    H123986   4.670   5.034   3.575  0.2081  1.5284  1.0007
  857TIP3    H223987   4.614   4.985   3.707 -1.0692 -1.8012 -0.7158
  858TIP3   OH223988   5.680   1.736   2.844  0.0196  0.0809  0.0690
  858TIP3    H123989   5.764   1.720   2.887  0.4013  1.6271 -0.0779
  858TIP3    H223990   5.684   1.827   2.815 -1.7917  0.2471  0.2379
  859TIP3   OH223991   3.207   5.146  12.196  0.3354  0.0773  0.0225
  859TIP3    H123992   3.243   5.098  12.121  1.2973  0.2486  0.3742
  859TIP3    H223993   3.117   5.113  12.204  0.5015 -0.5651 -0.6722
  860TIP3   OH223994   3.770   3.326   5.585  0.1476  0.1972  0.4356
  860TIP3    H123995   3.702   3.297   5.524  1.0687 -0.7472 -0.1795
  860TIP3    H223996   3.725   3.339   5.668 -0.7356 -0.6978  0.1074
  861TIP3   OH223997   5.785   6.482   3.321  0.2974  0.1436 -0.3370
  861TIP3    H123998   5.820   6.527   3.398 -0.6281  0.8629 -0.3178
  861TIP3    H223999   5.729   6.548   3.279  0.6435 -0.3035 -1.5164
  862TIP3   OH224000   2.820   5.097  12.837 -0.0889 -0.6055 -0.1771
  862TIP3    H124001   2.862   5.182  12.844 -0.0009 -0.7383  1.0645
  862TIP3    H224002   2.876   5.038  12.887 -1.8074 -0.7381  1.6723
  863TIP3   OH224003   5.318   1.941  15.037  0.0062  0.4814 -0.4737
  863TIP3    H124004   5.382   2.007  15.061 -1.3639  1.0261  1.8025
  863TIP3    H224005   5.256   1.939  15.110 -1.4504 -1.4487 -1.6984
  864TIP3   OH224006   5.381   3.936   1.173 -0.3804 -0.1651  0.4950
  864TIP3    H124007   5.365   3.844   1.154 -1.7364 -0.1052  1.2360
  864TIP3    H224008   5.476   3.945   1.174 -0.2323 -1.7491  1.3060
  865TIP3   OH224009   1.201   6.509   3.991 -0.7521 -0.2064 -0.2795
  865TIP3    H124010   1.136   6.507   4.062  0.5568  3.8663  1.1706
  865TIP3    H224011   1.280   6.545   4.032  1.3080 -1.5766 -2.8926
  866TIP3   OH224012   2.874   5.449   1.254  0.1311  0.0503  0.2756
  866TIP3    H124013   2.861   5.489   1.340 -0.6098  0.8234 -0.1829
  866TIP3    H224014   2.965   5.467   1.232  0.5251 -0.7755  1.2068
  867TIP3   OH224015   6.478   4.608   4.209 -0.2401 -0.5724  0.3189
  867TIP3    H124016   6.522   4.632   4.128  0.5933 -2.2773  0.2565
  867TIP3    H224017   6.419   4.682   4.227  1.1879  0.8177 -0.6358
  868TIP3   OH224018   2.084   6.640   2.291  0.1658  0.0129 -0.3688
  868TIP3    H124019   2.045   6.726   2.277 -2.7330 -1.2579 -0.4866
  868TIP3    H224020   2.009   6.581   2.300  2.0797 -2.5693 -0.7403
  869TIP3   OH224021   0.739   0.679  13.715 -0.2792 -0.4497 -0.2571
  869TIP3    H124022   0.720   0.725  13.796  0.0155 -0.6110 -0.0942
  869TIP3    H224023   0.833   0.659  13.720 -0.1104  0.1324 -0.9381
  870TIP3   OH224024   2.674   4.136   5.702 -0.3511  0.2139  0.5972
  870TIP3    H124025   2.709   4.213   5.746  0.4074  0.2457 -0.0555
  870TIP3    H224026   2.743   4.070   5.708 -0.3275  0.1466 -0.3398
  871TIP3   OH224027   0.567   2.842   4.760 -0.4286  0.1639  0.2085
  871TIP3    H124028   0.530   2.773   4.816 -1.2473  0.6508  0.2815
  871TIP3    H224029   0.508   2.845   4.685 -0.2391  0.5902  0.0761
  872TIP3   OH224030   2.710   0.981   5.336  0.2216  0.4662 -0.4669
  872TIP3    H124031   2.680   0.906   5.389 -1.0597  0.5216 -1.0826
  872TIP3    H224032   2.721   0.945   5.248  0.1616  0.8717 -0.6394
  873TIP3   OH224033   5.751   2.096   4.402 -0.6560  0.2277 -0.0888
  873TIP3    H124034   5.687   2.080   4.332 -1.6952 -1.2020  1.1547
  873TIP3    H224035   5.728   2.033   4.470 -0.6085  2.6195  2.1860
  874TIP3   OH224036   5.069   4.723   3.313 -0.0570 -0.2671  0.3624
  874TIP3    H124037   5.121   4.691   3.240 -0.3522  0.6906 -0.2793
  874TIP3    H224038   4.978   4.710   3.285 -0.2121  2.6783 -0.6538
  875TIP3   OH224039   3.197   2.992  14.204 -0.2115  0.2463 -0.5604
  875TIP3    H124040   3.243   2.917  14.166 -0.4846  1.0665 -2.5700
  875TIP3    H224041   3.190   3.055  14.132 -2.6629  0.9741  0.2472
  876TIP3   OH224042   6.296   2.165  13.028  0.0068 -0.0832 -0.1724
  876TIP3    H124043   6.372   2.121  12.990  0.3833  2.4578 -2.5866
  876TIP3    H224044   6.325   2.194  13.114  2.0781  1.4332 -1.3263
  877TIP3   OH224045   1.209   3.800  15.868  0.3089  0.1504  0.0396
  877TIP3    H124046   1.227   3.885  15.828  0.0643  0.5713  0.8010
  877TIP3    H224047   1.294   3.772  15.903  0.4047  0.0468 -0.2763
  878TIP3   OH224048   2.310   3.254   1.972 -0.4111  0.4504 -0.5565
  878TIP3    H124049   2.287   3.294   1.887 -1.3173  0.7724 -0.1716
  878TIP3    H224050   2.403   3.273   1.983 -0.0407 -0.4495 -1.9407
  879TIP3   OH224051   0.206   5.303  14.785 -0.5321 -0.2567 -0.1219
  879TIP3    H124052   0.229   5.217  14.751  0.1603  0.2336 -0.8973
  879TIP3    H224053   0.157   5.345  14.715  0.3934  0.5328 -0.3037
  880TIP3   OH224054   1.799   1.731   4.627  0.8901 -0.4256  0.4191
  880TIP3    H124055   1.707   1.707   4.643  1.1078 -0.5983  1.4382
  880TIP3    H224056   1.803   1.825   4.647  0.5019  0.0411 -1.5650
  881TIP3   OH224057   3.664   1.531   3.916  0.1395 -0.1436  0.0833
  881TIP3    H124058   3.655   1.444   3.878 -0.6782 -0.1767  0.3543
  881TIP3    H224059   3.755   1.534   3.947  0.1654 -0.8946  0.0778
  882TIP3   OH224060   2.773   1.537   3.558  0.2055  0.5335 -0.1065
  882TIP3    H124061   2.734   1.624   3.557  0.4758  0.6596  0.1367
  882TIP3    H224062   2.757   1.502   3.470 -2.0592 -0.1591  0.5551
  883TIP3   OH224063   1.654   2.718  16.417 -0.7446  0.0373 -0.1889
  883TIP3    H124064   1.641   2.794  16.473  0.6483  1.3449 -1.5746
  883TIP3    H224065   1.712   2.661  16.466  1.0460  1.4950 -0.5550
  884TIP3   OH224066   3.734   3.757  14.409 -0.3995  0.1264  0.2992
  884TIP3    H124067   3.798   3.696  14.446  0.2975  0.5371 -0.2198
  884TIP3    H224068   3.723   3.824  14.477 -0.4049 -0.0359  0.4587
  885TIP3   OH224069   2.979   5.999  12.175  0.3698  0.7837  0.3480
  885TIP3    H124070   3.016   5.950  12.101 -2.0600 -0.1027 -0.3396
  885TIP3    H224071   3.011   5.952  12.253 -1.5657 -1.7010 -0.2937
  886TIP3   OH224072   0.308   0.354   0.897 -0.0860  0.2803  0.6416
  886TIP3    H124073   0.228   0.339   0.948  0.4470 -1.1351  1.0771
  886TIP3    H224074   0.361   0.413   0.951  0.2734 -0.8377  1.5386
  887TIP3   OH224075   4.167   6.741  14.335 -0.2834 -0.2044  0.2873
  887TIP3    H124076   4.119   6.659  14.323 -0.4120  0.2542 -2.7838
  887TIP3    H224077   4.235   6.720  14.398  0.0813 -2.8542 -0.9153
  888TIP3   OH224078   0.817   6.180  13.330 -0.0337  0.1037  0.0213
  888TIP3    H124079   0.730   6.153  13.300 -0.5242  1.5554  0.1276
  888TIP3    H224080   0.866   6.098  13.336 -1.0202 -0.5977 -1.2145
  889TIP3   OH224081   0.538   0.325   4.164  0.4587  0.0183  0.1641
  889TIP3    H124082   0.588   0.299   4.087  0.5794  0.0274  0.2387
  889TIP3    H224083   0.604   0.356   4.226  0.2198  1.6764 -0.3897
  890TIP3   OH224084   5.148   6.501   0.231 -0.4833 -0.0782 -0.1810
  890TIP3    H124085   5.202   6.479   0.156  2.0010  0.6209  1.3537
  890TIP3    H224086   5.061   6.518   0.194  0.9506  1.4172 -3.0060
  891TIP3   OH224087   5.706   2.646  14.781  0.0509 -0.1578 -0.4166
  891TIP3    H124088   5.780   2.656  14.721  0.3792  0.3060  0.0659
  891TIP3    H224089   5.661   2.730  14.778 -0.6556 -0.5434 -0.9593
  892TIP3   OH224090   2.353   0.666   3.128  0.0405  0.2640 -0.1025
  892TIP3    H124091   2.300   0.709   3.060 -0.4835  2.0594  1.4091
  892TIP3    H224092   2.441   0.700   3.114 -0.0486  0.5620  0.0706
  893TIP3   OH224093   1.166   5.588   4.311  0.3812  0.2865  0.0565
  893TIP3    H124094   1.211   5.542   4.240 -0.4897 -0.5943  0.0618
  893TIP3    H224095   1.156   5.523   4.380  0.1747  0.8083  0.5262
  894TIP3   OH224096   5.978   3.579  15.857 -0.4421  0.9111  0.3166
  894TIP3    H124097   5.948   3.627  15.934  0.1269  1.9178 -0.0803
  894TIP3    H224098   6.053   3.629  15.826 -0.5813  0.4205 -0.8078
  895TIP3   OH224099   4.647   0.372  16.504 -0.0750  0.4448 -0.0115
  895TIP3    H124100   4.670   0.417  16.422 -0.6578  0.5330 -0.1260
  895TIP3    H224101   4.608   0.290  16.475  0.7961 -0.0473  0.1942
  896TIP3   OH224102   1.795   4.228  12.659 -0.2894  0.2172 -0.0012
  896TIP3    H124103   1.837   4.146  12.684 -0.9661  0.0726  0.6958
  896TIP3    H224104   1.712   4.201  12.619 -0.7497  0.5776  0.7074
  897TIP3   OH224105   5.368   1.063  14.441  0.1451  0.3732  0.5551
  897TIP3    H124106   5.458   1.095  14.435 -0.1974  1.3267  0.4652
  897TIP3    H224107   5.377   0.970  14.463  1.1495  0.4522  0.4847
  898TIP3   OH224108   4.489   1.514   4.989  0.0012 -0.3342 -0.4343
  898TIP3    H124109   4.508   1.552   4.903 -3.6085 -0.9387 -1.5713
  898TIP3    H224110   4.462   1.424   4.970 -1.9441 -0.1332  1.1875
  899TIP3   OH224111   5.980   5.852  15.069  0.3418  0.0541  0.1706
  899TIP3    H124112   5.932   5.931  15.096  2.5639  2.3264 -2.2667
  899TIP3    H224113   6.035   5.830  15.144  0.9269  1.8262  0.2743
  900TIP3   OH224114   1.668   1.825   2.006 -0.1195  0.1062  0.1349
  900TIP3    H124115   1.598   1.839   2.070 -1.3202 -0.1489 -1.0948
  900TIP3    H224116   1.747   1.814   2.059 -1.2754 -1.2436  1.6278
  901TIP3   OH224117   4.875   5.436  17.051  0.1755  0.0995  0.2421
  901TIP3    H124118   4.845   5.523  17.027  1.6950 -0.3365 -3.5640
  901TIP3    H224119   4.971   5.444  17.057  0.1341 -0.7247  2.5705
  902TIP3   OH224120   5.428   2.740   5.791 -0.0013  0.2702  1.0802
  902TIP3    H124121   5.471   2.734   5.706  1.4728 -2.3965  1.9779
  902TIP3    H224122   5.352   2.682   5.784 -0.5092  0.9039  1.2353
  903TIP3   OH224123   5.183   1.000   6.197  0.1923  0.2316  0.4913
  903TIP3    H124124   5.137   1.084   6.196  0.0581  0.1452 -0.5168
  903TIP3    H224125   5.273   1.023   6.224  0.4415  0.8425 -0.8148
  904TIP3   OH224126   1.510   0.882  12.088  0.1855 -0.3178 -0.3531
  904TIP3    H124127   1.583   0.866  12.148 -1.1535  0.2980  1.4699
  904TIP3    H224128   1.519   0.974  12.063 -0.9362  0.2143  1.1964
  905TIP3   OH224129   1.940   3.488   4.471  0.0308 -1.2239 -0.2187
  905TIP3    H124130   2.007   3.477   4.538 -0.9536 -0.0669  0.9696
  905TIP3    H224131   1.987   3.520   4.395  0.7541  0.1781  0.8035
  906TIP3   OH224132   0.989   2.168   4.530 -0.0227  0.3211  0.1443
  906TIP3    H124133   1.019   2.258   4.519  1.4827 -0.3810 -1.7004
  906TIP3    H224134   0.977   2.135   4.441  1.3998 -1.9505  0.7486
  907TIP3   OH224135   4.087   3.519  11.820  0.1157 -0.3015  0.2024
  907TIP3    H124136   4.054   3.569  11.746  0.9470 -1.4455 -0.9642
  907TIP3    H224137   4.099   3.583  11.890 -1.0388  0.7207 -0.5284
  908TIP3   OH224138   0.359   6.569   4.041 -0.3223 -0.6938  0.0709
  908TIP3    H124139   0.298   6.606   4.105  0.9823  1.1525  0.2658
  908TIP3    H224140   0.444   6.604   4.065  0.6312 -2.1897 -1.0213
  909TIP3   OH224141   6.526   0.344   0.390  0.4283  0.1087 -0.8958
  909TIP3    H124142   6.530   0.419   0.449 -0.2543 -0.5081 -0.0577
  909TIP3    H224143   6.522   0.383   0.302 -1.1549  1.0967 -0.4135
  910TIP3   OH224144   2.695   3.133   4.502 -0.1826  0.3406  0.0779
  910TIP3    H124145   2.701   3.051   4.453 -2.4146  0.6710 -0.8042
  910TIP3    H224146   2.774   3.135   4.555 -0.2726 -2.5717  0.3823
  911TIP3   OH224147   6.246   3.464  16.258 -0.6077  0.2452 -0.4454
  911TIP3    H124148   6.297   3.431  16.332  0.3438  1.3633 -0.5868
  911TIP3    H224149   6.164   3.494  16.297  0.2808  1.7225  0.2987
  912TIP3   OH224150   6.511   6.270   5.442  0.2837 -0.2829  0.0718
  912TIP3    H124151   6.504   6.253   5.536 -3.1530  1.1414  0.1458
  912TIP3    H224152   6.536   6.362   5.435  0.2231 -0.2980 -0.4077
  913TIP3   OH224153   4.176   2.094  13.106 -0.3000 -0.0602 -0.8028
  913TIP3    H124154   4.203   2.021  13.162  0.3493  1.2582  0.6456
  913TIP3    H224155   4.109   2.140  13.156  1.4951  2.1345 -0.3069
  914TIP3   OH224156   5.366   0.359   4.759 -0.0290 -0.4921 -0.5057
  914TIP3    H124157   5.439   0.378   4.701 -2.3249  0.2801 -3.2340
  914TIP3    H224158   5.351   0.265   4.749  0.3414 -0.5839 -0.2158
  915TIP3   OH224159   1.155   1.518  14.754  0.0884 -0.0686  0.7128
  915TIP3    H124160   1.154   1.560  14.840  1.0456  0.4487  0.4728
  915TIP3    H224161   1.066   1.485  14.743 -0.1899  0.3338  1.6652
  916TIP3   OH224162   5.807   6.368   3.965 -0.1251 -0.0429 -0.4766
  916TIP3    H124163   5.870   6.415   3.910 -0.3069  0.2321 -0.4542
  916TIP3    H224164   5.783   6.291   3.914 -0.9946  0.6867 -1.2010
  917TIP3   OH224165   5.189   4.477  15.585 -0.3999  0.1872 -0.1681
  917TIP3    H124166   5.270   4.427  15.583 -0.0657  0.7271 -0.1836
  917TIP3    H224167   5.195   4.529  15.665 -0.0680  1.3221 -0.9209
  918TIP3   OH224168   0.389   5.367  13.550 -0.1453  0.6112  0.0933
  918TIP3    H124169   0.297   5.346  13.565 -0.2746  0.2362 -1.1506
  918TIP3    H224170   0.431   5.283  13.532 -0.1386  1.0913 -2.2340
  919TIP3   OH224171   1.765   5.677   0.471  0.1779 -0.2404  0.2668
  919TIP3    H124172   1.717   5.612   0.522  0.3562 -0.0033  0.7440
  919TIP3    H224173   1.855   5.671   0.504  0.2490  0.0644  0.1287
  920TIP3   OH224174   1.796   3.638   3.536  0.0514 -0.2670  0.2548
  920TIP3    H124175   1.728   3.620   3.471  1.2193  0.4712 -1.2078
  920TIP3    H224176   1.866   3.575   3.516 -0.1253 -0.9413  1.6671
  921TIP3   OH224177   0.553   3.231  12.099 -0.4971 -0.7329 -0.3594
  921TIP3    H124178   0.649   3.236  12.106 -0.5452  1.0133 -0.6815
  921TIP3    H224179   0.529   3.309  12.049 -1.9407 -2.1841 -1.9782
  922TIP3   OH224180   1.086   1.369  15.300 -0.0281 -0.3255 -0.0738
  922TIP3    H124181   1.101   1.291  15.354 -0.0750 -1.1858 -1.2957
  922TIP3    H224182   1.174   1.395  15.271 -0.1241 -0.6106 -0.6201
  923TIP3   OH224183   3.848   2.254   1.552 -0.2243  0.4306 -0.0945
  923TIP3    H124184   3.882   2.246   1.641 -1.2444 -1.8957  0.1150
  923TIP3    H224185   3.767   2.303   1.562 -0.0604  0.6529  0.1690
  924TIP3   OH224186   0.514   6.347   3.709 -0.3411  0.1630  0.0186
  924TIP3    H124187   0.575   6.311   3.773  1.6553 -1.0498 -2.4396
  924TIP3    H224188   0.460   6.272   3.683  1.3854 -0.3230 -2.4078
  925TIP3   OH224189   2.772   0.126   1.026 -0.4237  0.1778  0.6314
  925TIP3    H124190   2.835   0.063   0.991 -0.3566  0.6072 -0.0258
  925TIP3    H224191   2.774   0.199   0.964 -0.2612  0.9665  1.5526
  926TIP3   OH224192   6.376   5.030  14.540  0.0295 -0.0539  0.2914
  926TIP3    H124193   6.458   5.061  14.579  0.1350  0.1080 -0.0578
  926TIP3    H224194   6.354   5.096  14.474  0.6592 -1.0963 -0.9836
  927TIP3   OH224195   3.800   1.734  11.506 -0.2965 -0.2541 -0.0730
  927TIP3    H124196   3.808   1.827  11.526 -1.0322 -0.1210 -0.3841
  927TIP3    H224197   3.833   1.725  11.417 -0.4245 -0.2525 -0.1216
  928TIP3   OH224198   1.539   6.410  16.821 -0.3549 -0.4494  0.7004
  928TIP3    H124199   1.618   6.414  16.768 -1.5118 -0.0598 -1.0493
  928TIP3    H224200   1.481   6.350  16.774 -0.9267 -1.1199  2.2113
  929TIP3   OH224201   6.558   2.552   2.591 -0.3097 -0.1777 -0.0461
  929TIP3    H124202   6.548   2.648   2.591  1.0495 -0.0205 -1.1223
  929TIP3    H224203   6.550   2.527   2.683 -1.6165  0.8656  0.1357
  930TIP3   OH224204   3.688   4.298  12.291 -0.4362  0.0537 -0.1489
  930TIP3    H124205   3.759   4.268  12.348  0.0073  0.6974 -0.3493
  930TIP3    H224206   3.686   4.393  12.303 -1.3572  0.0203 -0.0465
  931TIP3   OH224207   4.076   3.446  16.864  0.1592 -0.2276  0.1485
  931TIP3    H124208   4.129   3.474  16.790 -1.3731  3.0925  0.1888
  931TIP3    H224209   4.103   3.503  16.936 -0.1132 -1.7335  1.4673
  932TIP3   OH224210   6.089   1.142   4.738  0.2714 -0.3524 -0.2281
  932TIP3    H124211   6.030   1.196   4.686 -1.1643 -0.8429  0.8467
  932TIP3    H224212   6.111   1.068   4.682 -0.9486 -0.6756 -0.2771
  933TIP3   OH224213   3.282   3.783   1.397  0.3496  1.0047  0.4266
  933TIP3    H124214   3.276   3.840   1.321 -0.4850  1.4536  0.8178
  933TIP3    H224215   3.258   3.697   1.364 -1.1498  1.4125  0.4096
  934TIP3   OH224216   1.059   3.034   2.357 -0.0635 -0.4313 -0.0658
  934TIP3    H124217   1.080   2.941   2.366  1.0192 -0.2840 -0.9834
  934TIP3    H224218   1.115   3.065   2.286  0.2490  1.1273  0.8286
  935TIP3   OH224219   3.487   4.839  16.070 -0.2358 -0.4004  0.2618
  935TIP3    H124220   3.524   4.894  16.139  1.8911 -1.7135  0.2254
  935TIP3    H224221   3.543   4.761  16.069 -0.3298 -0.4870 -2.8258
  936TIP3   OH224222   1.703   5.305   5.286  0.5320  0.3928  0.1528
  936TIP3    H124223   1.663   5.344   5.363  1.3435  1.6283 -0.0422
  936TIP3    H224224   1.651   5.227   5.269 -0.7883  1.1049  0.8640
  937TIP3   OH224225   4.492   5.089  14.305  0.3579  0.5118 -0.2385
  937TIP3    H124226   4.479   5.127  14.218  0.1507 -1.4912 -1.1053
  937TIP3    H224227   4.585   5.065  14.307  0.1581 -0.2438 -0.2211
  938TIP3   OH224228   0.874   3.266   1.867 -0.9635 -0.0614 -0.3630
  938TIP3    H124229   0.880   3.208   1.791  0.0688 -0.7067  0.2096
  938TIP3    H224230   0.953   3.249   1.918 -1.6384  0.3733  0.8628
  939TIP3   OH224231   0.781   6.146  16.324  0.0946 -0.2727  0.2471
  939TIP3    H124232   0.864   6.116  16.361  1.0066 -0.0360 -1.5502
  939TIP3    H224233   0.757   6.222  16.377 -0.1985 -1.7402  2.2722
  940TIP3   OH224234   0.786   2.624   4.658  0.3078 -0.4556  0.4016
  940TIP3    H124235   0.701   2.668   4.655  1.1776  1.3014  0.6667
  940TIP3    H224236   0.767   2.533   4.637 -1.7395 -0.2308  1.1638
  941TIP3   OH224237   3.914   4.057   2.387  0.2626  0.2457 -0.3517
  941TIP3    H124238   3.855   4.126   2.416 -0.8314 -2.1303  3.4729
  941TIP3    H224239   3.993   4.103   2.360 -0.5975  3.0440  1.6286
  942TIP3   OH224240   5.977   2.243  17.206  0.1406 -0.4687  0.0237
  942TIP3    H124241   6.038   2.302  17.250  0.4816 -1.4944  0.9666
  942TIP3    H224242   6.020   2.221  17.123  0.2263  0.2210 -0.1169
  943TIP3   OH224243   1.017   2.785  15.112  0.5227  0.5344 -0.1056
  943TIP3    H124244   1.025   2.819  15.023  1.6110  0.6998  0.0483
  943TIP3    H224245   0.923   2.789  15.131  0.3560  1.0788 -1.0157
  944TIP3   OH224246   2.674   0.100  16.232  0.2285  0.1473  0.0400
  944TIP3    H124247   2.715   0.025  16.189 -0.9438 -0.4238 -0.1114
  944TIP3    H224248   2.710   0.176  16.188  0.4755 -0.3722 -0.6631
  945TIP3   OH224249   1.846   0.201   4.077 -0.0941 -0.3272  0.6104
  945TIP3    H124250   1.887   0.278   4.036  0.6330  0.7741  3.3193
  945TIP3    H224251   1.760   0.232   4.105 -0.3291 -0.8986  0.5246
  946TIP3   OH224252   0.302   1.510   4.529  0.0773  0.0141  0.0661
  946TIP3    H124253   0.298   1.584   4.589 -0.7210  0.7368 -0.8677
  946TIP3    H224254   0.296   1.433   4.586 -1.5192  0.6987  0.8558
  947TIP3   OH224255   2.172   4.389  15.034  0.1234 -0.4489  0.5040
  947TIP3    H124256   2.116   4.462  15.060  1.1822 -0.0614  1.6856
  947TIP3    H224257   2.160   4.324  15.103  1.2299 -0.3119  0.8322
  948TIP3   OH224258   5.353   1.972  12.961  0.2057  0.2409 -0.2389
  948TIP3    H124259   5.262   1.989  12.985 -0.1166  0.8274 -1.8051
  948TIP3    H224260   5.357   1.877  12.947  0.0189  0.1167  0.5448
  949TIP3   OH224261   6.220   3.504   1.644  0.1292 -0.5502  0.7493
  949TIP3    H124262   6.185   3.554   1.570 -0.4881 -2.7046 -0.4620
  949TIP3    H224263   6.305   3.473   1.614  0.2862 -0.6701  1.3102
  950TIP3   OH224264   5.758   4.888  17.051  0.5167  0.2021 -0.5105
  950TIP3    H124265   5.788   4.907  17.140  1.7506  0.0686 -0.8879
  950TIP3    H224266   5.827   4.923  16.994 -1.1584  2.0017 -1.4935
  951TIP3   OH224267   5.053   0.949  12.925  0.0603 -0.3600  0.3430
  951TIP3    H124268   5.046   1.038  12.891 -0.9839 -0.1605  1.0753
  951TIP3    H224269   5.045   0.959  13.020 -2.5729 -1.4837  0.2784
  952TIP3   OH224270   4.632   0.165  10.963  0.3268 -0.0372 -0.4207
  952TIP3    H124271   4.657   0.198  10.876  0.6680  0.3225 -0.1878
  952TIP3    H224272   4.705   0.189  11.020 -0.5338  1.0097  0.2652
  953TIP3   OH224273   2.812   6.534   6.662  0.3366 -0.0974 -0.2035
  953TIP3    H124274   2.825   6.559   6.571  0.3158 -0.1803 -0.2289
  953TIP3    H224275   2.899   6.511   6.694  0.2412 -0.7545 -0.4036
  954TIP3   OH224276   0.596   4.257   5.437  0.6793  0.1580  0.3648
  954TIP3    H124277   0.649   4.333   5.458 -0.5492  0.6297  1.8095
  954TIP3    H224278   0.566   4.224   5.521  0.2736 -1.2681 -0.3149
  955TIP3   OH224279   1.426   2.314   3.604  0.1066  0.4303 -0.4245
  955TIP3    H124280   1.396   2.306   3.695  0.5485  0.3963 -0.2755
  955TIP3    H224281   1.382   2.392   3.571 -2.2188 -1.1394 -1.0663
  956TIP3   OH224282   0.721   3.679   0.800 -0.1222 -0.0089  0.2555
  956TIP3    H124283   0.681   3.602   0.841 -1.9422  0.5094 -0.5189
  956TIP3    H224284   0.696   3.673   0.708  1.7393  0.2457 -0.2833
  957TIP3   OH224285   4.637   6.390  15.679 -0.1957  0.3217 -0.4525
  957TIP3    H124286   4.691   6.442  15.738 -1.5796  1.0153  0.2061
  957TIP3    H224287   4.680   6.304  15.678 -0.8844 -0.1277  2.6193
  958TIP3   OH224288   0.302   2.658  16.715 -0.4828 -0.7096  0.2814
  958TIP3    H124289   0.336   2.747  16.700 -0.7954 -0.5010  0.7838
  958TIP3    H224290   0.329   2.638  16.805 -1.3378 -0.6943  0.5457
  959TIP3   OH224291   5.227   2.706  12.619 -0.2216 -0.0700  0.4563
  959TIP3    H124292   5.154   2.742  12.568  0.4990  0.8605  0.0646
  959TIP3    H224293   5.240   2.768  12.690  1.5230  0.9013 -0.6574
  960TIP3   OH224294   5.989   5.415   1.776  0.3212  0.6298 -0.5402
  960TIP3    H124295   5.911   5.363   1.793  0.9051 -0.4237 -1.0589
  960TIP3    H224296   5.957   5.496   1.736 -0.5575  0.5428 -0.0083
  961TIP3   OH224297   5.954   1.637   3.560 -0.0405 -0.1374  0.1042
  961TIP3    H124298   5.961   1.576   3.633 -1.6117 -0.6668 -0.1818
  961TIP3    H224299   6.016   1.707   3.581 -0.9194  0.0211  2.2356
  962TIP3   OH224300   5.841   6.186   3.259 -0.2215  0.7819 -0.2046
  962TIP3    H124301   5.840   6.184   3.163 -2.0957 -0.8916 -0.2022
  962TIP3    H224302   5.820   6.277   3.281  0.4991  1.2448 -1.3883
  963TIP3   OH224303   2.603   6.093  14.240  0.3215  0.0112  0.2614
  963TIP3    H124304   2.571   6.006  14.261 -0.4157  0.4846  1.1471
  963TIP3    H224305   2.554   6.151  14.298  1.4542  0.9304  0.3167
  964TIP3   OH224306   5.856   5.205  14.435  0.5699 -0.2624  0.1042
  964TIP3    H124307   5.883   5.131  14.381  0.7440 -0.5836  0.6310
  964TIP3    H224308   5.926   5.216  14.498 -0.6417 -1.2816  1.6570
  965TIP3   OH224309   5.114   0.544   6.172  0.1867  0.2595  0.1280
  965TIP3    H124310   5.067   0.517   6.251 -0.1074  0.2381 -0.0552
  965TIP3    H224311   5.121   0.639   6.179 -0.5049  0.3362 -0.1897
  966TIP3   OH224312   3.550   5.898  15.240 -0.0436 -0.1546  0.1685
  966TIP3    H124313   3.599   5.970  15.201 -1.5960  0.1958 -1.2136
  966TIP3    H224314   3.608   5.822  15.232  0.9893  0.6249  0.2421
  967TIP3   OH224315   4.923   4.023  13.598  0.4975  0.1295  0.1716
  967TIP3    H124316   4.866   3.963  13.548 -0.9989  1.2224  0.5149
  967TIP3    H224317   4.916   3.993  13.688  1.3674 -0.4374  0.0451
  968TIP3   OH224318   6.390   1.713  11.921  0.6944 -0.9296 -0.0610
  968TIP3    H124319   6.408   1.700  12.014  0.2578 -0.4600  0.0983
  968TIP3    H224320   6.461   1.769  11.891 -0.3690  0.7880  0.5230
  969TIP3   OH224321   5.148   1.496   2.024 -0.4672  0.1780  0.5423
  969TIP3    H124322   5.164   1.490   1.930 -3.1255 -0.2418  0.0653
  969TIP3    H224323   5.134   1.589   2.040 -0.4157  0.2051  0.4315
  970TIP3   OH224324   5.251   2.428   1.963  0.0604 -0.4479 -0.4447
  970TIP3    H124325   5.211   2.502   1.916 -1.6732 -0.2408  1.2949
  970TIP3    H224326   5.261   2.460   2.053 -0.5012 -2.2491  0.2682
  971TIP3   OH224327   4.947   4.406   5.559  0.3515  0.2926 -0.1402
  971TIP3    H124328   5.001   4.471   5.515  0.5139  0.9313  0.9869
  971TIP3    H224329   4.931   4.339   5.493 -0.2478  1.7241 -1.4845
  972TIP3   OH224330   4.477   5.174   4.195  0.5888  0.0812  0.1535
  972TIP3    H124331   4.545   5.129   4.146  0.8147 -1.2671  1.6597
  972TIP3    H224332   4.450   5.112   4.262 -1.9020  0.7244 -0.1895
  973TIP3   OH224333   3.210   0.614  12.043 -0.0166 -0.3325  1.1631
  973TIP3    H124334   3.122   0.582  12.062 -1.0340  2.2344  0.9393
  973TIP3    H224335   3.241   0.650  12.126 -0.4569  1.6644  0.4774
  974TIP3   OH224336   3.847   0.925  15.641  0.3040  0.3060  0.2610
  974TIP3    H124337   3.825   0.844  15.688 -1.5078  1.0147  0.6713
  974TIP3    H224338   3.880   0.984  15.709  0.0421  0.4792  0.2383
  975TIP3   OH224339   4.255   4.542   2.331 -0.2055 -0.7586 -0.0118
  975TIP3    H124340   4.198   4.612   2.364  1.4093  1.0624 -1.0487
  975TIP3    H224341   4.310   4.518   2.406 -0.8928 -1.0995  0.3974
  976TIP3   OH224342   3.888   3.645  12.063 -0.2286  0.1760 -0.0728
  976TIP3    H124343   3.837   3.624  12.141  0.5632 -0.1973  0.3457
  976TIP3    H224344   3.823   3.676  11.999 -0.6847  2.0367  1.2620
  977TIP3   OH224345   6.506   2.052  12.895  0.4840  0.3025  0.2595
  977TIP3    H124346   6.462   1.986  12.841  0.1856 -1.4473  2.5161
  977TIP3    H224347   6.597   2.022  12.900  0.3407  0.0203  1.3260
  978TIP3   OH224348   3.070   1.250   3.318 -0.2183 -0.7353 -0.0097
  978TIP3    H124349   2.974   1.252   3.317 -0.2273 -1.0199 -1.6680
  978TIP3    H224350   3.096   1.315   3.253  0.7106 -1.2288 -0.1362
  979TIP3   OH224351   1.308   0.994   5.173 -0.0121 -0.0027 -0.4245
  979TIP3    H124352   1.279   1.052   5.103 -0.0773 -0.2997 -0.6468
  979TIP3    H224353   1.328   0.911   5.128 -0.5036 -0.3374 -0.0241
  980TIP3   OH224354   4.926   4.877  12.651 -0.2200  0.3350  0.0633
  980TIP3    H124355   4.909   4.918  12.736 -0.7693  0.8445 -0.2845
  980TIP3    H224356   4.989   4.936  12.609 -1.1412  0.9144 -0.5054
  981TIP3   OH224357   4.052   2.938   0.017 -0.0662  0.1998 -0.3589
  981TIP3    H124358   3.983   3.005   0.026 -0.5519 -0.2410 -0.7567
  981TIP3    H224359   4.117   2.979  -0.040 -1.1761 -0.2840 -2.0196
  982TIP3   OH224360   2.714   2.807   1.796  0.3451  0.8080  0.7905
  982TIP3    H124361   2.639   2.850   1.755  0.8838 -0.5864 -1.7864
  982TIP3    H224362   2.691   2.801   1.889 -3.4821 -1.1029 -0.2015
  983TIP3   OH224363   6.780   2.634  14.047 -0.1766 -0.3273 -0.0367
  983TIP3    H124364   6.702   2.634  14.103  0.7527  0.4470  1.2938
  983TIP3    H224365   6.830   2.710  14.078  1.0165 -0.7233 -1.0035
  984TIP3   OH224366   1.609   6.199  13.102  0.7071  0.0902 -0.3165
  984TIP3    H124367   1.610   6.128  13.037 -0.8454  0.4424 -0.7437
  984TIP3    H224368   1.583   6.277  13.052 -0.7345  0.3168  0.7532
  985TIP3   OH224369   0.663   5.754  11.203 -0.1435 -0.9161  0.2572
  985TIP3    H124370   0.714   5.720  11.276  1.5115  2.2073  0.6398
  985TIP3    H224371   0.728   5.780  11.138 -1.3339  0.8709 -0.2507
  986TIP3   OH224372   3.492   4.348   1.478 -0.1750 -0.0313 -0.0975
  986TIP3    H124373   3.397   4.347   1.485 -0.1164  0.1815  0.7838
  986TIP3    H224374   3.512   4.428   1.430 -0.4363 -0.0093 -0.1685
  987TIP3   OH224375   0.600   1.161  13.242  0.5657 -0.3472 -0.2152
  987TIP3    H124376   0.557   1.197  13.164  1.4280 -1.2327 -1.1022
  987TIP3    H224377   0.551   1.081  13.261 -0.2931  0.3882  0.7784
  988TIP3   OH224378   1.751   4.027   0.785  0.4771 -0.4562 -0.1579
  988TIP3    H124379   1.847   4.027   0.788  0.4525 -1.1522  1.0003
  988TIP3    H224380   1.728   3.940   0.753  0.2031 -0.8587  1.1114
  989TIP3   OH224381   5.158   1.726   4.305  0.5683  0.2827 -0.2968
  989TIP3    H124382   5.206   1.755   4.383  0.6774 -0.8833  0.0772
  989TIP3    H224383   5.222   1.731   4.234  1.2529 -1.2360  0.1949
  990TIP3   OH224384   2.436   2.820   4.044 -0.0729  0.4563  0.5897
  990TIP3    H124385   2.382   2.899   4.040 -0.7031  0.1776  3.0924
  990TIP3    H224386   2.482   2.826   4.128  1.7311 -0.6588 -0.2761
  991TIP3   OH224387   0.792   0.539  10.594 -0.1422 -0.1354  0.2519
  991TIP3    H124388   0.731   0.523  10.666 -0.6787  0.5714 -0.0443
  991TIP3    H224389   0.845   0.459  10.589 -3.3165 -2.2127 -1.7577
  992TIP3   OH224390   0.428   0.138  16.388  0.0590 -0.2699  0.3490
  992TIP3    H124391   0.499   0.185  16.432  0.3023  0.0227 -0.3454
  992TIP3    H224392   0.395   0.200  16.323  1.1350 -1.4402 -1.3622
  993TIP3   OH224393   1.369   1.756   4.800 -0.0945  0.0783 -0.4324
  993TIP3    H124394   1.304   1.815   4.762  0.3664  0.5714 -0.4723
  993TIP3    H224395   1.370   1.778   4.893  0.1400  0.1970 -0.4621
  994TIP3   OH224396   5.456   6.391  14.027 -0.0410 -0.5018  0.4553
  994TIP3    H124397   5.536   6.441  14.009 -0.4696 -0.2636 -0.8068
  994TIP3    H224398   5.453   6.385  14.123  0.8032  0.6056  0.5634
  995TIP3   OH224399   5.663   0.754  11.234  0.3609  0.0203  0.2068
  995TIP3    H124400   5.753   0.782  11.249  0.5946 -0.7446  0.2677
  995TIP3    H224401   5.669   0.658  11.227 -0.3074  0.0378 -0.6943
  996TIP3   OH224402   4.982   1.672  17.184 -0.5707  0.8582 -0.0750
  996TIP3    H124403   4.989   1.589  17.137  0.2986  0.3607  0.9189
  996TIP3    H224404   4.899   1.709  17.155 -1.8964 -1.2559  0.9258
  997TIP3   OH224405   6.297   0.236  15.942  0.0735  0.1411 -0.5271
  997TIP3    H124406   6.360   0.169  15.968  0.2509  0.5280  0.0461
  997TIP3    H224407   6.228   0.232  16.007 -1.1416 -1.1260 -1.8431
  998TIP3   OH224408   0.708   3.061  15.961  0.0082  0.3737 -0.6381
  998TIP3    H124409   0.650   3.134  15.938  0.8532  0.8588 -1.2558
  998TIP3    H224410   0.796   3.093  15.942  0.6442  0.2880  1.9964
  999TIP3   OH224411   1.430   3.655   2.944 -0.3214  0.1901  0.4650
  999TIP3    H124412   1.378   3.677   3.021  1.2454 -0.4301  1.7272
  999TIP3    H224413   1.442   3.561   2.949 -1.9606 -0.1586 -1.6898
 1000TIP3   OH224414   4.305   4.294  14.327 -1.2441  0.4095 -0.5338
 1000TIP3    H124415   4.246   4.318  14.398  1.1220  2.4013  0.8015
 1000TIP3    H224416   4.348   4.375  14.302  1.4692 -1.0939 -0.9804
 1001TIP3   OH224417   1.546   6.566   3.599  0.3448 -0.3854 -0.1169
 1001TIP3    H124418   1.488   6.638   3.626 -0.2906 -0.0347 -2.3182
 1001TIP3    H224419   1.547   6.507   3.674 -1.3231  0.5755  0.6944
 1002TIP3   OH224420   4.785   1.381  11.545 -0.0007 -0.0250 -0.5671
 1002TIP3    H124421   4.841   1.351  11.616 -0.3215  0.5605 -0.0640
 1002TIP3    H224422   4.833   1.359  11.465 -0.5370 -2.5174 -0.2521
 1003TIP3   OH224423   1.426   2.162   4.058 -0.1775 -0.4483 -0.0992
 1003TIP3    H124424   1.413   2.131   3.968  2.1030  0.3581 -0.7404
 1003TIP3    H224425   1.520   2.156   4.072  0.0589  3.6001  0.6562
 1004TIP3   OH224426   2.095   6.709   2.605 -0.1967  0.5245  0.8743
 1004TIP3    H124427   2.134   6.657   2.675 -1.6010  0.1469  1.4020
 1004TIP3    H224428   2.101   6.653   2.528 -1.1855 -0.2160  1.3185
 1005TIP3   OH224429   5.153   4.493  12.116  0.4452  0.4486  0.2751
 1005TIP3    H124430   5.236   4.504  12.070 -0.0120 -0.3135 -0.7571
 1005TIP3    H224431   5.167   4.416  12.171  0.2930  0.0644 -0.2163
 1006TIP3   OH224432   4.766   1.259   1.318  0.3209  0.0290 -1.1194
 1006TIP3    H124433   4.686   1.290   1.361 -0.3193 -3.3501  0.2347
 1006TIP3    H224434   4.836   1.310   1.360 -0.7804  0.3952  0.3357
 1007TIP3   OH224435   2.477   0.040  15.369 -0.2498  0.2556 -0.2058
 1007TIP3    H124436   2.435   0.049  15.454 -1.1726  0.7995 -0.7153
 1007TIP3    H224437   2.569   0.060  15.386 -0.6556  1.6334  0.4215
 1008TIP3   OH224438   2.299   2.875  12.494 -0.0313 -1.0682  0.1505
 1008TIP3    H124439   2.229   2.922  12.539  1.2339 -0.9816  2.0882
 1008TIP3    H224440   2.255   2.803  12.449 -1.6582  0.4004 -0.6756
 1009TIP3   OH224441   5.663   4.325  11.195 -0.0760  0.4469 -0.1462
 1009TIP3    H124442   5.752   4.309  11.228 -1.1262 -2.3516  1.5248
 1009TIP3    H224443   5.674   4.336  11.101  2.1602  1.2497  0.1653
 1010TIP3   OH224444   4.135   5.470  15.272  0.2579  0.3060  0.2427
 1010TIP3    H124445   4.101   5.501  15.356  0.2492 -1.0856  0.7822
 1010TIP3    H224446   4.116   5.540  15.210 -1.7876  0.3803  0.9361
 1011TIP3   OH224447   5.053   2.679  17.051 -0.2421 -0.0137 -0.2492
 1011TIP3    H124448   5.104   2.758  17.064 -0.0669 -0.0454 -0.7319
 1011TIP3    H224449   4.994   2.700  16.979  0.0475 -0.4389 -0.6133
 1012TIP3   OH224450   0.143   1.482  14.734 -0.0419 -1.0052  0.7120
 1012TIP3    H124451   0.162   1.490  14.827  1.2414  0.8024  0.3371
 1012TIP3    H224452   0.057   1.523  14.723  1.4999  2.3806  0.5708
 1013TIP3   OH224453   6.199   4.560   4.500 -0.8831 -0.4810  0.2166
 1013TIP3    H124454   6.150   4.625   4.450  0.5782 -1.5017 -2.7076
 1013TIP3    H224455   6.284   4.601   4.516 -0.7050 -0.8635  0.2557
 1014TIP3   OH224456   4.525   5.249  11.790  0.5455 -0.4857  0.4895
 1014TIP3    H124457   4.445   5.275  11.745  2.3324  1.0159 -1.9360
 1014TIP3    H224458   4.538   5.157  11.765 -0.8123 -0.9893  1.5615
 1015TIP3   OH224459   0.732   4.127  12.082 -0.6414  0.2029  0.1377
 1015TIP3    H124460   0.768   4.190  12.144  3.3512  0.1796 -1.9236
 1015TIP3    H224461   0.682   4.181  12.020  0.4584  1.0437 -0.0521
 1016TIP3   OH224462   0.828   6.661  13.995 -0.5159 -0.5240  0.6184
 1016TIP3    H124463   0.888   6.718  14.044  0.5977 -0.3661 -0.9094
 1016TIP3    H224464   0.850   6.573  14.024  0.0404 -0.4241  0.4952
 1017TIP3   OH224465   3.116   2.132   4.361 -0.4129 -0.2623  0.0803
 1017TIP3    H124466   3.148   2.069   4.296 -0.0961  1.3980 -1.4367
 1017TIP3    H224467   3.046   2.179   4.316 -0.9104  0.1948  1.3165
 1018TIP3   OH224468   6.489   4.072   2.292 -0.7005 -0.2210 -0.5909
 1018TIP3    H124469   6.499   4.016   2.215 -0.7339 -1.4609  0.2905
 1018TIP3    H224470   6.434   4.022   2.351  1.7997 -0.5844  1.4900
 1019TIP3   OH224471   5.688   0.132  12.867  0.3254 -0.0721 -0.2983
 1019TIP3    H124472   5.669   0.223  12.891  0.2327  0.1924 -1.3617
 1019TIP3    H224473   5.745   0.138  12.791 -1.2473 -0.9088 -1.5713
 1020TIP3   OH224474   5.701   1.460  10.771  0.3525 -0.3326  0.3381
 1020TIP3    H124475   5.614   1.494  10.749  0.2957  0.6724  2.0381
 1020TIP3    H224476   5.684   1.399  10.843  1.0740  0.0509  0.8330
 1021TIP3   OH224477   3.980   5.421  13.642  0.5503 -0.2559 -0.0080
 1021TIP3    H124478   3.920   5.347  13.646 -0.8721  0.8898  0.1839
 1021TIP3    H224479   4.058   5.386  13.599 -0.9097 -1.3207 -1.8382
 1022TIP3   OH224480   3.212   3.097  13.249  0.1463 -0.1341 -0.0893
 1022TIP3    H124481   3.269   3.030  13.286  0.8791  0.7929  0.5020
 1022TIP3    H224482   3.270   3.171  13.231 -0.6133  0.2823 -0.9043
 1023TIP3   OH224483   4.050   0.531  10.960 -1.0963 -0.0676 -0.2718
 1023TIP3    H124484   4.050   0.484  10.877  0.4285  0.3761 -0.5535
 1023TIP3    H224485   4.063   0.623  10.935 -2.1039  0.2628  0.3796
 1024TIP3   OH224486   3.855   1.449   3.492  0.0732 -0.0480  0.0554
 1024TIP3    H124487   3.887   1.411   3.410 -0.1842 -0.3186  0.0819
 1024TIP3    H224488   3.770   1.488   3.469  0.9302  1.6864 -0.2890
 1025TIP3   OH224489   6.249   2.989  13.651 -0.5564  0.0615 -0.1328
 1025TIP3    H124490   6.315   3.012  13.716  1.2532  1.7919 -2.4857
 1025TIP3    H224491   6.168   3.028  13.685  0.4070  1.1892  0.9516
 1026TIP3   OH224492   4.027   3.494   4.139 -0.3359 -0.0472 -0.2010
 1026TIP3    H124493   4.008   3.587   4.141 -1.2593 -0.2458  0.7359
 1026TIP3    H224494   4.010   3.468   4.048 -1.6354  0.3805 -0.0918
 1027TIP3   OH224495   1.377   4.913  14.230 -0.2038  0.4436 -0.0717
 1027TIP3    H124496   1.291   4.912  14.189 -1.0599  1.9208  1.5914
 1027TIP3    H224497   1.433   4.958  14.167 -0.8878  0.3824 -0.7345
 1028TIP3   OH224498   5.585   2.343   5.147 -0.4652 -0.0554 -0.0557
 1028TIP3    H124499   5.587   2.437   5.162  2.1080  0.5050 -3.4161
 1028TIP3    H224500   5.540   2.332   5.064 -0.8870 -1.8145  0.3708
 1029TIP3   OH224501   4.394   6.348   0.375 -0.6490 -0.5212 -0.0441
 1029TIP3    H124502   4.485   6.319   0.367  0.1633  2.1414 -1.0955
 1029TIP3    H224503   4.353   6.320   0.294 -0.2337  0.0037 -0.4427
 1030TIP3   OH224504   6.259   3.955   3.595 -0.1932  0.4039 -0.2852
 1030TIP3    H124505   6.312   4.014   3.543 -0.7940 -0.0314 -1.4013
 1030TIP3    H224506   6.315   3.931   3.669  0.9947  0.2882 -1.2222
 1031TIP3   OH224507   3.222   0.431   2.697 -0.4133 -0.0098  0.0389
 1031TIP3    H124508   3.191   0.377   2.624 -1.5017  0.9013 -0.1895
 1031TIP3    H224509   3.206   0.521   2.669 -1.3149  0.3352  1.6036
 1032TIP3   OH224510   4.806   0.815   5.737  0.5461  0.1708  0.1101
 1032TIP3    H124511   4.854   0.869   5.800  1.5800 -1.2802  0.5827
 1032TIP3    H224512   4.734   0.779   5.788  2.0742 -1.9764  0.8151
 1033TIP3   OH224513   3.849   5.303   6.147  0.4372  1.1621 -0.3211
 1033TIP3    H124514   3.881   5.214   6.160  1.1526  1.3317 -0.8690
 1033TIP3    H224515   3.845   5.340   6.235  1.2110  0.9498 -0.1862
 1034TIP3   OH224516   2.121   4.824  14.399  0.0557  0.2978  0.3926
 1034TIP3    H124517   2.066   4.748  14.378  0.7455 -0.7795  2.2882
 1034TIP3    H224518   2.193   4.820  14.335 -0.8352  0.3896 -0.6305
 1035TIP3   OH224519   4.816   0.950  10.590  0.3698 -0.3380  0.1279
 1035TIP3    H124520   4.808   0.872  10.536 -1.2044  0.1953 -0.4105
 1035TIP3    H224521   4.827   1.022  10.528 -3.0918  0.4908  0.4058
 1036TIP3   OH224522   2.596   0.058   5.200  0.0828 -0.6276 -0.2505
 1036TIP3    H124523   2.616   0.055   5.107 -0.9469  1.9121 -0.5707
 1036TIP3    H224524   2.647   0.132   5.234 -1.5898  0.1185  0.6852
 1037TIP3   OH224525   0.797   6.154  13.668  0.4063 -0.0825 -0.5617
 1037TIP3    H124526   0.825   6.165  13.577  0.6245  1.3008 -0.3379
 1037TIP3    H224527   0.811   6.240  13.708  0.8805 -0.8357  0.9380
 1038TIP3   OH224528   2.534   5.592  11.916  0.1631 -0.3526 -0.2184
 1038TIP3    H124529   2.497   5.508  11.943 -0.3440  0.0038  0.2152
 1038TIP3    H224530   2.582   5.623  11.993  0.5870 -0.3815 -0.4726
 1039TIP3   OH224531   0.621   0.641  16.195  0.1971  0.3669  0.2369
 1039TIP3    H124532   0.605   0.735  16.198  1.4742  0.5507  1.8537
 1039TIP3    H224533   0.708   0.632  16.157 -0.1834 -0.2004 -0.5202
 1040TIP3   OH224534   0.068   4.866   3.428  0.3630 -0.6299 -0.5006
 1040TIP3    H124535  -0.026   4.880   3.439  0.6245  0.1726  0.8198
 1040TIP3    H224536   0.103   4.953   3.407  0.9346 -0.7271  0.0190
 1041TIP3   OH224537   3.166   1.472  12.110  0.4961 -0.2700  0.0131
 1041TIP3    H124538   3.142   1.388  12.149  0.0023  0.3132  0.9770
 1041TIP3    H224539   3.092   1.529  12.128  0.0499 -0.1229 -2.2199
 1042TIP3   OH224540   2.809   6.744  15.693 -0.8879  0.0683 -0.4098
 1042TIP3    H124541   2.791   6.762  15.785 -2.0974 -1.1660 -0.4021
 1042TIP3    H224542   2.806   6.649  15.685  3.0301 -0.0926 -0.9662
 1043TIP3   OH224543   0.745   3.896   1.097 -0.4622 -0.4959  0.2949
 1043TIP3    H124544   0.781   3.848   1.172  0.2358 -0.4409  0.0034
 1043TIP3    H224545   0.822   3.933   1.054 -0.8535 -0.5934 -0.4925
 1044TIP3   OH224546   2.815   2.856  15.098 -0.3188  0.7842 -0.2764
 1044TIP3    H124547   2.799   2.867  15.005  1.6797  0.8119 -0.6528
 1044TIP3    H224548   2.835   2.944  15.130 -1.0926  0.7918  0.2032
 1045TIP3   OH224549   1.476   0.547  13.910 -0.3032  0.4761  0.3042
 1045TIP3    H124550   1.455   0.599  13.988 -0.0675  0.7647  0.1774
 1045TIP3    H224551   1.549   0.492  13.937  0.0654  0.8907  0.1591
 1046TIP3   OH224552   2.346   2.808   3.284  0.1840 -0.3018  0.0816
 1046TIP3    H124553   2.260   2.773   3.306  0.0008 -1.1718 -1.8535
 1046TIP3    H224554   2.328   2.893   3.243  0.3599  0.2544  1.1526
 1047TIP3   OH224555   0.306   5.601  11.696 -0.1217 -0.3219 -0.4541
 1047TIP3    H124556   0.212   5.582  11.690 -0.2064  0.5270 -2.2807
 1047TIP3    H224557   0.339   5.587  11.607  0.6012  3.7548 -0.9558
 1048TIP3   OH224558   0.573   0.309   1.403 -0.5449  0.0546 -0.8518
 1048TIP3    H124559   0.600   0.218   1.413  2.6277  1.0622  0.3230
 1048TIP3    H224560   0.517   0.326   1.478  0.7410 -0.3036  0.2127
 1049TIP3   OH224561   4.681   3.319   0.650 -0.7182 -0.4173  0.3796
 1049TIP3    H124562   4.624   3.395   0.657 -0.7248 -0.4663  0.8663
 1049TIP3    H224563   4.622   3.244   0.645 -0.8707 -0.0968 -4.8516
 1050TIP3   OH224564   0.112   6.085   0.786 -0.5005 -0.4746 -0.0078
 1050TIP3    H124565   0.164   6.063   0.710  2.5053  1.7959  1.3017
 1050TIP3    H224566   0.051   6.153   0.755 -0.9521 -1.2799 -0.9149
 1051TIP3   OH224567   0.723   6.682   0.242  0.1972  0.1062  0.2448
 1051TIP3    H124568   0.751   6.762   0.198  0.0146  0.1746  0.2545
 1051TIP3    H224569   0.805   6.638   0.266  0.3113 -0.6457 -1.4523
 1052TIP3   OH224570   3.442   0.620   2.309 -0.4235  0.0286 -0.4311
 1052TIP3    H124571   3.482   0.706   2.307 -0.1747 -0.0944 -1.4000
 1052TIP3    H224572   3.403   0.612   2.396  1.4432  0.2441  0.4515
 1053TIP3   OH224573   0.045   6.349   3.006  0.0234  0.1245  0.3025
 1053TIP3    H124574  -0.031   6.404   3.025  1.9586  3.6836 -1.8714
 1053TIP3    H224575   0.107   6.370   3.076  0.4009 -0.0710  0.0226
 1054TIP3   OH224576   3.343   6.261   5.792 -0.2792  0.5515 -0.3503
 1054TIP3    H124577   3.402   6.227   5.859 -0.8489  1.1540  0.4678
 1054TIP3    H224578   3.299   6.184   5.757 -0.6571  0.3214  0.6185
 1055TIP3   OH224579   2.056   5.934   2.313 -0.0186 -0.4521  0.1524
 1055TIP3    H124580   2.136   5.902   2.273  0.4467 -0.9820  1.4683
 1055TIP3    H224581   1.991   5.932   2.243  1.0136 -0.3983 -0.8162
 1056TIP3   OH224582   0.634   0.129   5.830 -0.3569 -0.0232 -0.0904
 1056TIP3    H124583   0.605   0.158   5.743 -0.2123 -2.1488 -0.8926
 1056TIP3    H224584   0.727   0.153   5.833 -0.3445 -0.0048 -0.5534
 1057TIP3   OH224585   1.709   5.303  15.347 -0.3211 -0.1944 -0.1428
 1057TIP3    H124586   1.701   5.381  15.293  0.5420  0.2278  0.3219
 1057TIP3    H224587   1.624   5.294  15.389 -0.6417  0.1056 -0.7348
 1058TIP3   OH224588   1.002   2.168  14.038  0.8079 -0.1484  0.7739
 1058TIP3    H124589   0.961   2.238  13.987  0.7590 -1.2147 -0.6632
 1058TIP3    H224590   1.017   2.207  14.124  1.5553  1.9172 -0.2570
 1059TIP3   OH224591   5.002   5.626   6.494  0.0337  0.1434 -0.2742
 1059TIP3    H124592   5.068   5.679   6.449 -1.6381  0.1386 -2.8914
 1059TIP3    H224593   5.014   5.537   6.460 -1.3043  0.1543 -0.8484
 1060TIP3   OH224594   6.051   0.436   1.126  0.6755 -0.1380 -0.7934
 1060TIP3    H124595   6.129   0.382   1.142 -0.0016 -0.7269  0.6279
 1060TIP3    H224596   5.978   0.382   1.155 -0.2570  0.4969 -1.9155
 1061TIP3   OH224597   1.351   3.135   2.935  0.2398  0.3091 -0.3424
 1061TIP3    H124598   1.409   3.063   2.909 -0.0924 -0.2020  0.3033
 1061TIP3    H224599   1.272   3.121   2.882 -0.1470 -0.2969  0.3763
 1062TIP3   OH224600   3.091   3.524  16.391 -0.9278  0.4583  0.1574
 1062TIP3    H124601   3.121   3.608  16.425  0.1967 -0.1103  0.6013
 1062TIP3    H224602   3.091   3.466  16.467 -0.5399 -0.2524 -0.3807
 1063TIP3   OH224603   5.924   0.191  13.743 -0.6456  0.7174 -0.2863
 1063TIP3    H124604   5.840   0.216  13.780 -0.9607  1.4162 -1.4263
 1063TIP3    H224605   5.941   0.257  13.675  0.2867 -0.0564 -0.8297
 1064TIP3   OH224606   0.308   1.621  16.564  0.0336  0.2894  0.1801
 1064TIP3    H124607   0.315   1.527  16.582  2.4829  0.6437  1.2183
 1064TIP3    H224608   0.340   1.631  16.475 -1.7052 -0.0370 -0.4992
 1065TIP3   OH224609   4.204   2.389   4.425  0.3563 -0.2871  0.5471
 1065TIP3    H124610   4.120   2.434   4.438 -0.0766 -1.7478  3.0494
 1065TIP3    H224611   4.268   2.446   4.466  0.7958  1.2964 -2.1785
 1066TIP3   OH224612   6.048   1.214   6.754 -0.1665 -0.5304 -0.0027
 1066TIP3    H124613   6.069   1.304   6.778  0.1605 -0.4299 -0.6675
 1066TIP3    H224614   6.126   1.164   6.779  0.0054 -0.4914 -0.4572
 1067TIP3   OH224615   2.165   4.064   4.043 -0.2031  0.2109  0.4980
 1067TIP3    H124616   2.172   4.084   4.136 -1.5129  0.8519  0.4769
 1067TIP3    H224617   2.248   4.092   4.005  1.1216 -1.8355  1.7747
 1068TIP3   OH224618   3.558   3.551   6.978  0.7533  0.7752 -0.4677
 1068TIP3    H124619   3.546   3.598   6.895 -1.4510  1.4919  0.2343
 1068TIP3    H224620   3.574   3.461   6.953 -2.4150  0.4918 -1.6346
 1069TIP3   OH224621   5.543   3.283  14.407  0.0504 -0.5473 -0.0114
 1069TIP3    H124622   5.469   3.262  14.349  0.3704 -0.0254 -0.6191
 1069TIP3    H224623   5.611   3.220  14.384 -0.2825 -1.1732  0.7064
 1070TIP3   OH224624   4.437   3.192  16.013  0.9099  0.3519 -0.0408
 1070TIP3    H124625   4.456   3.241  16.093 -0.4594  0.4657  0.2360
 1070TIP3    H224626   4.518   3.196  15.962  0.9372  2.5698  0.1389
 1071TIP3   OH224627   4.310   3.742   5.480  0.1194  0.0587 -0.9414
 1071TIP3    H124628   4.278   3.708   5.397  0.9551 -1.3089 -0.7219
 1071TIP3    H224629   4.305   3.668   5.540  0.7550  0.6748 -0.1152
 1072TIP3   OH224630   6.337   3.702   2.873  0.4821 -0.3407  0.2350
 1072TIP3    H124631   6.315   3.758   2.948  1.5814  1.4109 -0.7029
 1072TIP3    H224632   6.432   3.713   2.863  0.2320 -0.0283 -1.8310
 1073TIP3   OH224633   0.553   6.313   3.998  0.1769  0.0138  0.0875
 1073TIP3    H124634   0.525   6.402   3.976  0.4001  0.3604  1.1599
 1073TIP3    H224635   0.588   6.321   4.087 -2.6455 -1.7241  1.4165
 1074TIP3   OH224636   2.769   0.488   1.852 -0.0400 -0.0464  0.7391
 1074TIP3    H124637   2.832   0.473   1.782 -0.8637  2.5648 -0.6243
 1074TIP3    H224638   2.707   0.415   1.843  0.2880 -0.1714 -0.7539
 1075TIP3   OH224639   4.007   2.653   1.338  0.0728 -0.0587 -0.2978
 1075TIP3    H124640   4.006   2.560   1.357  3.1766 -0.1534 -0.3191
 1075TIP3    H224641   4.013   2.658   1.242  4.3699 -0.0271 -0.1470
 1076TIP3   OH224642   6.354   4.885  16.025  0.1562 -0.1224 -0.4375
 1076TIP3    H124643   6.274   4.920  16.065 -0.1152 -0.3625 -0.7686
 1076TIP3    H224644   6.415   4.875  16.098 -0.2755 -0.3791 -0.1128
 1077TIP3   OH224645   4.022   5.514   6.293 -0.0883  0.3075 -0.3862
 1077TIP3    H124646   3.936   5.530   6.332 -0.3129 -0.0218 -0.7428
 1077TIP3    H224647   4.031   5.584   6.228 -0.5461 -0.2777 -1.0900
 1078TIP3   OH224648   2.381   2.194  15.561 -0.2032  0.8319 -0.0070
 1078TIP3    H124649   2.428   2.183  15.644 -2.0180 -1.0951  0.7898
 1078TIP3    H224650   2.330   2.274  15.573 -2.0780 -0.5517  1.5671
 1079TIP3   OH224651   1.505   4.443  12.005  0.0513 -0.1237  0.0358
 1079TIP3    H124652   1.489   4.444  11.910  3.7123  2.2097 -0.6331
 1079TIP3    H224653   1.449   4.513  12.039  0.9671  1.0400 -0.8260
 1080TIP3   OH224654   6.247   5.777   0.188  0.0992 -0.3726 -0.1286
 1080TIP3    H124655   6.315   5.820   0.240 -0.7134  0.3334  0.3747
 1080TIP3    H224656   6.176   5.762   0.250 -0.3155 -0.8369 -0.7112
 1081TIP3   OH224657   2.141   2.738  10.437  0.1173 -0.3840  0.2320
 1081TIP3    H124658   2.229   2.719  10.472  1.1124  0.6867 -1.6462
 1081TIP3    H224659   2.124   2.828  10.463 -1.0276 -1.0172  1.7617
 1082TIP3   OH224660   0.600   3.611   5.450  0.2472 -0.0346 -0.0592
 1082TIP3    H124661   0.603   3.559   5.530  1.8787 -2.1466 -1.4393
 1082TIP3    H224662   0.506   3.625   5.434 -0.0727  2.2837  3.3127
 1083TIP3   OH224663   2.130   2.393  14.708  0.0530  0.2066 -0.7197
 1083TIP3    H124664   2.211   2.380  14.658  0.3960 -0.2809 -0.0437
 1083TIP3    H224665   2.152   2.365  14.797 -0.2966  1.8851 -0.0852
 1084TIP3   OH224666   0.445   6.087   0.283  0.1565 -0.1155 -0.3054
 1084TIP3    H124667   0.520   6.026   0.282  0.8588  0.7438 -1.0057
 1084TIP3    H224668   0.458   6.139   0.362  1.3477  1.2862 -1.3861
 1085TIP3   OH224669   6.435   1.714  17.026 -0.8154  0.8491 -0.4732
 1085TIP3    H124670   6.454   1.808  17.027 -2.1997  1.1505 -0.1401
 1085TIP3    H224671   6.509   1.674  16.980 -0.5952  2.1909 -1.3134
 1086TIP3   OH224672   4.569   5.878  12.517 -0.1640  0.0386  0.2738
 1086TIP3    H124673   4.583   5.971  12.537  2.8116 -0.4404  0.6290
 1086TIP3    H224674   4.558   5.876  12.422 -0.2653  0.7588  0.2673
 1087TIP3   OH224675   6.558   2.990   5.869  0.6448 -0.3662  0.2161
 1087TIP3    H124676   6.464   2.985   5.888  0.7834  1.0443  1.3489
 1087TIP3    H224677   6.575   2.914   5.814 -1.5041  0.2334 -1.3810
 1088TIP3   OH224678   3.385   3.354   5.007 -0.4852  0.9118 -0.0314
 1088TIP3    H124679   3.323   3.415   5.049  1.2209  2.1624  0.7184
 1088TIP3    H224680   3.434   3.316   5.080  0.5586  0.9478 -0.7100
 1089TIP3   OH224681   1.270   5.157   4.148  0.0575 -0.6714  0.0549
 1089TIP3    H124682   1.309   5.079   4.186  0.1463 -0.8596 -0.4182
 1089TIP3    H224683   1.230   5.203   4.222  1.4063 -0.3299  0.5881
 1090TIP3   OH224684   1.937   0.737   5.731 -0.1242 -0.1130 -0.4169
 1090TIP3    H124685   1.964   0.654   5.772  0.5407  0.4050  0.2147
 1090TIP3    H224686   1.845   0.747   5.756 -0.8473 -1.7343 -2.3126
 1091TIP3   OH224687   2.605   0.319  15.773 -0.4076  0.0089 -0.3461
 1091TIP3    H124688   2.537   0.281  15.717 -0.2625 -1.5599  0.5187
 1091TIP3    H224689   2.683   0.322  15.718 -1.2999  2.3527 -1.5250
 1092TIP3   OH224690   5.295   3.075  14.596 -0.6583  0.1992 -0.0642
 1092TIP3    H124691   5.298   3.129  14.676 -0.2976  3.3554 -2.1251
 1092TIP3    H224692   5.218   3.019  14.608  0.3778 -0.6558  3.2279
 1093TIP3   OH224693   1.994   3.739  13.928 -0.6663 -0.2675 -0.2264
 1093TIP3    H124694   1.987   3.781  13.842 -0.4933  1.6197  0.6727
 1093TIP3    H224695   2.088   3.734  13.945 -0.6107 -2.3276 -0.9269
 1094TIP3   OH224696   0.562   3.033  14.460 -0.3256  0.7000 -0.1029
 1094TIP3    H124697   0.494   3.062  14.399 -0.9619  1.0791  0.7664
 1094TIP3    H224698   0.514   2.990  14.531  0.3464  0.8451  0.4499
 1095TIP3   OH224699   4.998   2.868  15.157 -0.0213  0.3239 -0.1373
 1095TIP3    H124700   5.088   2.890  15.183 -0.3753 -0.3233  1.6706
 1095TIP3    H224701   4.988   2.910  15.071  2.3177 -0.3555 -0.8067
 1096TIP3   OH224702   0.340   4.056  12.297  0.2984 -0.3302  0.1554
 1096TIP3    H124703   0.289   3.984  12.261  0.6091 -1.0281  1.0984
 1096TIP3    H224704   0.313   4.132  12.246 -0.6906 -0.9447 -0.2558
 1097TIP3   OH224705   3.234   3.760  10.831 -0.1433 -0.0753 -0.6186
 1097TIP3    H124706   3.174   3.754  10.757 -0.0322  1.2217 -0.8372
 1097TIP3    H224707   3.320   3.739  10.795  0.4453  3.7387 -1.6406
 1098TIP3   OH224708   3.329   5.390   0.554  0.4902 -0.0978 -0.0146
 1098TIP3    H124709   3.257   5.432   0.601  0.3740 -0.1592 -0.1407
 1098TIP3    H224710   3.289   5.354   0.475  0.9155  1.0774 -0.7698
 1099TIP3   OH224711   1.020   2.397  13.466  0.1134  0.1594  0.5186
 1099TIP3    H124712   1.078   2.325  13.441  0.1397  1.1795 -2.6601
 1099TIP3    H224713   0.932   2.362  13.457  0.1811 -0.4116  2.0839
 1100TIP3   OH224714   5.708   4.203   5.681  0.1346  0.2217  0.7465
 1100TIP3    H124715   5.775   4.263   5.648  0.8247  0.2499  2.1927
 1100TIP3    H224716   5.680   4.242   5.764 -0.6869 -0.5308  0.8283
 1101TIP3   OH224717   3.990   3.309  14.235  0.7292 -0.2456 -0.6525
 1101TIP3    H124718   3.900   3.337  14.220  0.6824 -0.2474 -0.3853
 1101TIP3    H224719   3.983   3.233  14.292  0.9860  1.0457  1.1630
 1102TIP3   OH224720   6.749   0.880  14.170 -0.0534  0.1997  0.3443
 1102TIP3    H124721   6.772   0.898  14.261 -1.0953 -0.2833  0.7169
 1102TIP3    H224722   6.655   0.861  14.173  0.3306 -1.9919 -0.4889
 1103TIP3   OH224723   6.674   1.032  12.258  0.5321 -0.4497  0.1763
 1103TIP3    H124724   6.678   1.088  12.180 -0.8286 -2.2757 -1.2236
 1103TIP3    H224725   6.695   1.092  12.331 -1.5867  2.0716 -1.1828
 1104TIP3   OH224726   2.187   6.316   3.202  0.0378  0.6323 -0.1963
 1104TIP3    H124727   2.154   6.360   3.280  3.8670  1.2888  1.1378
 1104TIP3    H224728   2.208   6.228   3.231  0.0123  0.3955 -0.8929
 1105TIP3   OH224729   4.538   5.204  12.391 -0.0287  0.4012 -0.0796
 1105TIP3    H124730   4.605   5.160  12.443 -1.0683 -1.7714 -0.5234
 1105TIP3    H224731   4.472   5.231  12.455  0.1329  0.4024  0.0870
 1106TIP3   OH224732   1.892   2.364   4.470  0.0540  0.2597 -0.0600
 1106TIP3    H124733   1.837   2.417   4.527 -0.3187  0.0897 -0.2577
 1106TIP3    H224734   1.898   2.414   4.389 -0.2422  0.0379 -0.2232
 1107TIP3   OH224735   2.385   4.637   6.780  0.2658  0.0311 -0.3940
 1107TIP3    H124736   2.389   4.551   6.738  1.6528 -0.2710  0.3413
 1107TIP3    H224737   2.295   4.644   6.811 -0.5474 -0.1284 -2.5862
 1108TIP3   OH224738   5.566   3.254  14.694  0.2868 -0.1715  0.0437
 1108TIP3    H124739   5.624   3.328  14.710  0.1061 -0.3106  1.4589
 1108TIP3    H224740   5.558   3.248  14.599  1.4879  0.6969 -0.1064
 1109TIP3   OH224741   0.147   1.859   4.491  0.6909  0.2301 -0.3448
 1109TIP3    H124742   0.226   1.910   4.512  0.4025  0.6390 -0.2283
 1109TIP3    H224743   0.076   1.912   4.527  0.4697 -0.7817  0.7175
 1110TIP3   OH224744   1.173   1.941  15.662 -0.0769  0.0003  0.0991
 1110TIP3    H124745   1.119   1.868  15.630  1.4704 -1.2102  0.2203
 1110TIP3    H224746   1.185   1.924  15.755  2.4167 -1.0055 -0.3602
 1111TIP3   OH224747   3.622   2.379   2.247 -0.1873 -0.3080  0.4684
 1111TIP3    H124748   3.627   2.474   2.235 -0.0745 -0.5302 -1.4006
 1111TIP3    H224749   3.711   2.348   2.227  0.0468 -0.7101  2.0906
 1112TIP3   OH224750   6.760   4.800   5.381  0.1642 -0.6274  0.6215
 1112TIP3    H124751   6.852   4.821   5.398  0.0632  1.6313 -1.3212
 1112TIP3    H224752   6.761   4.753   5.297 -0.4879 -0.2202  0.3778
 1113TIP3   OH224753   2.493   0.778  17.160 -0.0092 -0.0402 -0.2429
 1113TIP3    H124754   2.490   0.851  17.099  0.2076  0.3168  0.1672
 1113TIP3    H224755   2.447   0.810  17.238  0.2726 -0.2553  0.0161
 1114TIP3   OH224756   2.177   0.040   5.629 -0.9211  1.0610 -0.2058
 1114TIP3    H124757   2.257   0.031   5.577 -0.9700  0.2018 -0.1327
 1114TIP3    H224758   2.198  -0.002   5.712 -1.7847 -0.0646 -0.5487
 1115TIP3   OH224759   3.796   2.622  16.358  0.6758 -0.1095 -0.0711
 1115TIP3    H124760   3.797   2.533  16.325 -0.7263 -0.9700  2.1209
 1115TIP3    H224761   3.830   2.615  16.447 -0.4400  1.3563  0.4981
 1116TIP3   OH224762   1.280   6.351   4.230 -0.8200 -0.0437 -0.5776
 1116TIP3    H124763   1.365   6.332   4.189  0.2407  1.0402  1.0694
 1116TIP3    H224764   1.265   6.277   4.289 -0.7085  0.0901 -0.3821
 1117TIP3   OH224765   3.331   0.923   0.850  0.2371  0.3123  0.1037
 1117TIP3    H124766   3.235   0.933   0.852  0.0642 -1.1888  0.0056
 1117TIP3    H224767   3.364   1.010   0.873 -1.1371  1.1291 -0.8773
 1118TIP3   OH224768   4.334   4.503  16.719 -0.0949  0.4805  0.9348
 1118TIP3    H124769   4.399   4.449  16.674 -1.3961 -2.1237  2.1056
 1118TIP3    H224770   4.297   4.557  16.649 -0.0029 -1.4015 -0.6235
 1119TIP3   OH224771   1.158   0.742  13.070 -0.2027 -0.5014 -0.2395
 1119TIP3    H124772   1.244   0.770  13.038  0.1241 -1.2948 -0.0527
 1119TIP3    H224773   1.162   0.646  13.071 -0.8130 -0.5209  0.5428
 1120TIP3   OH224774   1.457   6.330  12.713  0.1097  0.4453  0.0332
 1120TIP3    H124775   1.543   6.293  12.734  0.4003  0.4476 -1.1307
 1120TIP3    H224776   1.395   6.272  12.758  0.6886 -0.0114  0.2513
 1121TIP3   OH224777   3.756   3.190  13.900 -0.3299 -0.1973  0.8315
 1121TIP3    H124778   3.803   3.126  13.954  0.7262  2.2810  2.9914
 1121TIP3    H224779   3.665   3.181  13.926 -0.1501 -0.6151  1.3391
 1122TIP3   OH224780   6.118   5.679  11.544  0.1579  0.0152 -0.3371
 1122TIP3    H124781   6.106   5.771  11.566  0.2865  0.1018 -0.6298
 1122TIP3    H224782   6.148   5.638  11.626 -0.0238  0.2055 -0.1740
 1123TIP3   OH224783   2.913   1.192   6.232 -0.2551 -0.0476  0.2778
 1123TIP3    H124784   2.938   1.283   6.220 -0.5869  0.2701  1.8184
 1123TIP3    H224785   2.855   1.193   6.309  0.5564 -1.6851  0.9495
 1124TIP3   OH224786   1.663   2.813   6.438 -0.1455  0.0429 -0.0115
 1124TIP3    H124787   1.569   2.807   6.422  0.1183  0.2310 -1.6647
 1124TIP3    H224788   1.682   2.907   6.438  0.2357 -0.0258 -0.8896
 1125TIP3   OH224789   0.669   4.607   0.213 -0.0376 -0.8758 -0.2952
 1125TIP3    H124790   0.655   4.601   0.118  0.2228 -0.1102 -0.3817
 1125TIP3    H224791   0.580   4.613   0.249 -0.1127 -0.4343 -0.5456
 1126TIP3   OH224792   2.795   3.024   0.135 -0.1525  0.1852 -0.4367
 1126TIP3    H124793   2.817   2.967   0.209  0.9318  0.0451 -0.8579
 1126TIP3    H224794   2.700   3.031   0.138 -0.0819  0.6778  1.3404
 1127TIP3   OH224795   1.123   4.634  13.404 -0.4688 -0.0121  0.4127
 1127TIP3    H124796   1.033   4.612  13.379 -0.3297  1.0112 -1.0291
 1127TIP3    H224797   1.163   4.669  13.324  1.9180 -2.5142  0.3923
 1128TIP3   OH224798   4.412   2.392  15.228 -0.2735 -0.2930  0.4516
 1128TIP3    H124799   4.476   2.460  15.207  0.3234 -0.5483  1.4416
 1128TIP3    H224800   4.327   2.436  15.222  0.1106  0.5481  1.1188
 1129TIP3   OH224801   6.170   0.390   6.042 -0.4879  0.1196  0.2952
 1129TIP3    H124802   6.125   0.306   6.042 -0.1227 -0.0777  0.6814
 1129TIP3    H224803   6.169   0.418   6.134  3.6734 -1.7684  1.0498
 1130TIP3   OH224804   6.247   6.595  13.596  0.7195  0.1864  0.7253
 1130TIP3    H124805   6.265   6.526  13.659 -0.3544  0.3073  1.1665
 1130TIP3    H224806   6.182   6.651  13.638 -1.2967 -0.6696 -1.1261
 1131TIP3   OH224807   0.085   1.337  16.830 -0.5385 -0.2677 -0.4544
 1131TIP3    H124808   0.109   1.362  16.741  2.5585  0.8776  0.6529
 1131TIP3    H224809   0.077   1.420  16.877  0.3879 -0.9694  0.9684
 1132TIP3   OH224810   3.023   2.889   3.826  0.0246 -0.1894 -0.7390
 1132TIP3    H124811   3.106   2.893   3.874  1.0841 -1.4216 -2.4056
 1132TIP3    H224812   2.974   2.965   3.857  1.3193 -0.0712  1.1085
 1133TIP3   OH224813   2.987   2.650   0.553 -0.5270 -0.1598 -0.1638
 1133TIP3    H124814   3.058   2.607   0.601 -1.1349 -1.4128 -0.3721
 1133TIP3    H224815   2.921   2.668   0.619 -0.6029 -0.2661 -0.2097
 1134TIP3   OH224816   0.094   4.579  12.661  0.4572 -0.1123 -0.3119
 1134TIP3    H124817   0.104   4.549  12.751  0.2987  0.9427  0.0656
 1134TIP3    H224818   0.072   4.500  12.611 -1.0855 -0.4238  0.8305
 1135TIP3   OH224819   3.943   0.499  15.151 -0.1240  0.3518  0.2667
 1135TIP3    H124820   3.996   0.554  15.209  1.3620 -0.0823 -0.6497
 1135TIP3    H224821   3.990   0.501  15.067 -0.6469 -1.4308 -0.0798
 1136TIP3   OH224822   3.042   3.327  11.211  0.4657 -0.0787  0.2766
 1136TIP3    H124823   2.986   3.394  11.172 -1.2798 -1.1087  0.9396
 1136TIP3    H224824   3.093   3.292  11.138 -1.2214 -0.5120 -0.7343
 1137TIP3   OH224825   4.337   4.491   3.677 -0.3484 -0.5085  0.1296
 1137TIP3    H124826   4.306   4.579   3.697  0.6733  0.0817 -0.8581
 1137TIP3    H224827   4.383   4.463   3.757 -1.2611 -0.4324  0.6939
 1138TIP3   OH224828   4.168   0.574   5.805  0.2127 -0.0151 -0.2791
 1138TIP3    H124829   4.098   0.559   5.741  2.2693  0.4500 -2.7029
 1138TIP3    H224830   4.245   0.530   5.768  1.0974 -1.0705  2.6444
 1139TIP3   OH224831   0.001   5.441   0.943 -0.4551  0.5764  0.5421
 1139TIP3    H124832   0.052   5.451   0.862  1.1187 -3.6120  0.9227
 1139TIP3    H224833   0.062   5.466   1.012  0.0134 -1.1918  0.7784
 1140TIP3   OH224834   5.229   3.140   4.076  0.2493 -0.5127 -0.9813
 1140TIP3    H124835   5.134   3.135   4.068  0.1283  0.2220 -0.0586
 1140TIP3    H224836   5.247   3.111   4.165  0.9032 -0.7197 -1.1739
 1141TIP3   OH224837   2.768   3.269   0.869 -0.2675  0.3766  0.1758
 1141TIP3    H124838   2.762   3.182   0.830  1.5456  1.5796 -2.9904
 1141TIP3    H224839   2.710   3.323   0.816 -2.2830  0.9208  2.8395
 1142TIP3   OH224840   5.211   3.506   3.237 -0.2097  0.2374  0.0304
 1142TIP3    H124841   5.185   3.450   3.164 -1.5426  0.2179  0.5030
 1142TIP3    H224842   5.204   3.449   3.314  0.1342  0.5569  0.2944
 1143TIP3   OH224843   2.432   1.519   0.491 -0.4391  0.2093 -0.4687
 1143TIP3    H124844   2.386   1.465   0.556 -2.1559  0.8900 -1.0694
 1143TIP3    H224845   2.448   1.602   0.535 -0.6851  0.3137 -0.5723
 1144TIP3   OH224846   2.576   5.228  12.941 -0.0641 -0.2871  0.1853
 1144TIP3    H124847   2.644   5.178  12.896 -0.3891 -1.1593  0.6474
 1144TIP3    H224848   2.623   5.300  12.982  0.1934  0.7446 -1.8448
 1145TIP3   OH224849   3.725   0.231   1.588 -0.1709 -0.5381 -0.0158
 1145TIP3    H124850   3.814   0.242   1.553 -1.4616  1.1509 -2.8826
 1145TIP3    H224851   3.715   0.304   1.649  0.1385 -0.3010 -0.2436
 1146TIP3   OH224852   3.952   1.395  15.099  0.1347  0.4522 -0.1562
 1146TIP3    H124853   4.006   1.319  15.122  0.5896  1.3340  1.8069
 1146TIP3    H224854   3.891   1.404  15.172 -1.6623  0.4124 -1.6255
 1147TIP3   OH224855   1.448   6.324  10.460 -0.1775  0.0111  0.1686
 1147TIP3    H124856   1.391   6.283  10.525  1.6310 -1.1573  1.0587
 1147TIP3    H224857   1.504   6.252  10.430 -0.2101  0.8040 -1.8357
 1148TIP3   OH224858   3.727   5.397  16.347  0.4400  0.1189 -0.3751
 1148TIP3    H124859   3.638   5.388  16.310  0.5033 -1.0852 -0.2533
 1148TIP3    H224860   3.714   5.443  16.430 -0.0469  0.1702 -0.4754
 1149TIP3   OH224861   6.736   2.872  13.760 -0.9816 -0.0101 -0.2619
 1149TIP3    H124862   6.820   2.902  13.795  0.1133 -1.4922 -1.5504
 1149TIP3    H224863   6.678   2.871  13.836 -0.0115  1.5507  0.5491
 1150TIP3   OH224864   3.486   4.256  11.545  0.5199  0.3939  0.3703
 1150TIP3    H124865   3.420   4.258  11.614 -0.3651  1.0675 -0.4867
 1150TIP3    H224866   3.569   4.266  11.592  0.1759 -2.2954  1.6197
 1151TIP3   OH224867   2.727   1.555  11.294  0.4430 -0.7657  0.6696
 1151TIP3    H124868   2.648   1.533  11.245  0.8096 -1.8687  0.5747
 1151TIP3    H224869   2.779   1.607  11.233 -0.0927 -0.2332  0.6529
 1152TIP3   OH224870   1.148   3.466  11.514 -0.2458 -0.1847  0.4123
 1152TIP3    H124871   1.229   3.496  11.555 -0.3521  2.9707 -1.5334
 1152TIP3    H224872   1.089   3.446  11.587  1.0564  1.0094  1.8115
 1153TIP3   OH224873   3.518   3.800  12.239  0.5498 -0.0905 -0.0545
 1153TIP3    H124874   3.586   3.840  12.292  0.2035  0.2934  0.0999
 1153TIP3    H224875   3.542   3.821  12.149 -0.4555  1.7718  0.0938
 1154TIP3   OH224876   1.280   5.019  15.573 -0.2221 -0.1376 -0.0458
 1154TIP3    H124877   1.241   5.058  15.651 -0.6776 -0.2487 -0.2155
 1154TIP3    H224878   1.235   5.062  15.500 -0.3174 -0.5623 -0.2388
 1155TIP3   OH224879   6.529   4.740  14.124  1.0415 -0.4082 -0.7810
 1155TIP3    H124880   6.578   4.817  14.092 -0.2413  0.1209 -1.5084
 1155TIP3    H224881   6.477   4.774  14.197  0.1595 -0.4880 -1.3711
 1156TIP3   OH224882   3.617   1.606   4.609 -0.2588  0.4391  0.0635
 1156TIP3    H124883   3.537   1.601   4.557 -1.0287  0.9140  1.1759
 1156TIP3    H224884   3.683   1.641   4.549 -1.1798  1.2016 -0.5246
 1157TIP3   OH224885   4.828   2.483   6.146  0.0103 -0.6035  0.4675
 1157TIP3    H124886   4.791   2.571   6.150  3.2482  0.8577  0.6543
 1157TIP3    H224887   4.776   2.431   6.207 -1.2773  1.4827  1.1912
 1158TIP3   OH224888   3.717   2.670   2.183 -0.3021 -0.3231 -0.0347
 1158TIP3    H124889   3.624   2.688   2.169 -0.4996  0.7348  2.3827
 1158TIP3    H224890   3.761   2.751   2.159 -0.1932 -0.1709  0.6669
 1159TIP3   OH224891   0.101   2.521   2.142 -0.3948 -0.4598 -0.0333
 1159TIP3    H124892   0.155   2.584   2.189  2.0702 -0.4815 -2.7196
 1159TIP3    H224893   0.082   2.453   2.207  2.1255 -0.0289  1.2136
 1160TIP3   OH224894   2.827   6.420   2.659 -1.3086 -0.1160 -0.4232
 1160TIP3    H124895   2.890   6.369   2.609 -1.9050 -0.2048 -1.1044
 1160TIP3    H224896   2.809   6.496   2.604 -1.4243  0.1513 -0.0143
 1161TIP3   OH224897   0.714   6.774   2.011 -0.4709 -0.1800  0.0948
 1161TIP3    H124898   0.722   6.691   2.058 -1.6662 -0.8987 -0.9413
 1161TIP3    H224899   0.757   6.759   1.927 -2.4079 -0.4143 -0.8873
 1162TIP3   OH224900   0.956   5.004   2.657 -0.3608  0.1110 -0.3396
 1162TIP3    H124901   0.902   5.034   2.584 -2.4077 -0.9952  0.6718
 1162TIP3    H224902   1.032   5.063   2.657 -2.9916  3.6616  0.0492
 1163TIP3   OH224903   0.865   4.358   6.169 -0.3136  0.2286 -0.2575
 1163TIP3    H124904   0.904   4.372   6.255 -0.4883 -0.0923 -0.1208
 1163TIP3    H224905   0.842   4.265   6.169 -1.2739  0.4614 -0.2491
 1164TIP3   OH224906   2.218   1.121   1.571  0.3158  0.4618  0.5196
 1164TIP3    H124907   2.129   1.143   1.544 -0.0008 -2.4054 -0.9374
 1164TIP3    H224908   2.209   1.088   1.660  0.0125  0.7861  0.6084
 1165TIP3   OH224909   6.164   1.069   2.939  0.0889  0.4191 -0.0730
 1165TIP3    H124910   6.115   0.987   2.934  1.8852 -0.5923 -1.5117
 1165TIP3    H224911   6.156   1.106   2.851  2.4304 -0.0846 -0.5204
 1166TIP3   OH224912   2.916   1.666  11.077 -0.2722  0.0560  0.1599
 1166TIP3    H124913   2.977   1.715  11.022 -2.3176  2.1551 -0.2793
 1166TIP3    H224914   2.861   1.618  11.015 -1.9741  1.7017  0.3615
 1167TIP3   OH224915   3.857   3.184  15.915 -0.1795  0.1141 -0.5281
 1167TIP3    H124916   3.900   3.209  15.996 -1.3306 -0.5086  0.2855
 1167TIP3    H224917   3.870   3.089  15.909 -2.0465 -0.2053  0.1119
 1168TIP3   OH224918   1.160   0.283   2.328 -0.2185  0.1652  0.7456
 1168TIP3    H124919   1.080   0.231   2.331 -0.1150 -0.1306 -1.1267
 1168TIP3    H224920   1.214   0.242   2.261  1.3440  0.6218  1.6815
 1169TIP3   OH224921   3.331   1.006   5.590 -0.4303  0.0557  0.0871
 1169TIP3    H124922   3.301   1.015   5.681  0.6611  1.7879  0.3028
 1169TIP3    H224923   3.369   0.918   5.586 -1.5073 -0.4655  0.9936
 1170TIP3   OH224924   6.528   5.025   5.593  0.4803 -0.0870 -0.4996
 1170TIP3    H124925   6.461   4.974   5.546 -1.6140  1.5323  0.6212
 1170TIP3    H224926   6.546   5.099   5.535 -1.0400  1.1398  0.5561
 1171TIP3   OH224927   6.538   1.020  16.152 -0.1381  0.2928  0.4121
 1171TIP3    H124928   6.589   1.019  16.233  1.1327 -1.1373 -0.3899
 1171TIP3    H224929   6.537   0.929  16.122 -0.6240  0.7935 -1.1729
 1172TIP3   OH224930   4.539   4.345  16.623 -0.4975 -0.1792  0.3371
 1172TIP3    H124931   4.595   4.399  16.567  0.4597 -1.4177  0.0675
 1172TIP3    H224932   4.595   4.272  16.648 -1.1275  0.0059  2.3645
 1173TIP3   OH224933   3.951   4.744  16.212  0.0186  0.2461  0.1830
 1173TIP3    H124934   3.883   4.806  16.188  0.7960  0.3474 -1.8067
 1173TIP3    H224935   3.910   4.658  16.200  0.6201  0.2758 -2.2665
 1174TIP3   OH224936   4.753   0.977  14.883  0.3082  0.2036  0.2068
 1174TIP3    H124937   4.742   0.900  14.828  0.9157  1.3038 -1.5062
 1174TIP3    H224938   4.702   1.045  14.838 -0.0550  0.8614  1.5855
 1175TIP3   OH224939   1.828   5.965  16.821 -0.2869 -0.5749  0.0216
 1175TIP3    H124940   1.906   5.942  16.870  0.5426  0.3998 -0.8140
 1175TIP3    H224941   1.849   5.942  16.730 -1.2989 -1.1187 -0.0903
 1176TIP3   OH224942   3.177   1.302   3.552  0.7031  0.4174  0.0919
 1176TIP3    H124943   3.190   1.213   3.584  2.0548  0.6402  0.1759
 1176TIP3    H224944   3.124   1.291   3.472 -0.1957 -0.3499  0.7860
 1177TIP3   OH224945   3.578   1.726   0.435 -0.2811 -0.3348 -0.9622
 1177TIP3    H124946   3.540   1.789   0.373  0.4416  0.7584 -0.3121
 1177TIP3    H224947   3.645   1.680   0.384 -0.0015  0.2397 -1.1201
 1178TIP3   OH224948   4.446   4.660  15.444 -0.1350 -0.3814  0.1392
 1178TIP3    H124949   4.520   4.709  15.481  1.1355 -2.0423 -0.1468
 1178TIP3    H224950   4.449   4.679  15.350 -0.4078 -0.0378  0.1953
 1179TIP3   OH224951   0.199   5.268  10.256 -0.2463  0.7718 -0.0027
 1179TIP3    H124952   0.140   5.193  10.253 -0.3040  0.8301 -0.3730
 1179TIP3    H224953   0.198   5.296  10.348 -1.2240  1.1064 -0.0995
 1180TIP3   OH224954   3.511   6.195   0.942 -0.1979  0.2732  0.5326
 1180TIP3    H124955   3.568   6.145   1.001  1.0615  2.2592  1.0485
 1180TIP3    H224956   3.487   6.273   0.992 -0.5188  1.1439 -0.9403
 1181TIP3   OH224957   5.764   4.081   0.862  0.0780  0.0438 -0.3671
 1181TIP3    H124958   5.684   4.123   0.829  0.8332  0.5274 -1.6260
 1181TIP3    H224959   5.790   4.136   0.936  0.1019  0.8161 -0.9317
 1182TIP3   OH224960   3.175   0.689   3.983 -0.3866 -0.5791  0.6521
 1182TIP3    H124961   3.115   0.618   4.002  0.9224 -2.2732 -1.2553
 1182TIP3    H224962   3.168   0.702   3.888  3.5183 -2.1016  0.0562
 1183TIP3   OH224963   5.810   5.416   0.395  0.0510  0.2113  0.4065
 1183TIP3    H124964   5.813   5.414   0.299 -3.4818  0.0143  0.2295
 1183TIP3    H224965   5.866   5.343   0.422  1.4401  0.5484 -1.4794
 1184TIP3   OH224966   5.663   5.140  15.401  0.8031  0.1355 -0.4116
 1184TIP3    H124967   5.746   5.175  15.369  1.8094 -0.7679  1.1371
 1184TIP3    H224968   5.634   5.203  15.467  2.3909 -1.6035  2.0534
 1185TIP3   OH224969   2.797   3.288   5.129 -0.4247  0.0747  0.3884
 1185TIP3    H124970   2.853   3.223   5.088 -1.3297  0.1998 -1.0970
 1185TIP3    H224971   2.753   3.332   5.056 -0.1472  2.0679  1.3677
 1186TIP3   OH224972   5.420   5.998  15.081 -0.4273 -0.0102  0.3487
 1186TIP3    H124973   5.409   5.964  14.993 -0.7308  0.3756  0.2344
 1186TIP3    H224974   5.381   6.086  15.078  1.5615  0.8902  0.2739
 1187TIP3   OH224975   2.134   1.620   0.986  0.2600 -0.1759 -0.2544
 1187TIP3    H124976   2.083   1.549   0.947  0.4700 -0.6090  0.2503
 1187TIP3    H224977   2.070   1.670   1.037  0.1078  0.0103 -0.6282
 1188TIP3   OH224978   6.159   0.194  11.254  0.2914 -0.3193 -0.4416
 1188TIP3    H124979   6.145   0.100  11.254 -0.9650 -0.1933 -2.7586
 1188TIP3    H224980   6.199   0.214  11.339 -1.0628 -2.6779  0.7746
 1189TIP3   OH224981   5.484   5.410  14.467 -0.6134  0.0729  0.0712
 1189TIP3    H124982   5.528   5.371  14.391 -0.5966 -0.9563  0.6059
 1189TIP3    H224983   5.442   5.337  14.511 -2.0692  0.9115  0.1068
 1190TIP3   OH224984   0.556   6.190  14.410  0.2092  0.8768  0.0048
 1190TIP3    H124985   0.499   6.114  14.394  0.0353  1.3703 -1.8994
 1190TIP3    H224986   0.504   6.247  14.467 -0.1623  0.1382  0.4128
 1191TIP3   OH224987   5.792   0.987  15.395  0.0621  0.1452  0.0305
 1191TIP3    H124988   5.727   0.954  15.333  0.4040 -1.3759  0.4788
 1191TIP3    H224989   5.750   1.065  15.432 -0.2401  0.9447 -1.9135
 1192TIP3   OH224990   0.867   1.607   4.091  0.0174 -0.4090 -0.0288
 1192TIP3    H124991   0.776   1.625   4.067 -1.0088 -2.1674  2.3724
 1192TIP3    H224992   0.893   1.536   4.033  0.3990  1.1261 -1.7834
 1193TIP3   OH224993   5.557   4.687  12.376 -0.2075  0.4620  0.5864
 1193TIP3    H124994   5.576   4.595  12.355  0.5892  1.0132 -1.2903
 1193TIP3    H224995   5.624   4.711  12.440  0.8636  0.2802 -0.4304
 1194TIP3   OH224996   3.593   0.251   4.166  0.1646  0.1125  0.0372
 1194TIP3    H124997   3.507   0.293   4.153  0.3100  0.8437  1.3414
 1194TIP3    H224998   3.572   0.167   4.206  0.1009  0.6043  1.0360
 1195TIP3   OH224999   3.027   4.282   3.913  0.2064  0.4736  0.3911
 1195TIP3    H125000   2.956   4.268   3.851  1.2007 -1.5038 -0.3473
 1195TIP3    H225001   3.103   4.301   3.859  0.7497  0.2345  1.0552
 1196TIP3   OH225002   6.526   0.335   2.317 -0.1101  0.0492  0.3306
 1196TIP3    H125003   6.549   0.413   2.266 -0.4873  1.1866  1.8625
 1196TIP3    H225004   6.543   0.360   2.407 -0.1773 -1.6836  0.8384
 1197TIP3   OH225005   5.210   1.069  11.911  0.5937  0.1890 -0.1931
 1197TIP3    H125006   5.195   0.996  11.970  0.6654  1.4293  1.3879
 1197TIP3    H225007   5.306   1.079  11.910  0.5386  0.8093  0.2918
 1198TIP3   OH225008   3.625   2.808  11.621 -0.1654  0.0766 -0.0280
 1198TIP3    H125009   3.689   2.874  11.649  1.4125 -0.6986 -1.7346
 1198TIP3    H225010   3.583   2.846  11.544 -0.5640 -0.1454  0.0770
 1199TIP3   OH225011   5.323   3.127   5.649  0.3946  0.1465 -0.4525
 1199TIP3    H125012   5.290   3.134   5.738  0.6083 -0.2627 -0.3392
 1199TIP3    H225013   5.405   3.078   5.657 -1.3027 -2.9055 -1.2869
 1200TIP3   OH225014   5.608   1.994   6.884  0.1043  0.5847 -0.3958
 1200TIP3    H125015   5.537   2.037   6.931  0.2720  1.7916 -1.2496
 1200TIP3    H225016   5.657   2.065   6.842  0.3623 -0.4209 -1.8467
 1201TIP3   OH225017   3.725   2.231   5.801 -0.3749 -0.6308  0.2439
 1201TIP3    H125018   3.741   2.287   5.877 -2.6647 -2.1722  1.9460
 1201TIP3    H225019   3.662   2.279   5.748 -1.5749 -1.1030  1.2046
 1202TIP3   OH225020   6.234   6.002  12.570  0.0508 -0.3652  0.0573
 1202TIP3    H125021   6.256   6.095  12.576  0.0713 -0.4747  2.2465
 1202TIP3    H225022   6.306   5.964  12.521  1.4270  0.3712  1.4337
 1203TIP3   OH225023   6.744   1.452   3.493 -0.1016  0.4794  0.1701
 1203TIP3    H125024   6.799   1.379   3.465  0.1310 -0.1160  2.1467
 1203TIP3    H225025   6.801   1.507   3.546 -0.8344  1.0021  0.4337
 1204TIP3   OH225026   0.738   6.215  14.201 -0.7051  0.4904 -0.0109
 1204TIP3    H125027   0.698   6.181  14.121  0.1032 -1.2939  0.3206
 1204TIP3    H225028   0.669   6.212  14.267 -1.6604  2.8792 -0.8404
 1205TIP3   OH225029   4.657   1.563  15.853  0.2578  0.2798 -0.1843
 1205TIP3    H125030   4.696   1.557  15.765  3.3242 -0.3617  1.1660
 1205TIP3    H225031   4.690   1.646  15.888 -0.8228  0.4494  0.4595
 1206TIP3   OH225032   4.291   5.864  12.401  0.6113  0.5726  0.2858
 1206TIP3    H125033   4.263   5.943  12.447 -0.4956  0.9094 -0.9494
 1206TIP3    H225034   4.302   5.891  12.310  0.8990 -0.5375 -0.0242
 1207TIP3   OH225035   6.081   5.327   5.234 -0.6223  0.0201  0.3449
 1207TIP3    H125036   5.987   5.320   5.215 -0.6308  0.4539  0.2235
 1207TIP3    H225037   6.113   5.236   5.231 -0.8519 -0.0364 -0.5650
 1208TIP3   OH225038   0.818   1.752  11.985 -0.3526 -0.7505 -0.2819
 1208TIP3    H125039   0.791   1.664  11.960 -2.4790 -0.8216  2.0740
 1208TIP3    H225040   0.757   1.811  11.940  0.4721 -0.5104 -1.1018
 1209TIP3   OH225041   4.727   0.581  11.523 -0.2378  0.6877  0.7426
 1209TIP3    H125042   4.681   0.665  11.523  0.6137  1.1740 -0.6480
 1209TIP3    H225043   4.775   0.579  11.606 -0.1849  1.6208  0.7399
 1210TIP3   OH225044   4.321   4.650  11.206  0.3169  0.2388 -0.8120
 1210TIP3    H125045   4.341   4.636  11.113  0.0193 -1.2994 -0.6604
 1210TIP3    H225046   4.241   4.600  11.221  1.3882 -1.0752  0.6863
 1211TIP3   OH225047   2.050   5.151  15.988  0.4449  0.0895 -0.3766
 1211TIP3    H125048   2.130   5.110  16.022  0.7326  0.8103 -0.1708
 1211TIP3    H225049   1.999   5.079  15.953  0.9031 -0.4569  0.0735
 1212TIP3   OH225050   1.397   0.402   6.626 -0.0557  0.2101 -0.4404
 1212TIP3    H125051   1.385   0.309   6.644  0.6264  0.8171  3.6700
 1212TIP3    H225052   1.308   0.434   6.606 -0.3906 -1.1727 -1.2168
 1213TIP3   OH225053   1.479   0.600   1.523 -0.0005  0.1850  0.4754
 1213TIP3    H125054   1.403   0.546   1.545 -2.1347  3.2251  0.8436
 1213TIP3    H225055   1.537   0.591   1.598 -1.2097 -0.0750  1.3932
 1214TIP3   OH225056   3.543   1.120  11.875  0.0216 -0.4336  0.0687
 1214TIP3    H125057   3.573   1.029  11.878  0.5393 -0.2230  2.0363
 1214TIP3    H225058   3.510   1.132  11.786  2.4831 -1.7477 -1.0699
 1215TIP3   OH225059   2.480   6.142   5.403  0.0693  0.1780 -0.1877
 1215TIP3    H125060   2.501   6.115   5.493 -2.3085 -1.3819 -0.0499
 1215TIP3    H225061   2.431   6.223   5.414 -1.1193 -0.5567  0.0072
 1216TIP3   OH225062   1.247   0.345  15.617  0.1768 -0.7713  0.0710
 1216TIP3    H125063   1.284   0.273  15.567 -0.9247 -1.0038 -0.4252
 1216TIP3    H225064   1.162   0.361  15.577  1.0823  1.9061 -0.9027
 1217TIP3   OH225065   5.171   0.837  16.472  0.1778 -0.1086  0.3631
 1217TIP3    H125066   5.136   0.787  16.398 -0.0976 -0.2033  0.5539
 1217TIP3    H225067   5.093   0.861  16.523  0.1212  2.3224 -0.8276
 1218TIP3   OH225068   2.931   6.731   5.103  0.2127  0.4909 -0.9103
 1218TIP3    H125069   2.936   6.662   5.036  0.2681 -1.3496  0.9330
 1218TIP3    H225070   3.017   6.774   5.099  0.3888  0.0855 -1.6696
 1219TIP3   OH225071   2.256   4.561  16.825  0.1069 -0.2148  0.0077
 1219TIP3    H125072   2.268   4.514  16.743 -1.5386 -0.4614 -0.1124
 1219TIP3    H225073   2.321   4.524  16.884  1.7500  0.4324 -1.3794
 1220TIP3   OH225074   2.370   0.389  11.014 -0.2870  0.4755 -0.1557
 1220TIP3    H125075   2.360   0.439  10.933  3.5547  1.8332  0.1243
 1220TIP3    H225076   2.315   0.435  11.078  1.4520  3.0882 -0.4664
 1221TIP3   OH225077   6.727   1.199   0.519  0.0542  0.3160  0.4290
 1221TIP3    H125078   6.717   1.106   0.503  0.5182  0.4251 -0.5922
 1221TIP3    H225079   6.679   1.216   0.600 -3.1561 -0.1598 -1.2783
 1222TIP3   OH225080   2.854   6.391   3.067  0.2590 -0.2486 -0.2878
 1222TIP3    H125081   2.915   6.448   3.112  0.8811  0.0173 -1.4369
 1222TIP3    H225082   2.815   6.447   2.999 -1.7086 -0.2407  0.7887
 1223TIP3   OH225083   1.894   3.500   1.718 -0.1151  0.3500  0.2179
 1223TIP3    H125084   1.989   3.508   1.717 -0.1218  0.6118  1.1282
 1223TIP3    H225085   1.864   3.561   1.650  0.4334 -0.8968 -1.1795
 1224TIP3   OH225086   6.572   1.163   5.049 -0.8372 -0.0835 -0.6108
 1224TIP3    H125087   6.499   1.222   5.068 -0.7280  0.5658 -2.1718
 1224TIP3    H225088   6.586   1.117   5.132 -0.9606  2.0227  0.6340
 1225TIP3   OH225089   6.389   1.770   3.680  0.4982 -0.1455  0.2266
 1225TIP3    H125090   6.370   1.681   3.709 -0.6025 -0.3840 -1.1530
 1225TIP3    H225091   6.480   1.768   3.653  0.0912 -1.2290 -1.1106
 1226TIP3   OH225092   3.859   0.643   6.403  0.6584  0.0054 -0.6163
 1226TIP3    H125093   3.809   0.562   6.390 -0.0269  0.8437 -3.4941
 1226TIP3    H225094   3.869   0.650   6.498 -1.5845 -2.0437 -0.1903
 1227TIP3   OH225095   1.449   0.973  13.725 -0.1584  0.1778  0.0018
 1227TIP3    H125096   1.363   0.954  13.687 -0.6600  0.5613  0.9452
 1227TIP3    H225097   1.508   0.979  13.649 -0.6622 -1.5706 -0.5603
 1228TIP3   OH225098   4.710   2.657  12.177  0.5130 -0.5579  0.0333
 1228TIP3    H125099   4.748   2.630  12.094  1.6565 -0.0276  0.3741
 1228TIP3    H225100   4.696   2.751  12.168  1.0352 -0.4250  0.5899
 1229TIP3   OH225101   1.547   1.277  16.720  0.5538 -0.1495  0.3665
 1229TIP3    H125102   1.634   1.315  16.733  0.1559  1.7035 -2.1155
 1229TIP3    H225103   1.565   1.187  16.691  1.6097  0.0526  0.3611
 1230TIP3   OH225104   1.808   3.720   4.464 -0.1445  0.9875  0.4417
 1230TIP3    H125105   1.852   3.755   4.387 -0.9541  1.4770  0.2050
 1230TIP3    H225106   1.819   3.625   4.456 -2.5376  0.8270 -1.7005
 1231TIP3   OH225107   3.146   3.742   0.022  0.1897  0.8361 -0.2284
 1231TIP3    H125108   3.093   3.662   0.030 -0.5634  1.3218 -0.3657
 1231TIP3    H225109   3.114   3.784  -0.057 -0.5083  2.0671  0.6867
 1232TIP3   OH225110   0.155   2.119   5.426  0.0203  0.0477 -0.7199
 1232TIP3    H125111   0.193   2.042   5.470 -1.2644 -0.2963 -0.2104
 1232TIP3    H225112   0.157   2.096   5.333 -0.5742 -0.6920 -0.5494
 1233TIP3   OH225113   0.439   4.125   4.302 -0.7934  0.5672 -0.4817
 1233TIP3    H125114   0.399   4.202   4.262 -0.3758  0.7516 -0.5466
 1233TIP3    H225115   0.480   4.159   4.382 -1.4384  0.2413 -0.0093
 1234TIP3   OH225116   6.045   5.163  13.144  0.0885  0.0663  0.6395
 1234TIP3    H125117   6.010   5.177  13.232 -1.2777  2.2977 -0.2060
 1234TIP3    H225118   6.133   5.201  13.147 -0.4789  1.4072  0.6836
 1235TIP3   OH225119   3.255   0.747   1.759  0.0397  0.9202 -0.2325
 1235TIP3    H125120   3.236   0.668   1.708 -1.0729 -0.2403  1.9020
 1235TIP3    H225121   3.169   0.777   1.788  0.6184  1.9049  0.4596
 1236TIP3   OH225122   0.460   4.210   1.796 -0.3733  0.5188 -0.1886
 1236TIP3    H125123   0.526   4.191   1.863 -1.5918 -0.4796  0.7344
 1236TIP3    H225124   0.500   4.179   1.714  0.9386  1.3554  0.1141
 1237TIP3   OH225125   0.529   5.232  16.626  0.7247 -0.7630 -0.2331
 1237TIP3    H125126   0.464   5.233  16.557  0.2766 -0.4980  0.1923
 1237TIP3    H225127   0.563   5.142  16.626 -0.3596 -1.1729  0.2161
 1238TIP3   OH225128   4.811   2.606   4.976 -0.2922  0.0625 -0.1854
 1238TIP3    H125129   4.858   2.670   5.030 -1.5360 -2.1263  3.6700
 1238TIP3    H225130   4.720   2.635   4.979 -0.3053  0.2248 -1.6501
 1239TIP3   OH225131   5.142   4.075  12.977 -0.2589 -0.3186 -0.0339
 1239TIP3    H125132   5.075   4.144  12.982 -0.6290 -0.5774 -1.1809
 1239TIP3    H225133   5.094   3.994  12.994 -0.1034 -0.4319 -0.1420
 1240TIP3   OH225134   5.804   5.333   2.466 -0.1912  0.3490 -0.1980
 1240TIP3    H125135   5.763   5.273   2.403  0.2700 -1.1601  0.8929
 1240TIP3    H225136   5.734   5.392   2.493 -1.1020 -0.8150  0.0159
 1241TIP3   OH225137   4.874   0.766  12.676  0.1138 -0.3295 -0.9806
 1241TIP3    H125138   4.895   0.684  12.630 -0.6253 -0.6388 -0.7769
 1241TIP3    H225139   4.919   0.758  12.760  0.9399 -0.0439 -1.3881
 1242TIP3   OH225140   0.431   3.128   2.178  0.0663  0.5302 -0.3922
 1242TIP3    H125141   0.358   3.182   2.208  0.3159  0.2338  0.8144
 1242TIP3    H225142   0.397   3.080   2.103 -1.3435 -0.4360  0.8347
 1243TIP3   OH225143   6.680   6.165  15.298 -0.6290 -0.2294  0.6224
 1243TIP3    H125144   6.722   6.238  15.253 -1.6445  0.2388  0.4464
 1243TIP3    H225145   6.680   6.190  15.390 -0.5740 -0.2128  0.6180
 1244TIP3   OH225146   3.650   2.341   5.225  0.4743  0.2298  0.0456
 1244TIP3    H125147   3.668   2.262   5.276 -1.1712 -0.9650 -1.1669
 1244TIP3    H225148   3.632   2.409   5.291  0.7252 -0.7042  1.0801
 1245TIP3   OH225149   2.655   6.394   2.329  0.3417  0.1053 -0.3091
 1245TIP3    H125150   2.570   6.386   2.285  0.4353  0.5137 -0.5677
 1245TIP3    H225151   2.656   6.483   2.365  0.8706  0.2918 -0.7635
 1246TIP3   OH225152   3.162   3.247   2.339 -0.2988 -0.4164 -0.2522
 1246TIP3    H125153   3.087   3.214   2.290 -0.5551 -0.4524  0.1634
 1246TIP3    H225154   3.222   3.280   2.272 -1.2450  0.8035 -0.5244
 1247TIP3   OH225155   5.836   0.735  14.315 -0.2033 -0.1484  0.7395
 1247TIP3    H125156   5.862   0.716  14.225  2.1301 -1.2302  1.5971
 1247TIP3    H225157   5.815   0.650  14.353 -0.6451  0.2405  1.3835
 1248TIP3   OH225158   0.287   0.963   3.320 -0.0605 -0.4962  0.0522
 1248TIP3    H125159   0.280   0.977   3.226 -1.1249 -1.9515 -0.0999
 1248TIP3    H225160   0.202   0.927   3.345  0.2279 -0.1686  1.5671
 1249TIP3   OH225161   6.376   4.981   2.684 -0.2879  0.1052  0.1951
 1249TIP3    H125162   6.422   4.920   2.627  0.8033  0.8703  0.2430
 1249TIP3    H225163   6.283   4.963   2.669  0.0197 -1.3422 -0.0180
 1250TIP3   OH225164   6.679   1.827   5.042  0.6986 -0.1550 -0.2934
 1250TIP3    H125165   6.638   1.913   5.040  1.0431 -0.0004 -1.0153
 1250TIP3    H225166   6.768   1.844   5.073  0.9709 -0.1577 -1.0570
 1251TIP3   OH225167   0.644   6.290  15.651  0.5775 -0.0169  0.4516
 1251TIP3    H125168   0.608   6.358  15.709 -0.1762  0.4568 -0.5532
 1251TIP3    H225169   0.611   6.208  15.687  0.3298  0.2526  0.8531
 1252TIP3   OH225170   1.070   1.152   2.744 -0.0288  0.5134 -0.0686
 1252TIP3    H125171   1.017   1.201   2.807 -0.8112  0.7421 -0.8913
 1252TIP3    H225172   1.006   1.118   2.681  0.7618  0.4778 -0.8544
 1253TIP3   OH225173   5.347   1.345  12.502 -0.2585  0.1257  0.0014
 1253TIP3    H125174   5.349   1.333  12.597  0.2964  0.3128  0.0164
 1253TIP3    H225175   5.365   1.439  12.490  0.5095 -0.0583 -0.3169
 1254TIP3   OH225176   2.383   5.744  16.084 -0.2572 -0.1405 -0.0436
 1254TIP3    H125177   2.326   5.673  16.115  1.4308 -0.5828  2.2460
 1254TIP3    H225178   2.373   5.813  16.150  0.7556  0.3236 -0.3641
 1255TIP3   OH225179   6.094   3.834   3.932  0.4547  0.9492 -0.7624
 1255TIP3    H125180   6.141   3.752   3.912 -0.7359 -0.5523  2.3522
 1255TIP3    H225181   6.005   3.818   3.902 -0.0584  0.6638  0.9051
 1256TIP3   OH225182   0.267   2.106   5.166 -0.0158 -0.2112  0.2961
 1256TIP3    H125183   0.305   2.188   5.198 -1.2375 -0.3172  2.0622
 1256TIP3    H225184   0.329   2.076   5.098  1.3981  1.2129  0.9215
 1257TIP3   OH225185   5.613   1.449  12.940  0.1072 -0.1509  0.5858
 1257TIP3    H125186   5.584   1.465  12.850 -0.2847  2.0322  1.0680
 1257TIP3    H225187   5.709   1.440  12.933 -0.0844 -1.7051 -0.2525
 1258TIP3   OH225188   1.491   0.503   0.606  0.6768  0.3416  0.1062
 1258TIP3    H125189   1.443   0.568   0.656  0.9047  2.6988 -2.6028
 1258TIP3    H225190   1.562   0.552   0.564  1.6387 -1.8750 -0.9867
 1259TIP3   OH225191   6.079   3.430   4.532 -0.3063 -0.1166  0.0685
 1259TIP3    H125192   6.013   3.366   4.554 -0.7664  0.1974 -0.3873
 1259TIP3    H225193   6.158   3.379   4.514 -0.7814 -0.5817 -0.7136
 1260TIP3   OH225194   3.818   6.356   3.083 -0.6134  0.2162 -0.3375
 1260TIP3    H125195   3.803   6.383   2.993  0.1014  0.4767 -0.3812
 1260TIP3    H225196   3.886   6.416   3.115 -0.4171 -0.2793  0.1754
 1261TIP3   OH225197   2.522   0.348   6.373  0.2555 -0.4954  0.8604
 1261TIP3    H125198   2.499   0.441   6.369 -2.3004 -1.1610 -1.3737
 1261TIP3    H225199   2.611   0.344   6.337  0.2537  1.0504  0.6582
 1262TIP3   OH225200   6.336   3.213   3.753 -0.0872  0.0111  0.1739
 1262TIP3    H125201   6.367   3.196   3.664  0.0584 -1.4292  0.4793
 1262TIP3    H225202   6.402   3.173   3.810 -0.5824  0.2228  0.9115
 1263TIP3   OH225203   1.962   6.008   2.791 -0.5965  0.1141 -0.3377
 1263TIP3    H125204   1.887   5.964   2.751 -1.5650  2.2608 -0.9039
 1263TIP3    H225205   1.948   6.101   2.773  2.7142  0.4734 -1.3285
 1264TIP3   OH225206   5.348   6.756   1.191  0.3962  0.2124  0.6247
 1264TIP3    H125207   5.305   6.739   1.275  0.7663  0.1009  0.7907
 1264TIP3    H225208   5.364   6.669   1.154 -1.2887  0.2799 -0.3398
 1265TIP3   OH225209   5.117   3.634  14.734  0.7860 -0.3957  0.2824
 1265TIP3    H125210   5.134   3.573  14.806  0.8118 -0.6445  0.0641
 1265TIP3    H225211   5.195   3.630  14.680  1.2299  0.6219  0.8282
 1266TIP3   OH225212   4.946   1.918   0.764 -0.1006 -0.1871 -0.5124
 1266TIP3    H125213   4.853   1.901   0.755 -0.1392 -0.1771 -0.0995
 1266TIP3    H225214   4.952   2.009   0.791  0.0098 -0.3567  0.0295
 1267TIP3   OH225215   4.344   2.519  16.766  0.0882 -0.5387 -0.3180
 1267TIP3    H125216   4.307   2.437  16.797 -0.9307 -0.0794 -0.2912
 1267TIP3    H225217   4.268   2.577  16.756  0.9038  0.7382  0.7262
 1268TIP3   OH225218   4.920   0.995   3.430 -0.0926 -0.2437  0.4282
 1268TIP3    H125219   4.948   1.010   3.520  1.3544 -0.6940  0.0669
 1268TIP3    H225220   5.000   1.002   3.378 -1.2688  2.3362 -1.1359
 1269TIP3   OH225221   2.270   3.676   1.843 -0.6203 -0.2276  0.1801
 1269TIP3    H125222   2.235   3.709   1.760  0.1152 -1.8589 -0.8205
 1269TIP3    H225223   2.354   3.720   1.853 -0.0192 -1.1126 -0.7366
 1270TIP3   OH225224   2.764   5.295   5.274 -0.3621  0.4301  0.4573
 1270TIP3    H125225   2.815   5.340   5.206 -0.8653  2.0667  1.1404
 1270TIP3    H225226   2.679   5.280   5.233 -0.0746 -0.2731  0.0979
 1271TIP3   OH225227   0.299   0.483   4.736  0.0711  0.4947 -0.8325
 1271TIP3    H125228   0.236   0.544   4.775  1.6677  2.0596 -0.6223
 1271TIP3    H225229   0.366   0.472   4.803 -0.6357 -2.2685 -0.5063
 1272TIP3   OH225230   4.649   3.769  16.144 -0.0944 -0.3245 -0.0898
 1272TIP3    H125231   4.584   3.816  16.196  0.4231 -0.9716  1.1657
 1272TIP3    H225232   4.610   3.761  16.057 -2.3856 -2.0777  1.0458
 1273TIP3   OH225233   0.724   3.639  16.810 -0.4872  0.0833  0.9469
 1273TIP3    H125234   0.802   3.650  16.756 -0.7453 -0.7759  0.3831
 1273TIP3    H225235   0.693   3.728  16.827  0.1334  0.3916  0.4568
 1274TIP3   OH225236   1.879   2.792  15.372  0.3935 -0.0161 -0.1789
 1274TIP3    H125237   1.802   2.848  15.382 -0.6855 -1.2703 -1.2178
 1274TIP3    H225238   1.845   2.713  15.330  2.1949 -0.7357 -0.3054
 1275TIP3   OH225239   2.575   2.051  17.204 -0.3818  0.0650 -0.7903
 1275TIP3    H125240   2.550   2.139  17.175  0.5998  1.2327  1.8255
 1275TIP3    H225241   2.648   2.027  17.147  1.0733  2.0360  0.2227
 1276TIP3   OH225242   5.282   2.315  11.693 -0.2148  0.2424 -0.0823
 1276TIP3    H125243   5.202   2.299  11.642 -0.2320  0.8968 -0.2597
 1276TIP3    H225244   5.271   2.403  11.727  1.9425  1.6686 -2.8913
 1277TIP3   OH225245   4.927   3.985   5.531  0.0458  0.3087  0.4255
 1277TIP3    H125246   4.870   4.060   5.549 -0.2090 -0.1003  1.3675
 1277TIP3    H225247   4.913   3.926   5.605  0.2102 -0.6938 -0.3301
 1278TIP3   OH225248   6.012   2.601  12.393  0.2904 -0.0477  0.2088
 1278TIP3    H125249   6.099   2.619  12.428  0.5603 -0.6964 -0.1182
 1278TIP3    H225250   5.966   2.685  12.398  0.8978  0.2692  0.4888
 1279TIP3   OH225251   4.649   1.896   2.449  0.1876 -0.2118 -0.2092
 1279TIP3    H125252   4.577   1.835   2.464  0.4327 -0.3269  0.5520
 1279TIP3    H225253   4.634   1.968   2.510 -0.6651  1.0248 -1.8287
 1280TIP3   OH225254   4.944   2.985   3.689  0.0837  0.1946 -0.8153
 1280TIP3    H125255   4.979   2.897   3.684  0.6906  0.4708 -1.6469
 1280TIP3    H225256   4.858   2.979   3.647 -0.0275 -0.0720 -0.5504
 1281TIP3   OH225257   0.722   3.751   6.355  0.6232 -0.0449  0.8413
 1281TIP3    H125258   0.763   3.674   6.395  2.1984  0.8993  1.0531
 1281TIP3    H225259   0.785   3.781   6.289 -0.9714 -0.2637 -0.8383
 1282TIP3   OH225260   6.061   3.739   0.491  0.2004 -0.1478  0.0500
 1282TIP3    H125261   6.012   3.662   0.521  2.7339 -2.0390 -0.4637
 1282TIP3    H225262   6.060   3.732   0.395 -0.7208  1.2433 -0.0563
 1283TIP3   OH225263   5.731   1.833   0.491 -0.4371  0.0394  0.4570
 1283TIP3    H125264   5.823   1.857   0.479 -0.3780 -0.6642 -0.5288
 1283TIP3    H225265   5.714   1.768   0.423 -1.0519 -1.4766  2.0196
 1284TIP3   OH225266   0.636   3.086  14.057 -0.0925  0.4464  0.5518
 1284TIP3    H125267   0.659   3.004  14.014  2.1858 -0.6042  3.5906
 1284TIP3    H225268   0.556   3.066  14.106  0.3326  0.1130  1.1070
 1285TIP3   OH225269   6.346   3.192   1.739 -0.2793 -0.6866 -0.2144
 1285TIP3    H125270   6.392   3.170   1.658 -1.4429 -1.1839 -0.7546
 1285TIP3    H225271   6.254   3.177   1.719 -0.5876 -0.7100  1.1724
 1286TIP3   OH225272   1.006   4.182  15.270 -0.1453 -0.1874  0.4587
 1286TIP3    H125273   1.067   4.233  15.217 -1.6558  0.1377 -1.0076
 1286TIP3    H225274   0.978   4.111  15.212 -2.8539  0.9518  0.3333
 1287TIP3   OH225275   4.488   0.855   6.099 -0.4151 -0.2775  0.5319
 1287TIP3    H125276   4.418   0.795   6.077 -1.9997  0.7459  2.6598
 1287TIP3    H225277   4.453   0.909   6.170  2.6126  0.0660  1.8380
 1288TIP3   OH225278   2.664   5.766   1.060  0.0613  0.5042 -0.4955
 1288TIP3    H125279   2.636   5.847   1.018  0.2540  0.9321  0.1909
 1288TIP3    H225280   2.757   5.778   1.076  0.2453 -0.1631 -1.0824
 1289TIP3   OH225281   0.916   5.595   2.470 -0.0888 -0.3281 -0.1549
 1289TIP3    H125282   1.007   5.622   2.485  0.2910 -1.1868 -0.8918
 1289TIP3    H225283   0.885   5.568   2.556  0.3352  0.0210  0.1120
 1290TIP3   OH225284   3.277   5.311  16.561  0.0976  0.1881 -0.5654
 1290TIP3    H125285   3.234   5.382  16.512  2.0989  0.8782 -1.3370
 1290TIP3    H225286   3.296   5.244  16.496 -0.8991 -0.6777  0.0022
 1291TIP3   OH225287   3.460   3.581  10.874 -1.5215  0.0762 -0.0121
 1291TIP3    H125288   3.523   3.510  10.859  0.4605  1.4020  1.8341
 1291TIP3    H225289   3.375   3.538  10.874 -0.8111 -1.5640 -4.0142
 1292TIP3   OH225290   3.668   1.447   2.502 -0.4556  0.0731  0.4431
 1292TIP3    H125291   3.739   1.428   2.564 -1.9144  1.2018  2.5443
 1292TIP3    H225292   3.588   1.419   2.549 -1.5254  0.1972 -1.2754
 1293TIP3   OH225293   6.285   6.334  15.422  0.1595 -0.1065  0.3754
 1293TIP3    H125294   6.315   6.387  15.349 -1.8804  0.4681 -0.0794
 1293TIP3    H225295   6.227   6.391  15.472 -0.8069 -1.4065  0.7765
 1294TIP3   OH225296   2.094   3.540  14.731 -0.2389  0.2999 -0.2755
 1294TIP3    H125297   2.084   3.447  14.748  1.4591  0.2456  0.5319
 1294TIP3    H225298   2.031   3.583  14.790  1.2845 -0.1927  1.7789
 1295TIP3   OH225299   4.176   6.530   2.012  0.4373 -0.1102  0.1484
 1295TIP3    H125300   4.247   6.566   1.958 -0.0905 -0.4226 -0.7665
 1295TIP3    H225301   4.195   6.437   2.018  0.4480 -0.0905  0.4432
 1296TIP3   OH225302   4.566   6.305  10.262 -0.8387 -0.3336 -0.0220
 1296TIP3    H125303   4.638   6.333  10.319 -1.0324 -0.1686  0.1433
 1296TIP3    H225304   4.610   6.270  10.184 -0.5192 -2.8099  1.2370
 1297TIP3   OH225305   5.963   6.486  14.429  0.0313 -0.0458 -0.4520
 1297TIP3    H125306   5.938   6.500  14.520  1.7256  2.1097 -0.2905
 1297TIP3    H225307   5.998   6.397  14.428  1.0699  0.3166  1.2579
 1298TIP3   OH225308   6.157   3.886   2.564 -0.2075  0.3568  0.2070
 1298TIP3    H125309   6.103   3.959   2.595  0.6322  1.1022 -0.0885
 1298TIP3    H225310   6.241   3.897   2.609  0.1159 -0.1090 -0.2790
 1299TIP3   OH225311   3.351   6.755  11.868 -0.0144  0.3125 -0.0565
 1299TIP3    H125312   3.376   6.825  11.928  0.9360 -1.7227  2.0159
 1299TIP3    H225313   3.433   6.726  11.829  0.0160 -1.4602  1.2185
 1300TIP3   OH225314   1.392   1.148   0.647 -0.0524 -0.4008 -0.9825
 1300TIP3    H125315   1.396   1.159   0.552  2.0655  2.8039 -0.6180
 1300TIP3    H225316   1.465   1.090   0.668  0.9816  0.8184 -1.1304
 1301TIP3   OH225317   6.563   3.087   3.957 -0.0924  0.0055 -0.2997
 1301TIP3    H125318   6.561   3.145   4.033 -1.6332 -1.6796  1.0057
 1301TIP3    H225319   6.643   3.036   3.968 -0.9386 -1.1236  0.9516
 1302TIP3   OH225320   5.852   5.400   2.173 -0.0529  0.5563  0.4358
 1302TIP3    H125321   5.885   5.343   2.243 -1.7555 -0.9912  0.0312
 1302TIP3    H225322   5.769   5.433   2.207  0.0371  1.3388 -0.0914
 1303TIP3   OH225323   2.353   1.740  11.920  0.2421 -0.1648  0.0287
 1303TIP3    H125324   2.319   1.705  11.838 -1.7715  0.2788  0.6659
 1303TIP3    H225325   2.371   1.832  11.901  3.4081 -0.9125 -0.9868
 1304TIP3   OH225326   5.211   1.295  17.173  0.2642 -0.7259 -0.4219
 1304TIP3    H125327   5.245   1.212  17.207  1.1307  0.8346  2.6744
 1304TIP3    H225328   5.285   1.333  17.126 -0.2198 -1.7921 -2.0943
 1305TIP3   OH225329   3.318   2.097   3.940  0.2292 -0.4470 -0.3919
 1305TIP3    H125330   3.306   2.009   3.903 -1.2608 -0.3171 -0.2397
 1305TIP3    H225331   3.326   2.154   3.864  1.7166 -0.7708 -0.4921
 1306TIP3   OH225332   6.665   0.928   3.038  0.0769 -0.4109  0.2705
 1306TIP3    H125333   6.608   0.992   3.080 -0.7056 -1.4780  0.8730
 1306TIP3    H225334   6.687   0.866   3.107 -1.2065 -2.1847 -0.8673
 1307TIP3   OH225335   5.126   5.606  16.517  0.1756 -0.0733  0.0085
 1307TIP3    H125336   5.072   5.684  16.510  0.1119  0.0027  1.2846
 1307TIP3    H225337   5.158   5.591  16.428 -1.5391  0.1621 -0.6692
 1308TIP3   OH225338   6.065   5.398  10.999  0.1297 -0.0004 -0.2153
 1308TIP3    H125339   6.066   5.490  10.972 -1.0967  0.0153 -0.2236
 1308TIP3    H225340   5.978   5.366  10.973  0.6760 -1.2578 -0.5343
 1309TIP3   OH225341   3.133   3.493  13.902 -0.0012  0.2040  0.3201
 1309TIP3    H125342   3.148   3.587  13.914  0.4903  0.0175  1.2525
 1309TIP3    H225343   3.221   3.456  13.893 -0.1918 -0.1743  0.0225
 1310TIP3   OH225344   5.609   6.373   3.076  0.7666 -0.2502 -0.2228
 1310TIP3    H125345   5.541   6.424   3.120 -0.5952  0.7442 -3.2884
 1310TIP3    H225346   5.577   6.283   3.079  0.7730 -0.2274  0.8834
 1311TIP3   OH225347   0.014   2.919   3.953 -0.3991  0.1159  0.1449
 1311TIP3    H125348   0.083   2.907   4.018  0.0951 -1.1992 -0.5977
 1311TIP3    H225349   0.061   2.940   3.872 -0.5445 -4.4269 -1.2688
 1312TIP3   OH225350   6.262   3.300   4.312  0.2975 -0.0099  0.0762
 1312TIP3    H125351   6.257   3.232   4.379  1.8063  0.4985  0.7366
 1312TIP3    H225352   6.355   3.324   4.310  0.5712 -1.1466 -3.3277
 1313TIP3   OH225353   2.687   4.568  15.551  0.0332 -0.3548  0.3270
 1313TIP3    H125354   2.607   4.566  15.603 -2.4590 -2.2348 -3.3349
 1313TIP3    H225355   2.689   4.484  15.506  1.7594  1.3190 -2.9236
 1314TIP3   OH225356   6.644   2.743  16.565 -0.0208  0.3502  0.1861
 1314TIP3    H125357   6.618   2.830  16.595  0.3248  0.7217 -0.5853
 1314TIP3    H225358   6.564   2.705  16.528  0.5162  1.4965 -2.1962
 1315TIP3   OH225359   0.569   4.951  10.516 -0.0363  0.1192  0.0308
 1315TIP3    H125360   0.476   4.944  10.536  0.2473 -1.4046  0.8849
 1315TIP3    H225361   0.608   4.984  10.597  0.3228 -0.3739  0.0579
 1316TIP3   OH225362   2.348   0.484  10.734 -0.3413 -0.2268  0.3828
 1316TIP3    H125363   2.365   0.421  10.664  1.1998  0.2102  0.3574
 1316TIP3    H225364   2.282   0.543  10.698 -0.6638 -0.9096 -0.1442
 1317TIP3   OH225365   1.665   2.780  10.791 -0.4355  0.2952  0.1550
 1317TIP3    H125366   1.578   2.810  10.819 -0.1695 -0.9968  2.5570
 1317TIP3    H225367   1.702   2.854  10.743 -3.2479  0.5034 -1.7917
 1318TIP3   OH225368   5.085   5.473  14.133  0.1363 -0.2506  0.3380
 1318TIP3    H125369   4.994   5.484  14.161  0.4134 -0.5258  1.3711
 1318TIP3    H225370   5.080   5.451  14.040 -0.8905 -1.1388  0.6048
 1319TIP3   OH225371   4.552   3.737  14.846 -0.0567 -0.0691 -0.7392
 1319TIP3    H125372   4.558   3.764  14.937  1.1483 -0.4724 -0.6911
 1319TIP3    H225373   4.532   3.819  14.799 -0.1062  0.2404 -0.1872
 1320TIP3   OH225374   3.389   0.862  12.638 -0.7699  0.1085 -0.7097
 1320TIP3    H125375   3.382   0.880  12.544  1.4939  0.8386 -0.7676
 1320TIP3    H225376   3.380   0.947  12.680  0.5211  0.1043 -0.4122
 1321TIP3   OH225377   2.536   2.455   5.537 -0.5232  0.2159  0.1269
 1321TIP3    H125378   2.548   2.396   5.611 -1.1521  1.8059  1.5458
 1321TIP3    H225379   2.588   2.417   5.466  0.4573 -1.0874  1.5271
 1322TIP3   OH225380   3.002   4.127   1.521 -0.3074  0.3739  0.0829
 1322TIP3    H125381   2.958   4.208   1.496 -1.0472 -0.2477 -0.6384
 1322TIP3    H225382   3.093   4.139   1.491 -0.2189  1.2306  0.6482
 1323TIP3   OH225383   0.226   0.750  16.027 -0.3908  0.0841  0.0212
 1323TIP3    H125384   0.207   0.844  16.026 -2.7247 -0.3638 -1.7360
 1323TIP3    H225385   0.243   0.728  15.936  2.1495 -0.8616  0.6876
 1324TIP3   OH225386   2.340   0.377   6.156  0.6583 -0.0480 -0.0364
 1324TIP3    H125387   2.349   0.358   6.249  0.4913  0.8124  0.1618
 1324TIP3    H225388   2.430   0.386   6.124  0.7192 -0.4988  0.0039
 1325TIP3   OH225389   2.796   3.153  15.136 -0.2138 -0.6463  0.3033
 1325TIP3    H125390   2.742   3.128  15.061 -1.4918  2.5321  0.1203
 1325TIP3    H225391   2.883   3.165  15.100 -0.5643 -0.3613 -0.4536
 1326TIP3   OH225392   0.930   2.075  15.966 -0.3405  0.1167 -0.0225
 1326TIP3    H125393   1.004   2.023  15.935 -0.0128 -0.1382  1.1366
 1326TIP3    H225394   0.958   2.106  16.053 -1.1272  0.9910 -0.0753
 1327TIP3   OH225395   4.679   0.909  13.904  0.5527 -0.6748 -0.3382
 1327TIP3    H125396   4.693   0.819  13.876 -3.2471 -1.6000  0.4583
 1327TIP3    H225397   4.699   0.909  13.997  0.3482 -0.7396 -0.2947
 1328TIP3   OH225398   3.237   3.407   2.545  0.1268  0.3564  0.6371
 1328TIP3    H125399   3.164   3.469   2.548  0.6903  1.0888 -0.5729
 1328TIP3    H225400   3.208   3.338   2.486  1.4089  1.9855 -1.9962
 1329TIP3   OH225401   3.726   1.815   5.408 -0.1907  0.0463 -0.2487
 1329TIP3    H125402   3.766   1.821   5.495 -0.0111  1.0124 -0.3945
 1329TIP3    H225403   3.708   1.721   5.397 -1.5845  0.0762  1.4649
 1330TIP3   OH225404   1.881   3.800  11.936 -0.3653  0.4278 -0.2359
 1330TIP3    H125405   1.847   3.885  11.907  2.0113  1.0463 -1.3277
 1330TIP3    H225406   1.823   3.736  11.896 -1.6596  1.5030 -0.1220
 1331TIP3   OH225407   4.966   5.209  10.744 -0.0429  0.3517  0.0674
 1331TIP3    H125408   4.887   5.208  10.798  0.5926  0.8066  1.0153
 1331TIP3    H225409   5.029   5.157  10.794  0.7421  1.2890  0.0535
 1332TIP3   OH225410   2.424   6.685  15.131  0.3583  0.1199 -0.3858
 1332TIP3    H125411   2.433   6.712  15.223  0.6602  2.1091 -0.9921
 1332TIP3    H225412   2.513   6.684  15.098  0.2152 -0.2898 -0.7629
 1333TIP3   OH225413   1.729   2.816   4.785  0.4436  0.0662 -0.4102
 1333TIP3    H125414   1.641   2.831   4.819  0.0032  0.4562 -1.7063
 1333TIP3    H225415   1.757   2.902   4.752  1.4342  0.0182  0.2694
 1334TIP3   OH225416   4.422   1.318   0.317  0.4311  0.4721  0.5459
 1334TIP3    H125417   4.380   1.276   0.392  3.3035  0.4215  2.1862
 1334TIP3    H225418   4.415   1.253   0.247  1.7918 -1.3750  2.0796
 1335TIP3   OH225419   1.866   0.740   4.804 -0.2459 -0.0494 -0.4809
 1335TIP3    H125420   1.855   0.828   4.768 -1.9403  0.6443  1.6040
 1335TIP3    H225421   1.829   0.682   4.737  0.7041  0.8141 -1.7863
 1336TIP3   OH225422   1.167   6.529  17.051 -0.1984 -0.5055  0.6642
 1336TIP3    H125423   1.211   6.560  17.130 -0.6559  0.6175  0.4900
 1336TIP3    H225424   1.093   6.589  17.040 -1.3931 -1.9730  0.5888
 1337TIP3   OH225425   0.450   0.719  11.263 -0.0656  0.3685 -0.3155
 1337TIP3    H125426   0.406   0.756  11.340 -0.2113 -0.0555 -0.1968
 1337TIP3    H225427   0.465   0.795  11.206  0.3092  0.7282  0.2569
 1338TIP3   OH225428   1.449   6.622  16.298 -0.2565  0.6005 -0.0094
 1338TIP3    H125429   1.489   6.702  16.263  0.6301  0.1587 -0.0191
 1338TIP3    H225430   1.514   6.588  16.359 -1.2235  0.6378  1.0487
 1339TIP3   OH225431   6.271   3.617  14.163 -0.1075  0.0418 -0.1343
 1339TIP3    H125432   6.310   3.654  14.242 -1.1149 -1.1382  0.9480
 1339TIP3    H225433   6.177   3.631  14.175 -0.4942 -2.5390  0.1781
 1340TIP3   OH225434   4.336   1.646  12.736 -0.1523 -0.3798  0.2409
 1340TIP3    H125435   4.417   1.596  12.734 -0.1522 -0.3459 -1.3120
 1340TIP3    H225436   4.359   1.730  12.695 -0.9287 -0.3254 -0.1026
 1341TIP3   OH225437   2.313   1.829  14.326 -0.6927  0.6321 -0.2702
 1341TIP3    H125438   2.377   1.855  14.392  0.8779 -0.6041 -1.2793
 1341TIP3    H225439   2.320   1.734  14.321 -2.7634  0.4455 -0.2638
 1342TIP3   OH225440   6.462   2.331  14.157  0.1337  0.2352  0.0723
 1342TIP3    H125441   6.444   2.328  14.251  1.1174 -1.4475  0.2127
 1342TIP3    H225442   6.379   2.360  14.118 -0.7698 -0.6520  1.3030
 1343TIP3   OH225443   2.701   0.033  14.123 -0.2110  0.0694 -0.2327
 1343TIP3    H125444   2.721  -0.060  14.126 -1.2847 -0.2001 -1.0037
 1343TIP3    H225445   2.730   0.061  14.036 -0.0278  0.4239 -0.0580
 1344TIP3   OH225446   0.653   4.237   2.212  0.2098 -0.0619  0.1149
 1344TIP3    H125447   0.628   4.158   2.260  2.4664 -0.6553  0.4020
 1344TIP3    H225448   0.577   4.259   2.159 -0.6802 -2.0564  0.5303
 1345TIP3   OH225449   2.379   1.161   3.632 -0.3465 -0.2248  0.1744
 1345TIP3    H125450   2.398   1.166   3.538 -0.5219 -0.7965  0.1078
 1345TIP3    H225451   2.465   1.148   3.672 -0.2124  0.5251  0.1335
 1346TIP3   OH225452   4.438   6.487  13.228 -0.2241 -0.8955 -0.4808
 1346TIP3    H125453   4.526   6.515  13.203  0.1827 -2.9081 -1.3941
 1346TIP3    H225454   4.382   6.518  13.156 -0.1116 -0.5705 -0.4331
 1347TIP3   OH225455   0.406   2.367   3.025  0.5750 -0.0812 -0.1719
 1347TIP3    H125456   0.408   2.406   3.112 -0.8796  0.5104 -0.3996
 1347TIP3    H225457   0.339   2.299   3.031  2.0464 -1.5694 -0.2023
 1348TIP3   OH225458   0.421   4.413  13.000 -0.6256  0.1123 -0.5508
 1348TIP3    H125459   0.424   4.461  13.082  1.5920 -2.4781  0.9451
 1348TIP3    H225460   0.446   4.478  12.933  1.0605  1.3418  1.2337
 1349TIP3   OH225461   3.995   3.224   2.867 -0.2526  0.0871 -0.0037
 1349TIP3    H125462   4.005   3.137   2.908 -0.0633 -0.8457 -1.9975
 1349TIP3    H225463   4.085   3.255   2.855 -0.3235  0.7087  0.9515
 1350TIP3   OH225464   5.796   2.729  11.403  0.7665  0.6224  0.4186
 1350TIP3    H125465   5.778   2.733  11.309  0.1094  1.1444  0.5523
 1350TIP3    H225466   5.850   2.652  11.415 -2.6078 -1.9146  0.1376
 1351TIP3   OH225467   3.660   1.982   1.006 -0.3614 -0.2652 -0.4458
 1351TIP3    H125468   3.620   2.066   0.988 -1.0116 -0.0682  1.7903
 1351TIP3    H225469   3.750   1.990   0.973  0.5163  2.3513  2.3341
 1352TIP3   OH225470   5.780   4.516   3.055 -0.1411  0.2890 -0.3041
 1352TIP3    H125471   5.748   4.454   2.991 -0.8020  0.2475  0.0558
 1352TIP3    H225472   5.710   4.582   3.061 -1.0008 -0.7544  1.8079
 1353TIP3   OH225473   2.324   4.641  15.223  0.3062 -0.0540 -0.0690
 1353TIP3    H125474   2.282   4.648  15.137  0.5671  1.0907 -0.1146
 1353TIP3    H225475   2.252   4.631  15.284  0.0447  0.4269 -0.2962
 1354TIP3   OH225476   5.777   4.199   4.237 -0.3203  0.2822 -0.2449
 1354TIP3    H125477   5.716   4.144   4.287 -0.1821 -0.8009 -1.2601
 1354TIP3    H225478   5.823   4.138   4.180  1.1840  1.2028 -0.0317
 1355TIP3   OH225479   0.172   6.271   3.627  0.6141 -0.6198  0.0026
 1355TIP3    H125480   0.160   6.320   3.709 -0.6694 -1.2767  0.2034
 1355TIP3    H225481   0.084   6.263   3.591  1.0706 -1.1321 -0.9917
 1356TIP3   OH225482   1.826   3.072   5.968 -0.3276  0.0547 -0.2096
 1356TIP3    H125483   1.784   2.997   5.926  0.6299 -0.8694  0.4452
 1356TIP3    H225484   1.774   3.086   6.048 -1.8094  1.4639 -1.3834
 1357TIP3   OH225485   4.539   6.315  15.371 -0.3969 -0.3763 -0.2712
 1357TIP3    H125486   4.500   6.228  15.379  0.7169 -0.7439  1.5620
 1357TIP3    H225487   4.615   6.312  15.429 -1.6431  2.5585  1.6445
 1358TIP3   OH225488   1.290   1.534   5.829 -0.4674  0.2946  0.6038
 1358TIP3    H125489   1.306   1.577   5.744 -1.0105  1.3987  1.0447
 1358TIP3    H225490   1.339   1.588   5.892  0.0884 -0.6343  0.9697
 1359TIP3   OH225491   1.691   3.324   1.342  0.3689  0.1936 -0.3816
 1359TIP3    H125492   1.648   3.312   1.426  2.5840 -0.5221  0.7128
 1359TIP3    H225493   1.673   3.243   1.294 -2.6162  1.4309 -1.4564
 1360TIP3   OH225494   5.491   1.040   1.249 -0.3466 -0.4930  0.3765
 1360TIP3    H125495   5.408   0.999   1.274 -0.5853  0.4970  1.2394
 1360TIP3    H225496   5.556   0.999   1.305 -0.2067 -1.4471 -0.4702
 1361TIP3   OH225497   5.975   0.259   0.147 -0.1954  0.4475 -0.1429
 1361TIP3    H125498   6.070   0.254   0.156 -0.2568 -0.7436 -0.1474
 1361TIP3    H225499   5.952   0.188   0.088 -0.9883  1.3873 -0.9886
 1362TIP3   OH225500   4.273   4.102   0.899 -0.5615 -0.7981  0.7330
 1362TIP3    H125501   4.366   4.121   0.910 -0.4985 -1.8388  2.2118
 1362TIP3    H225502   4.235   4.184   0.869  0.9179 -0.4991 -0.3917
 1363TIP3   OH225503   3.878   0.478  13.068  0.4034 -0.3938  0.1679
 1363TIP3    H125504   3.942   0.549  13.078  0.1261 -0.1062 -0.0834
 1363TIP3    H225505   3.885   0.428  13.149  1.3066 -0.6589 -0.0734
 1364TIP3   OH225506   1.656   2.321  12.191 -0.7169  0.7787 -0.4651
 1364TIP3    H125507   1.644   2.226  12.192 -0.4720  0.7591  0.5610
 1364TIP3    H225508   1.654   2.347  12.283  2.2727  1.3819 -0.5248
 1365TIP3   OH225509   3.499   4.388   5.168  0.0515 -0.8459  0.0802
 1365TIP3    H125510   3.433   4.338   5.215  0.2064 -0.9984  0.1371
 1365TIP3    H225511   3.572   4.395   5.230 -0.0908 -0.2841  0.1880
 1366TIP3   OH225512   0.795   1.624   2.982 -0.2667  0.7911  0.9540
 1366TIP3    H125513   0.827   1.677   3.055  2.6999  0.0008  0.2886
 1366TIP3    H225514   0.787   1.536   3.019  0.0207  0.6387  0.6505
 1367TIP3   OH225515   6.283   2.072   1.003  0.6560 -0.4080 -0.2307
 1367TIP3    H125516   6.378   2.063   0.995  0.6038 -1.7865  0.6623
 1367TIP3    H225517   6.268   2.094   1.095 -0.1363 -4.0489  0.6048
 1368TIP3   OH225518   0.736   6.710  13.137 -0.3286 -0.4177  0.7213
 1368TIP3    H125519   0.775   6.624  13.151  0.9841 -0.2070 -1.4302
 1368TIP3    H225520   0.804   6.772  13.164  0.2855 -0.0592 -1.5424
 1369TIP3   OH225521   0.418   5.099  12.155  0.5891 -0.3050 -0.2812
 1369TIP3    H125522   0.395   5.023  12.207 -0.7887  0.1295 -0.2541
 1369TIP3    H225523   0.356   5.098  12.082 -0.7829  1.9384  0.8131
 1370TIP3   OH225524   4.148   5.416   3.052 -0.1365  0.1839  0.1627
 1370TIP3    H125525   4.200   5.352   3.100  0.1309 -0.3222 -0.7904
 1370TIP3    H225526   4.133   5.375   2.967 -0.4250  1.1692 -0.2592
 1371TIP3   OH225527   5.906   5.714   1.696  0.4649 -0.4270  0.1640
 1371TIP3    H125528   5.965   5.684   1.626 -1.8165 -0.5467 -1.7971
 1371TIP3    H225529   5.948   5.793   1.730  1.4995 -0.1781 -1.5781
 1372TIP3   OH225530   1.776   5.542  16.744 -0.3658  0.4617 -0.0082
 1372TIP3    H125531   1.846   5.592  16.702 -0.4088  0.0118 -0.6142
 1372TIP3    H225532   1.803   5.535  16.836  2.4645 -3.3255 -1.0587
 1373TIP3   OH225533   5.149   4.052   0.457 -0.3429 -0.0896 -0.3720
 1373TIP3    H125534   5.242   4.041   0.436 -0.2592 -1.0714  0.4488
 1373TIP3    H225535   5.104   4.037   0.374  0.2510  0.8782 -0.8828
 1374TIP3   OH225536   1.153   6.725   5.548  0.2394 -0.1192 -0.0200
 1374TIP3    H125537   1.227   6.761   5.499 -0.4422  0.6182 -0.5204
 1374TIP3    H225538   1.189   6.707   5.635  0.8310  0.9428 -0.0275
 1375TIP3   OH225539   6.446   0.308   1.734  0.3039  0.1208  1.1025
 1375TIP3    H125540   6.414   0.371   1.670 -1.9580  1.0340  3.0408
 1375TIP3    H225541   6.404   0.225   1.709  0.6340  0.1301  0.5165
 1376TIP3   OH225542   2.117   6.695   1.136  0.5217  0.6628 -0.2655
 1376TIP3    H125543   2.147   6.773   1.089 -0.4547  1.6972  0.7630
 1376TIP3    H225544   2.037   6.724   1.180 -0.7637 -1.3928 -1.1799
 1377TIP3   OH225545   3.943   6.466  13.124  0.4910  0.2402  0.2203
 1377TIP3    H125546   3.983   6.547  13.155  0.0074  0.9128 -0.8808
 1377TIP3    H225547   3.976   6.456  13.035  1.6258 -1.5066  0.7970
 1378TIP3   OH225548   3.348   1.793  14.473  0.1769  0.4891  0.1265
 1378TIP3    H125549   3.425   1.737  14.464  0.8920  1.1571  1.7873
 1378TIP3    H225550   3.274   1.734  14.465  0.9008 -0.3965 -0.0665
 1379TIP3   OH225551   3.011   1.025  15.608 -0.2456 -0.4945 -0.5411
 1379TIP3    H125552   3.077   1.016  15.677 -0.0646 -1.0768 -0.7886
 1379TIP3    H225553   2.963   1.104  15.632 -1.2082 -1.5599  1.1253
 1380TIP3   OH225554   6.557   6.006   4.306  0.0313 -0.1932 -0.1079
 1380TIP3    H125555   6.579   6.017   4.213 -0.5079  0.4032 -0.1629
 1380TIP3    H225556   6.474   6.050   4.317  1.2660  1.8880  1.2061
 1381TIP3   OH225557   6.469   0.328  12.848 -0.1219 -0.3383  0.4282
 1381TIP3    H125558   6.504   0.239  12.849  0.8601  0.0166  2.9352
 1381TIP3    H225559   6.543   0.383  12.875 -1.6372  0.8166  2.3801
 1382TIP3   OH225560   3.937   1.425   0.214 -0.2787  0.3706  0.5784
 1382TIP3    H125561   3.985   1.367   0.273  0.2132 -0.9937 -1.1076
 1382TIP3    H225562   4.005   1.466   0.161 -0.7948  0.5876  0.0783
 1383TIP3   OH225563   1.677   1.461  11.449  0.4749 -0.8143  0.4891
 1383TIP3    H125564   1.670   1.486  11.357  3.2019  1.2132  0.8012
 1383TIP3    H225565   1.734   1.385  11.449 -2.5400 -3.1853  0.2054
 1384TIP3   OH225566   5.241   6.333   5.094  0.3018  0.0767  0.4946
 1384TIP3    H125567   5.218   6.279   5.018  0.8957 -0.1568  0.4739
 1384TIP3    H225568   5.164   6.388   5.108 -0.0972 -0.3863  0.1712
 1385TIP3   OH225569   0.589   6.012  10.352  0.1625 -0.9021 -0.2295
 1385TIP3    H125570   0.621   6.058  10.429 -1.4414 -0.8457  0.4163
 1385TIP3    H225571   0.517   5.957  10.384 -0.1069 -1.3553 -1.5639
 1386TIP3   OH225572   5.699   1.959   5.658  0.2792 -0.4484  0.1035
 1386TIP3    H125573   5.734   1.987   5.742 -1.3949 -0.6604  0.8834
 1386TIP3    H225574   5.770   1.975   5.596  2.3991 -2.4571  1.8968
 1387TIP3   OH225575   6.288   5.173  10.503  0.8736 -0.1785 -0.9853
 1387TIP3    H125576   6.292   5.228  10.581  2.6957 -0.4291 -0.8837
 1387TIP3    H225577   6.201   5.189  10.466 -0.2819 -0.5975  1.4869
 1388TIP3   OH225578   3.751   5.628  11.953 -0.1697  0.5108  0.3752
 1388TIP3    H125579   3.776   5.575  11.877 -1.4385  0.3140  0.0943
 1388TIP3    H225580   3.704   5.703  11.916 -0.3167  0.6956  0.9337
 1389TIP3   OH225581   5.799   6.111   3.004  0.1181 -0.5074 -0.2684
 1389TIP3    H125582   5.830   6.169   2.934 -0.1167 -0.0595 -0.0034
 1389TIP3    H225583   5.828   6.024   2.977  0.3310 -0.2906 -0.7522
 1390TIP3   OH225584   4.703   4.398   1.737  0.3325  0.0748 -0.5505
 1390TIP3    H125585   4.712   4.373   1.645 -0.0562 -1.0668 -0.2901
 1390TIP3    H225586   4.674   4.489   1.734 -0.4738 -0.1958 -1.5849
 1391TIP3   OH225587   6.167   3.347   3.221  0.0221  0.3310  0.1335
 1391TIP3    H125588   6.208   3.323   3.138 -0.1694  2.0668 -0.4840
 1391TIP3    H225589   6.087   3.392   3.197  0.1697  1.2248  1.2467
 1392TIP3   OH225590   0.546   0.508  13.671 -0.3701  0.0548 -0.1025
 1392TIP3    H125591   0.523   0.541  13.585  1.6444 -1.7331 -1.3866
 1392TIP3    H225592   0.623   0.559  13.697  1.0321 -1.6154 -0.8559
 1393TIP3   OH225593   3.663   5.596  16.841 -0.1667 -0.5424 -0.3360
 1393TIP3    H125594   3.704   5.630  16.920  2.4718 -0.9720 -1.4635
 1393TIP3    H225595   3.576   5.567  16.869  1.5878 -2.9241  2.9410
 1394TIP3   OH225596   6.576   2.399   2.217 -0.1590  0.2196 -0.1802
 1394TIP3    H125597   6.582   2.468   2.151  0.8120 -0.0970 -0.4250
 1394TIP3    H225598   6.645   2.337   2.194  1.3916  1.0092  2.1789
 1395TIP3   OH225599   4.319   5.714  16.101  0.5304  0.0993  0.3547
 1395TIP3    H125600   4.383   5.714  16.173 -0.7298  0.4115  1.5047
 1395TIP3    H225601   4.326   5.627  16.063  1.5267  0.0754  0.5711
 1396TIP3   OH225602   1.961   2.471  12.564  0.6064 -0.3330 -0.1800
 1396TIP3    H125603   1.939   2.562  12.581  3.2981  0.4252 -0.5037
 1396TIP3    H225604   1.926   2.423  12.639 -1.0255  0.9212 -0.1267
 1397TIP3   OH225605   4.491   6.404   4.835 -0.0234 -0.1876 -0.0747
 1397TIP3    H125606   4.567   6.445   4.794  0.5524 -0.8695  0.2790
 1397TIP3    H225607   4.438   6.476   4.867  0.7157  0.2856  0.0861
 1398TIP3   OH225608   5.210   6.431   0.479 -0.2907  0.2843  0.0313
 1398TIP3    H125609   5.140   6.370   0.506  1.8048 -2.3065 -0.1975
 1398TIP3    H225610   5.187   6.455   0.389 -0.7709 -0.7534 -0.1359
 1399TIP3   OH225611   5.034   2.900   5.957 -0.1406  0.4543 -1.2384
 1399TIP3    H125612   5.036   2.847   6.036  2.1540  0.1119 -1.4988
 1399TIP3    H225613   4.996   2.843   5.890  3.0039 -1.1847 -1.7098
 1400TIP3   OH225614   6.150   1.188   3.434 -0.0718  0.7681 -0.5854
 1400TIP3    H125615   6.098   1.266   3.455  1.4413  1.4115  0.9493
 1400TIP3    H225616   6.093   1.114   3.457 -0.4342  1.4473  0.7542
 1401TIP3   OH225617   4.020   5.963  14.578 -0.4305 -0.0213  0.1383
 1401TIP3    H125618   4.092   5.900  14.566  0.7590  1.6150 -1.5490
 1401TIP3    H225619   3.956   5.938  14.512  0.0073  0.4781 -0.4801
 1402TIP3   OH225620   2.039   4.572   0.650  0.3458  0.3523  0.0360
 1402TIP3    H125621   2.007   4.611   0.732 -0.3178 -0.9428  0.4104
 1402TIP3    H225622   1.969   4.587   0.587 -0.0569 -0.5041  0.2684
 1403TIP3   OH225623   1.738   4.819   0.212  0.1559  0.0048 -0.0577
 1403TIP3    H125624   1.812   4.817   0.152  0.4285 -0.1726  0.2812
 1403TIP3    H225625   1.679   4.751   0.179  0.1758  0.0994 -0.2884
 1404TIP3   OH225626   3.924   3.146  13.654  0.5325  0.3912 -0.1848
 1404TIP3    H125627   3.850   3.174  13.599 -1.5774 -2.0911  1.2846
 1404TIP3    H225628   3.908   3.189  13.738 -1.4176 -3.0972  1.3335
 1405TIP3   OH225629   2.482   5.567   3.116  0.1260 -0.2736  0.4224
 1405TIP3    H125630   2.438   5.594   3.035  0.1544 -2.4979 -0.3871
 1405TIP3    H225631   2.575   5.568   3.093  0.1003 -1.4855  0.2075
 1406TIP3   OH225632   0.850   1.933   3.934  0.3775 -0.4887 -0.2721
 1406TIP3    H125633   0.885   1.863   3.989 -0.4053  0.2190  1.1559
 1406TIP3    H225634   0.914   2.004   3.940 -0.0010 -0.1854  0.2125
 1407TIP3   OH225635   4.695   0.297   0.574  0.2177  0.6884 -0.2782
 1407TIP3    H125636   4.675   0.355   0.501 -0.2205  2.1234  0.9480
 1407TIP3    H225637   4.655   0.213   0.550  1.7329  0.5752 -2.5279
 1408TIP3   OH225638   6.521   0.099   1.436 -0.1485 -0.1865 -0.1588
 1408TIP3    H125639   6.439   0.050   1.447 -0.0276 -0.6015 -1.0560
 1408TIP3    H225640   6.576   0.041   1.384  0.3874  0.4694 -0.3171
 1409TIP3   OH225641   4.068   3.351  11.296 -0.1256  0.6851  0.1384
 1409TIP3    H125642   4.107   3.389  11.218  2.0197  1.6719  1.6472
 1409TIP3    H225643   4.139   3.302  11.337 -1.1341  0.4520  1.6475
 1410TIP3   OH225644   2.386   5.931  13.229  0.6065 -0.4926 -0.0049
 1410TIP3    H125645   2.400   5.988  13.305 -1.4061 -0.6417  0.5091
 1410TIP3    H225646   2.389   5.842  13.266  1.5362 -0.6333 -0.4240
 1411TIP3   OH225647   0.824   0.525  16.063  0.2071 -0.7835  0.5373
 1411TIP3    H125648   0.765   0.498  15.993 -0.5831 -0.7240  1.1650
 1411TIP3    H225649   0.899   0.563  16.018 -1.2131  1.1524 -0.2736
 1412TIP3   OH225650   1.365   1.038   4.860 -0.4449 -0.1442  0.3643
 1412TIP3    H125651   1.364   1.132   4.842 -1.0518 -0.0725  0.7377
 1412TIP3    H225652   1.289   1.004   4.812  0.9392 -0.7701 -1.4279
 1413TIP3   OH225653   2.927   1.562   0.391 -0.0983  0.1758 -0.0421
 1413TIP3    H125654   2.919   1.655   0.414  0.6300  0.7160 -1.9168
 1413TIP3    H225655   2.989   1.527   0.454 -0.3443  0.9676  0.6452
 1414TIP3   OH225656   5.834   0.191  11.107  0.0456 -0.6613 -0.0545
 1414TIP3    H125657   5.920   0.186  11.067 -0.6753  1.6490 -2.0507
 1414TIP3    H225658   5.782   0.126  11.061  0.1111 -0.3716 -0.5408
 1415TIP3   OH225659   0.133   4.400  12.850  0.1306 -0.0579  0.7314
 1415TIP3    H125660   0.115   4.324  12.793 -1.0791  0.1261  0.8560
 1415TIP3    H225661   0.124   4.366  12.939 -0.1573  0.1757  0.7912
 1416TIP3   OH225662   3.815   2.842   2.788  0.1801 -0.1753 -0.4618
 1416TIP3    H125663   3.784   2.820   2.876  0.6633 -1.4365 -0.5977
 1416TIP3    H225664   3.740   2.823   2.731  0.2576 -0.4925 -0.4588
 1417TIP3   OH225665   2.820   5.548   4.464 -0.1391  0.1690 -0.2639
 1417TIP3    H125666   2.896   5.531   4.519  0.7691  1.0878 -1.1962
 1417TIP3    H225667   2.773   5.618   4.508  0.2447  0.4653 -0.3224
 1418TIP3   OH225668   0.003   6.654  12.253  0.0093  0.5084 -0.5066
 1418TIP3    H125669   0.016   6.601  12.174  0.0531 -1.6294  0.8960
 1418TIP3    H225670   0.012   6.745  12.222  2.7300 -0.3468 -2.4687
 1419TIP3   OH225671   3.112   6.391  14.273 -1.0047 -0.3437  0.3126
 1419TIP3    H125672   3.190   6.435  14.238 -0.5710 -0.6435  0.8960
 1419TIP3    H225673   3.097   6.317  14.214 -0.2689 -0.8531  0.7593
 1420TIP3   OH225674   0.532   2.781   3.618 -0.4531  0.1707 -0.8328
 1420TIP3    H125675   0.493   2.762   3.703  0.3949  0.6938 -0.3267
 1420TIP3    H225676   0.544   2.694   3.578 -0.9188 -0.0702 -0.4579
 1421TIP3   OH225677   6.403   2.398   2.418 -0.3409 -0.0387  0.1430
 1421TIP3    H125678   6.463   2.398   2.344 -1.9010  0.4063 -1.1593
 1421TIP3    H225679   6.454   2.435   2.490  0.6086  1.3997 -1.2200
 1422TIP3   OH225680   6.490   0.127   5.507  0.0240  0.3217  0.4464
 1422TIP3    H125681   6.543   0.047   5.516 -0.4793 -0.2094 -1.1800
 1422TIP3    H225682   6.510   0.177   5.586  3.4668  0.4356 -0.4012
 1423TIP3   OH225683   4.943   0.625  16.910  0.2696 -0.0295  0.8306
 1423TIP3    H125684   5.009   0.588  16.851 -1.2010 -2.3650  0.5974
 1423TIP3    H225685   4.964   0.587  16.996  0.2126  0.4977  1.0782
 1424TIP3   OH225686   4.018   2.204  14.206 -0.3641 -0.0328 -0.1347
 1424TIP3    H125687   4.008   2.109  14.208 -0.7889  0.0097 -0.1605
 1424TIP3    H225688   4.097   2.221  14.256 -0.5770 -0.3616  0.3147
 1425TIP3   OH225689   0.200   6.623   1.343 -0.7057 -0.2971  0.2498
 1425TIP3    H125690   0.146   6.605   1.266  0.4975  1.1111 -0.9646
 1425TIP3    H225691   0.260   6.548   1.348  2.2720  1.6882 -2.9896
 1426TIP3   OH225692   6.337   5.171   1.952 -0.1620 -0.2667  0.1863
 1426TIP3    H125693   6.358   5.159   2.044  1.3908  0.9704  0.0160
 1426TIP3    H225694   6.301   5.087   1.924  0.1655 -0.9205  1.7058
 1427TIP3   OH225695   0.996   3.140  11.225  0.2395 -0.0338  0.2933
 1427TIP3    H125696   0.912   3.186  11.232  0.5216  0.5797 -0.2500
 1427TIP3    H225697   1.061   3.206  11.249  0.6987  0.0548 -1.1381
 1428TIP3   OH225698   2.211   5.046  15.352 -0.1193 -0.6138  0.1880
 1428TIP3    H125699   2.141   5.068  15.414 -1.2773  0.0516 -1.3190
 1428TIP3    H225700   2.288   5.092  15.385 -1.2575  1.5402 -0.0722
 1429TIP3   OH225701   0.941   3.723  14.317 -0.2334 -0.0394  0.2577
 1429TIP3    H125702   0.899   3.641  14.344 -0.9876  0.5111  0.7825
 1429TIP3    H225703   0.877   3.791  14.340  0.5752  0.7305  0.2379
 1430TIP3   OH225704   6.572   4.445  10.327 -0.2581 -0.3430  0.0201
 1430TIP3    H125705   6.646   4.467  10.383  0.7638  0.3981 -1.5846
 1430TIP3    H225706   6.549   4.355  10.352  0.7926 -0.3666  0.9351
 1431TIP3   OH225707   2.537   2.005  11.385 -0.2848  0.0636  0.0871
 1431TIP3    H125708   2.533   1.970  11.474 -0.7569  0.2305  0.1301
 1431TIP3    H225709   2.613   1.961  11.346 -0.4196 -0.4379  0.3833
 1432TIP3   OH225710   3.433   3.801  12.560 -0.5864 -0.4202 -0.2189
 1432TIP3    H125711   3.473   3.838  12.481 -3.6991  2.8294 -0.3896
 1432TIP3    H225712   3.470   3.853  12.632 -1.1201 -0.3635  0.0170
 1433TIP3   OH225713   4.188   0.199   5.604 -0.3023 -0.0628  0.0149
 1433TIP3    H125714   4.258   0.139   5.628  0.6192  0.5556 -1.0852
 1433TIP3    H225715   4.108   0.147   5.612  0.1387 -0.4283  2.4801
 1434TIP3   OH225716   5.933   3.890   2.204  0.5155  0.1027  0.0804
 1434TIP3    H125717   5.951   3.878   2.111 -1.1693 -0.8147 -0.1385
 1434TIP3    H225718   5.997   3.956   2.232  2.8771 -1.6211 -1.0867
 1435TIP3   OH225719   1.953   3.589   5.589  0.1405 -0.0807 -0.1890
 1435TIP3    H125720   2.011   3.517   5.614 -1.0491 -1.6884 -1.9508
 1435TIP3    H225721   2.011   3.665   5.582  2.0602 -1.6702 -2.0863
 1436TIP3   OH225722   3.877   3.476  15.032 -0.1233  0.5466  1.0204
 1436TIP3    H125723   3.887   3.397  14.979  0.9374  2.4152 -1.6788
 1436TIP3    H225724   3.947   3.470  15.097  1.4236  0.3777 -0.6247
 1437TIP3   OH225725   0.005   5.248   4.657  0.2575  0.3193 -0.2922
 1437TIP3    H125726  -0.040   5.246   4.742  0.4752  0.2025 -0.1802
 1437TIP3    H225727  -0.046   5.310   4.604  1.3674  2.0605  0.6285
 1438TIP3   OH225728   3.174   1.643  14.894  0.3814 -0.0591  0.5805
 1438TIP3    H125729   3.147   1.727  14.857 -0.2992 -1.0244 -1.1405
 1438TIP3    H225730   3.104   1.583  14.871  2.0640 -1.6867 -0.4314
 1439TIP3   OH225731   4.599   5.136   5.339 -0.2269 -0.6835  0.1632
 1439TIP3    H125732   4.590   5.191   5.417  0.3716  0.6077 -0.6674
 1439TIP3    H225733   4.519   5.083   5.338 -0.1970 -0.7860  1.6962
 1440TIP3   OH225734   1.442   1.866   2.600 -0.5005  0.7169 -0.2065
 1440TIP3    H125735   1.431   1.773   2.581 -1.0068  0.4382  1.4188
 1440TIP3    H225736   1.397   1.911   2.528 -1.0870 -0.3112 -0.4823
 1441TIP3   OH225737   5.321   4.038  13.255 -0.1344 -0.1840  0.1049
 1441TIP3    H125738   5.265   4.059  13.330  0.0718  2.6734 -0.4496
 1441TIP3    H225739   5.262   3.996  13.193 -1.3008  1.1405  0.2614
 1442TIP3   OH225740   4.929   3.072  16.146 -0.0439 -0.2945 -0.4587
 1442TIP3    H125741   4.961   3.002  16.202  0.2855  2.5281  3.0362
 1442TIP3    H225742   5.008   3.115  16.113 -0.2113  1.5155  1.4593
 1443TIP3   OH225743   5.394   2.816   5.172 -0.6796  0.1171 -0.5095
 1443TIP3    H125744   5.378   2.727   5.204  0.2216 -0.2297 -1.0004
 1443TIP3    H225745   5.465   2.806   5.108  0.4419  1.3788  0.5024
 1444TIP3   OH225746   4.697   2.132   5.567  0.0897  0.1281  0.0852
 1444TIP3    H125747   4.607   2.099   5.567  0.1662 -0.1019 -1.1276
 1444TIP3    H225748   4.749   2.059   5.600 -0.0884  0.0186  0.1235
 1445TIP3   OH225749   0.588   3.120   2.898 -0.2277 -0.0832  0.7229
 1445TIP3    H125750   0.576   3.054   2.967  2.2227 -0.5265  0.7720
 1445TIP3    H225751   0.676   3.154   2.913 -0.1597  0.7352 -1.4204
 1446TIP3   OH225752   1.703   4.136   5.326 -0.3666  0.3410 -0.0589
 1446TIP3    H125753   1.679   4.052   5.364  1.8311  0.2731  1.2639
 1446TIP3    H225754   1.744   4.184   5.398 -1.6900  2.6009 -0.7567
 1447TIP3   OH225755   6.652   3.724  16.768  0.6145  0.3692 -0.1954
 1447TIP3    H125756   6.627   3.686  16.852  0.1500  0.8010 -0.1338
 1447TIP3    H225757   6.691   3.651  16.719 -0.6232 -0.2959 -0.2231
 1448TIP3   OH225758   4.258   2.029  16.205 -0.2259  0.7307 -0.2508
 1448TIP3    H125759   4.331   2.083  16.235 -0.5536  1.1332 -0.1693
 1448TIP3    H225760   4.270   1.945  16.249  0.3094  0.7282 -0.4065
 1449TIP3   OH225761   2.000   2.080  13.831  0.1653  0.0008  0.1072
 1449TIP3    H125762   1.919   2.031  13.841  0.0856  0.4425  1.7934
 1449TIP3    H225763   1.972   2.170  13.813  0.3038 -0.2339 -1.3487
 1450TIP3   OH225764   4.492   3.376  11.953 -0.7496 -0.0565 -0.4300
 1450TIP3    H125765   4.502   3.332  11.868  0.4588  1.4932 -1.1129
 1450TIP3    H225766   4.456   3.461  11.931 -1.6331 -0.1252  0.7495
 1451TIP3   OH225767   0.225   4.265  13.104 -0.0231  0.2947 -0.1875
 1451TIP3    H125768   0.281   4.205  13.154 -0.1451  0.1114 -0.2695
 1451TIP3    H225769   0.284   4.306  13.041 -0.1222 -0.4422 -0.7685
 1452TIP3   OH225770   1.689   1.112  15.640  0.5673  0.2614 -0.6696
 1452TIP3    H125771   1.677   1.022  15.610  0.3134 -0.2317  0.8850
 1452TIP3    H225772   1.767   1.143  15.593  1.3580 -1.1636 -0.3088
 1453TIP3   OH225773   0.784   4.914   0.478  0.2612  0.5753 -0.7297
 1453TIP3    H125774   0.812   4.915   0.570 -1.3582 -2.1320 -0.1522
 1453TIP3    H225775   0.710   4.974   0.475 -0.2192  0.0285 -0.0468
 1454TIP3   OH225776   1.070   5.911  13.035  0.1869 -0.2246 -0.4948
 1454TIP3    H125777   1.065   5.978  13.103 -1.3694  0.9533 -1.7472
 1454TIP3    H225778   1.085   5.959  12.954 -0.0786 -1.4504 -1.2892
 1455TIP3   OH225779   5.484   0.263   5.139 -0.0508 -0.0804  0.0801
 1455TIP3    H125780   5.506   0.325   5.069 -0.6165  1.0236  0.8675
 1455TIP3    H225781   5.546   0.191   5.127  0.5183  0.5657 -0.9480
 1456TIP3   OH225782   4.066   2.008   1.128  0.4411 -0.4489 -0.3518
 1456TIP3    H125783   4.011   2.012   1.050  0.7068  3.5847 -0.4749
 1456TIP3    H225784   4.126   2.082   1.118  2.6356 -1.8294  2.1184
 1457TIP3   OH225785   3.121   6.740  14.377  0.2190  0.1155  0.1536
 1457TIP3    H125786   3.111   6.830  14.407  1.0378  0.2443  0.0558
 1457TIP3    H225787   3.106   6.687  14.455 -2.2265  0.2235 -0.1827
 1458TIP3   OH225788   0.298   6.644  13.473 -0.0163  0.6454 -0.6552
 1458TIP3    H125789   0.366   6.637  13.406  0.9911 -2.1298  0.5722
 1458TIP3    H225790   0.247   6.563  13.464  0.7769 -0.2782  2.5486
 1459TIP3   OH225791   6.157   2.299   4.452 -0.5280 -0.3128 -0.2237
 1459TIP3    H125792   6.250   2.281   4.435 -0.2503  0.0986  0.7780
 1459TIP3    H225793   6.119   2.213   4.470 -0.1365 -0.3837  0.2854
 1460TIP3   OH225794   5.030   2.702  16.701  0.3321  0.0019  0.3719
 1460TIP3    H125795   4.948   2.732  16.741  0.1058  0.7066 -0.6030
 1460TIP3    H225796   5.006   2.682  16.611  1.1779 -0.0944  0.1686
 1461TIP3   OH225797   3.056   0.178  16.043 -0.1486 -0.0843  0.0686
 1461TIP3    H125798   2.962   0.188  16.054 -0.3226 -3.2480  1.9475
 1461TIP3    H225799   3.094   0.238  16.107 -0.8581  0.9322 -0.4470
 1462TIP3   OH225800   4.221   3.220   0.263  0.0324 -0.6507 -0.0468
 1462TIP3    H125801   4.224   3.201   0.169  0.6714 -1.1492  0.0762
 1462TIP3    H225802   4.287   3.288   0.276 -2.8608  2.4062 -0.6428
 1463TIP3   OH225803   0.924   0.050   2.270 -0.3140  0.0728  0.4156
 1463TIP3    H125804   0.961   0.030   2.184  0.2272  0.5933  0.5246
 1463TIP3    H225805   0.880   0.134   2.258  1.5826  1.2084  1.1658
 1464TIP3   OH225806   3.130   5.624   3.025  0.9887 -0.1006 -0.3901
 1464TIP3    H125807   3.092   5.702   3.065  1.6440  0.5831 -1.0819
 1464TIP3    H225808   3.072   5.603   2.952  1.2331  0.1896 -0.6677
 1465TIP3   OH225809   4.076   5.757  10.539 -0.1322 -0.1609  0.6963
 1465TIP3    H125810   4.003   5.798  10.585 -1.6990  0.8992 -2.5534
 1465TIP3    H225811   4.065   5.664  10.555 -2.0985  0.0070  0.4613
 1466TIP3   OH225812   5.108   3.934   3.666 -0.1628  0.3710  0.1995
 1466TIP3    H125813   5.085   4.027   3.670 -0.5017  0.2956  0.0595
 1466TIP3    H225814   5.122   3.908   3.757 -1.3755  0.2358  0.3563
 1467TIP3   OH225815   4.949   5.337   1.347 -0.5581 -0.4362 -0.0282
 1467TIP3    H125816   4.942   5.379   1.262  0.6442  1.9244  0.9605
 1467TIP3    H225817   5.039   5.304   1.350 -0.5868 -0.4882  0.3045
 1468TIP3   OH225818   3.471   2.173  15.481  0.0322 -0.0097 -0.5999
 1468TIP3    H125819   3.382   2.206  15.479  0.3974  0.9482 -2.7758
 1468TIP3    H225820   3.502   2.191  15.570 -1.9649 -0.4950  0.2207
 1469TIP3   OH225821   3.116   0.835   3.714  0.0877 -0.1397 -0.2800
 1469TIP3    H125822   3.041   0.805   3.664 -0.1396 -0.4132  0.2160
 1469TIP3    H225823   3.134   0.923   3.682 -1.1046  0.3387  0.3353
 1470TIP3   OH225824   2.099   5.327   0.496 -0.5296 -0.6496 -0.0563
 1470TIP3    H125825   2.137   5.287   0.417  0.0540  0.6762 -0.4693
 1470TIP3    H225826   2.022   5.274   0.515  1.2414 -3.0973  0.4984
 1471TIP3   OH225827   2.927   3.104  13.842 -0.0298 -0.4424 -0.3689
 1471TIP3    H125828   2.875   3.183  13.827 -2.1553 -1.9931 -1.5471
 1471TIP3    H225829   2.889   3.063  13.920  1.2657 -0.1603  0.4305
 1472TIP3   OH225830   5.855   6.600  12.735  0.2324 -0.4960  0.2046
 1472TIP3    H125831   5.939   6.639  12.708  0.0914  0.8378  1.5679
 1472TIP3    H225832   5.880   6.519  12.781  0.7142 -0.6154 -0.2650
 1473TIP3   OH225833   2.651   3.935  13.206  0.0208  0.1996  0.0942
 1473TIP3    H125834   2.731   3.897  13.242  1.6003  2.1382 -1.1965
 1473TIP3    H225835   2.628   4.005  13.267 -0.3120  0.0510  0.1372
 1474TIP3   OH225836   5.442   2.930  15.809  0.5948  0.6305  0.1046
 1474TIP3    H125837   5.478   2.851  15.769  0.7517 -0.1395  1.7484
 1474TIP3    H225838   5.517   2.970  15.854  0.1353  0.7885  0.7318
 1475TIP3   OH225839   4.753   2.226   2.018 -0.1371  0.3733 -0.1915
 1475TIP3    H125840   4.723   2.144   2.057  1.3244  0.3102  0.8131
 1475TIP3    H225841   4.848   2.219   2.015  0.1306  2.7023  1.4636
 1476TIP3   OH225842   1.999   2.584   4.882  0.1690 -0.0144  0.2295
 1476TIP3    H125843   2.093   2.597   4.892 -0.0080  0.9569  0.6306
 1476TIP3    H225844   1.968   2.662   4.836 -0.8275  0.8369  2.3081
 1477TIP3   OH225845   5.818   3.052   4.074  0.3725  0.2697  0.1681
 1477TIP3    H125846   5.813   3.139   4.114  1.2929  1.2239 -1.7451
 1477TIP3    H225847   5.741   3.006   4.107 -1.1000  2.4165 -0.1901
 1478TIP3   OH225848   2.243   3.422   6.105 -0.1318  0.5367  0.0065
 1478TIP3    H125849   2.236   3.339   6.152  1.2759 -0.2214 -1.0662
 1478TIP3    H225850   2.230   3.489   6.172  1.5158 -0.5194  1.4324
 1479TIP3   OH225851   0.164   0.031   5.378 -0.1193  0.7992  0.5402
 1479TIP3    H125852   0.159  -0.051   5.328  0.8125  0.7837  0.4774
 1479TIP3    H225853   0.175   0.003   5.469 -1.7381  0.8285  0.7677
 1480TIP3   OH225854   4.351   6.139   2.820  0.0816  0.1025  0.3377
 1480TIP3    H125855   4.445   6.119   2.817 -0.0177 -0.4400  0.6274
 1480TIP3    H225856   4.346   6.226   2.860  0.5276  0.6735 -0.8316
 1481TIP3   OH225857   0.343   5.053   0.406 -0.4103 -0.7022  0.0914
 1481TIP3    H125858   0.417   5.046   0.345 -0.5826 -1.0089 -0.0850
 1481TIP3    H225859   0.383   5.069   0.491 -0.2389  1.7465 -0.4102
 1482TIP3   OH225860   4.184   1.127   5.689  0.2376 -0.1440 -0.9560
 1482TIP3    H125861   4.178   1.124   5.784  0.9559 -0.4999 -0.9145
 1482TIP3    H225862   4.182   1.035   5.662 -0.2420 -0.0326 -1.3039
 1483TIP3   OH225863   1.205   2.859   0.642 -0.1538  0.8549 -0.3712
 1483TIP3    H125864   1.229   2.779   0.595  2.1571  1.0356  0.4151
 1483TIP3    H225865   1.121   2.840   0.683 -1.2341 -0.0074 -2.8872
 1484TIP3   OH225866   6.483   2.068   4.026  0.3379  0.4813 -0.3964
 1484TIP3    H125867   6.517   2.154   4.051  0.2768  0.3690  0.0797
 1484TIP3    H225868   6.433   2.039   4.102 -1.2767  0.8770 -1.3008
 1485TIP3   OH225869   4.994   2.849  15.954  0.9088 -0.0404 -0.1505
 1485TIP3    H125870   4.939   2.926  15.937 -0.1159 -0.8039 -0.3582
 1485TIP3    H225871   5.058   2.848  15.882 -0.9401 -1.0417 -1.8394
 1486TIP3   OH225872   2.899   0.550  11.726  0.0894  0.4389  0.5243
 1486TIP3    H125873   2.849   0.551  11.807  1.6359 -1.1132  1.5610
 1486TIP3    H225874   2.978   0.600  11.745 -0.6197  2.1018 -0.8004
 1487TIP3   OH225875   3.937   3.997   3.950  0.0804 -0.3428  0.0127
 1487TIP3    H125876   3.913   3.978   3.860 -0.1918 -0.8788  0.2007
 1487TIP3    H225877   4.026   4.033   3.944 -0.9733  2.3040 -0.7412
 1488TIP3   OH225878   2.091   5.176  16.619 -0.2408  0.2287 -0.6962
 1488TIP3    H125879   2.079   5.231  16.541 -0.6089 -1.6119 -1.9725
 1488TIP3    H225880   2.024   5.206  16.680 -0.4126  1.2193 -1.3506
 1489TIP3   OH225881   4.079   0.006  16.605  0.2505 -0.0309  0.4149
 1489TIP3    H125882   4.079  -0.063  16.539  0.6887  0.6084 -0.2694
 1489TIP3    H225883   3.988   0.012  16.633  0.0815 -0.4074 -0.0372
 1490TIP3   OH225884   0.665   0.429   4.553 -0.5285  0.5190  0.3751
 1490TIP3    H125885   0.626   0.349   4.589 -1.3102  1.0611  0.7405
 1490TIP3    H225886   0.726   0.397   4.485 -0.4396 -0.4071  0.8743
 1491TIP3   OH225887   4.784   5.752   5.081  0.0109  0.4389 -0.1594
 1491TIP3    H125888   4.814   5.842   5.069 -0.3931  0.5350 -0.4971
 1491TIP3    H225889   4.691   5.755   5.057 -0.1063  0.0177  0.2308
 1492TIP3   OH225890   0.067   0.135   0.904 -0.0578  0.4226  0.1607
 1492TIP3    H125891   0.048   0.205   0.966  1.0786  0.1429  0.8449
 1492TIP3    H225892   0.133   0.081   0.948 -1.9702 -1.9417  0.2752
 1493TIP3   OH225893   3.010   5.748  11.409  0.2672 -0.4246  0.0260
 1493TIP3    H125894   2.991   5.703  11.326 -1.3748  2.2027 -1.0946
 1493TIP3    H225895   3.104   5.765  11.405  0.3352 -0.9638 -0.9718
 1494TIP3   OH225896   2.572   5.971   0.896  0.0650 -0.1007  0.3251
 1494TIP3    H125897   2.572   6.065   0.883  2.3362 -0.1414 -0.1514
 1494TIP3    H225898   2.553   5.934   0.809  0.0801 -0.1025  0.3226
 1495TIP3   OH225899   0.692   4.840  14.782 -0.3139 -0.7703  0.5028
 1495TIP3    H125900   0.625   4.898  14.817 -1.2150 -1.3842 -0.1926
 1495TIP3    H225901   0.650   4.796  14.709  1.3556  0.0322 -0.9739
 1496TIP3   OH225902   2.085   1.363   4.696  0.5389 -0.7104 -0.5745
 1496TIP3    H125903   2.177   1.342   4.678  0.9324 -1.3320  1.8953
 1496TIP3    H225904   2.047   1.279   4.722 -0.5824 -0.3264 -0.9715
 1497TIP3   OH225905   2.246   0.886  12.003 -0.1248  0.6592 -0.0070
 1497TIP3    H125906   2.182   0.826  11.965 -0.8617  1.1195  0.4862
 1497TIP3    H225907   2.206   0.972  11.994  0.0247  0.8517  1.1193
 1498TIP3   OH225908   5.632   4.208  11.925  0.0958  0.1282  0.0533
 1498TIP3    H125909   5.676   4.278  11.878  0.9156 -0.2310  0.2826
 1498TIP3    H225910   5.625   4.240  12.015 -2.9389  1.5138 -0.6020
 1499TIP3   OH225911   0.538   4.126  14.535  0.6784  0.1667  0.5394
 1499TIP3    H125912   0.550   4.219  14.519  2.0040  0.2266  1.8193
 1499TIP3    H225913   0.444   4.112  14.525  0.8309  1.0315 -2.7696
 1500TIP3   OH225914   0.511   4.633   6.097  0.0504  0.2672  0.4346
 1500TIP3    H125915   0.566   4.703   6.062  0.0425  0.1405  0.1591
 1500TIP3    H225916   0.549   4.612   6.182  0.4504  0.1582  0.2340
 1501TIP3   OH225917   0.905   5.484   1.115 -0.0473 -0.2509 -0.2842
 1501TIP3    H125918   0.985   5.518   1.157  0.2854 -0.3102 -0.8665
 1501TIP3    H225919   0.872   5.419   1.177  0.0533  0.1749  0.2181
 1502TIP3   OH225920   0.993   5.305   0.711 -0.0267  0.1090  0.0051
 1502TIP3    H125921   0.966   5.267   0.794 -2.2246 -0.2901 -0.8662
 1502TIP3    H225922   0.984   5.400   0.723  0.7061  0.1115  0.5619
 1503TIP3   OH225923   3.554   1.302   6.127  0.3709 -0.1224  0.1731
 1503TIP3    H125924   3.573   1.391   6.156 -0.8181  0.0502  0.4428
 1503TIP3    H225925   3.460   1.292   6.138  0.3948 -1.2045 -0.4550
 1504TIP3   OH225926   0.795   2.590   0.394  0.5061 -0.1624  0.2690
 1504TIP3    H125927   0.732   2.660   0.379  0.7148 -0.1023 -0.3584
 1504TIP3    H225928   0.813   2.594   0.488  0.9120  0.9740  0.1580
 1505TIP3   OH225929   2.566   2.673   5.777 -0.0448 -0.2591  0.2117
 1505TIP3    H125930   2.590   2.610   5.710  0.3116  0.3867 -0.2680
 1505TIP3    H225931   2.650   2.708   5.809 -0.1148 -1.7517  2.1578
 1506TIP3   OH225932   4.963   4.155  10.494 -0.1844 -0.2645  0.6213
 1506TIP3    H125933   4.980   4.073  10.539 -0.9322 -0.4970  0.4817
 1506TIP3    H225934   4.893   4.196  10.544 -0.2852 -0.0301  0.2912
 1507TIP3   OH225935   6.302   1.491  16.710  1.0205  0.0562 -0.1348
 1507TIP3    H125936   6.355   1.559  16.669  0.9353 -0.5719 -1.3156
 1507TIP3    H225937   6.335   1.409  16.674  0.0071 -0.4151 -0.0218
 1508TIP3   OH225938   0.680   0.667   2.688  0.0756 -0.7043 -0.2465
 1508TIP3    H125939   0.607   0.713   2.648  1.2245  1.4193  0.0335
 1508TIP3    H225940   0.645   0.581   2.710 -1.3904 -0.9079 -3.1423
 1509TIP3   OH225941   5.174   6.200  16.195 -0.1872  0.1159  0.4000
 1509TIP3    H125942   5.256   6.178  16.151 -2.7585 -3.6204 -2.8364
 1509TIP3    H225943   5.142   6.277  16.149  0.2582  0.0801  0.0299
 1510TIP3   OH225944   4.808   3.668   2.033 -0.6387  0.0079 -0.6620
 1510TIP3    H125945   4.729   3.719   2.016  0.1219  2.0728  1.6698
 1510TIP3    H225946   4.879   3.731   2.027  0.2914 -0.6136  2.6542
 1511TIP3   OH225947   3.720   5.162   1.289  0.6638 -0.0481 -0.4086
 1511TIP3    H125948   3.694   5.163   1.381  0.0811  0.4510 -0.5803
 1511TIP3    H225949   3.761   5.076   1.277 -0.9780 -0.8751 -0.1658
 1512TIP3   OH225950   6.053   4.115   5.547  0.1833 -0.0671  0.7804
 1512TIP3    H125951   6.080   4.183   5.608  0.6715  1.2306 -0.8335
 1512TIP3    H225952   6.018   4.045   5.602  1.3252  0.7381  2.5593
 1513TIP3   OH225953   5.384   0.706   2.332 -0.3786 -0.2935 -0.2047
 1513TIP3    H125954   5.380   0.688   2.426  1.6546  0.2548  0.0113
 1513TIP3    H225955   5.466   0.754   2.320 -0.3666 -0.7858 -2.3311
 1514TIP3   OH225956   5.932   0.690  14.061  0.1122 -0.3466  0.0033
 1514TIP3    H125957   6.026   0.684  14.074  0.1834 -0.0069 -0.3697
 1514TIP3    H225958   5.907   0.604  14.025  0.4844  0.0358 -1.1851
 1515TIP3   OH225959   0.265   1.289  14.303  0.3314  0.0584  0.0626
 1515TIP3    H125960   0.315   1.364  14.271  1.1218 -1.1757 -1.7030
 1515TIP3    H225961   0.332   1.222  14.322 -0.4677 -0.7385  0.0956
 1516TIP3   OH225962   2.404   5.179   1.525  0.1110 -0.0620 -0.7275
 1516TIP3    H125963   2.400   5.274   1.541  0.2092 -0.0870 -0.5551
 1516TIP3    H225964   2.477   5.168   1.464 -0.3695  0.0513 -1.3346
 1517TIP3   OH225965   0.544   1.000   3.378  0.0108 -0.3685 -0.1433
 1517TIP3    H125966   0.457   0.964   3.360  0.5924 -1.4276 -0.9037
 1517TIP3    H225967   0.594   0.982   3.298  0.5434  1.4534 -0.2324
 1518TIP3   OH225968   5.640   2.067   3.123 -0.0243 -0.2981  0.1369
 1518TIP3    H125969   5.682   1.997   3.172  0.1161  0.6420  1.3888
 1518TIP3    H225970   5.561   2.088   3.173  0.5172  1.1901  0.4088
 1519TIP3   OH225971   2.675   1.368   1.830 -0.1476 -0.6814 -0.4913
 1519TIP3    H125972   2.616   1.347   1.757 -0.9937  1.0326 -0.3145
 1519TIP3    H225973   2.700   1.283   1.865 -1.1755 -1.4826 -1.6399
 1520TIP3   OH225974   0.915   4.536  13.256 -0.5003  0.3112 -0.1194
 1520TIP3    H125975   0.843   4.587  13.221 -0.9829 -0.9661 -1.0223
 1520TIP3    H225976   0.874   4.456  13.289  0.1390  0.7967  1.9839
 1521TIP3   OH225977   2.092   1.440   2.062 -0.3981 -0.4061 -0.1290
 1521TIP3    H125978   2.054   1.498   2.129 -0.7002  0.1564 -0.7877
 1521TIP3    H225979   2.058   1.473   1.979  1.9012  0.3976 -0.7805
 1522TIP3   OH225980   1.270   6.291   0.511  0.0989  0.2077 -0.3791
 1522TIP3    H125981   1.276   6.214   0.567 -0.0034  0.5222  0.0616
 1522TIP3    H225982   1.211   6.350   0.557  0.4306  0.6855 -0.5607
 1523TIP3   OH225983   1.137   3.715   2.052 -0.4946  0.1178 -0.0198
 1523TIP3    H125984   1.064   3.668   2.011 -0.7009 -0.2277  0.7373
 1523TIP3    H225985   1.102   3.747   2.135  0.5957 -1.2144  0.9821
 1524TIP3   OH225986   5.593   6.111   0.312 -0.3397 -0.5123  0.0651
 1524TIP3    H125987   5.609   6.038   0.253 -1.8625 -1.2000  0.4960
 1524TIP3    H225988   5.677   6.124   0.357 -0.1446 -2.1906  0.2016
 1525TIP3   OH225989   4.244   6.484   6.342  0.4286 -0.2097 -0.4441
 1525TIP3    H125990   4.229   6.393   6.365  0.4987  0.2709  1.5302
 1525TIP3    H225991   4.216   6.490   6.251  0.4841 -2.2088 -0.6227
 1526TIP3   OH225992   3.383   4.589   1.226 -0.2110 -0.3294  0.0958
 1526TIP3    H125993   3.337   4.630   1.153  0.3600 -0.1595 -0.1713
 1526TIP3    H225994   3.410   4.503   1.192  0.8930  0.1277 -0.2223
 1527TIP3   OH225995   2.862   4.399   5.454 -0.5771 -0.0222  0.1551
 1527TIP3    H125996   2.910   4.344   5.515  0.3020  2.3952  1.7325
 1527TIP3    H225997   2.772   4.400   5.487 -0.1993  0.9189  1.1746
 1528TIP3   OH225998   1.029   6.704   0.794 -0.1047 -0.1960 -0.0731
 1528TIP3    H125999   0.944   6.740   0.770  0.2529  0.8244  0.1699
 1528TIP3    H226000   1.018   6.669   0.882  0.1647  1.4218  0.6066
 1529TIP3   OH226001   3.783   3.322   4.225  0.1268  0.1723  0.0643
 1529TIP3    H126002   3.746   3.407   4.247 -1.1804  0.1767 -2.0694
 1529TIP3    H226003   3.868   3.342   4.186 -0.0434  0.5037 -0.1407
 1530TIP3   OH226004   3.298   3.803   5.024  0.5442  0.3636 -0.2889
 1530TIP3    H126005   3.300   3.743   5.099  0.3130 -0.0735 -0.6276
 1530TIP3    H226006   3.231   3.867   5.047 -1.1835 -1.0881 -1.0972
 1531TIP3   OH226007   3.565   5.923   3.514 -0.0303  0.0409  0.4623
 1531TIP3    H126008   3.501   5.978   3.560  0.2831  1.4545 -0.7406
 1531TIP3    H226009   3.578   5.848   3.571 -3.6462 -0.8747  0.2065
 1532TIP3   OH226010   5.031   1.004   4.329 -0.1041  0.0338  0.6657
 1532TIP3    H126011   4.978   1.083   4.344  0.1086  1.5793 -5.2307
 1532TIP3    H226012   5.120   1.031   4.351 -0.0590  1.5373 -1.1265
 1533TIP3   OH226013   3.750   6.125   1.055  0.5968 -0.0251 -0.2880
 1533TIP3    H126014   3.779   6.109   1.145 -0.7299  0.1180  0.1879
 1533TIP3    H226015   3.812   6.077   1.001  1.5336  0.0496  0.6936
 1534TIP3   OH226016   1.281   0.286   0.536 -0.1135 -0.0733 -0.0012
 1534TIP3    H126017   1.252   0.367   0.493 -0.6293  0.3133  1.0713
 1534TIP3    H226018   1.376   0.286   0.524  0.3684  2.4696  2.9623
 1535TIP3   OH226019   0.133   4.447   4.954 -0.4305 -0.1036  0.0632
 1535TIP3    H126020   0.214   4.497   4.943  0.1962 -1.0747  0.1087
 1535TIP3    H226021   0.064   4.506   4.926 -0.0635  2.0635  3.3886
 1536TIP3   OH226022   2.661   0.362  12.136  0.6121 -0.3675  0.2576
 1536TIP3    H126023   2.709   0.335  12.214  0.4254  0.6728  0.7379
 1536TIP3    H226024   2.693   0.304  12.067 -0.1323 -2.1564  1.3736
 1537TIP3   OH226025   2.422   6.394   5.475  0.6643  0.4180  0.2185
 1537TIP3    H126026   2.363   6.381   5.549  0.1527  1.1927 -0.0460
 1537TIP3    H226027   2.380   6.462   5.422  1.0608 -0.0889 -0.7521
 1538TIP3   OH226028   3.143   1.323  14.663  0.1739  0.0966 -0.1122
 1538TIP3    H126029   3.150   1.228  14.660 -1.1365 -0.0182  0.0301
 1538TIP3    H226030   3.215   1.355  14.610 -0.0261 -1.0040 -1.0482
 1539TIP3   OH226031   5.937   2.659   2.886  0.1606  0.1449 -0.4734
 1539TIP3    H126032   5.915   2.654   2.979  0.4115 -0.0354 -0.4223
 1539TIP3    H226033   6.030   2.682   2.885  0.2902 -0.3831 -0.6774
 1540TIP3   OH226034   5.354   4.045  11.409  0.3442  0.3789 -0.6375
 1540TIP3    H126035   5.314   4.118  11.456 -0.2658 -0.5441  0.2836
 1540TIP3    H226036   5.298   3.970  11.428  0.4360 -0.1370 -2.3485
 1541TIP3   OH226037   6.707   1.235   1.519  0.1072 -0.3430 -0.0156
 1541TIP3    H126038   6.636   1.180   1.553 -0.2110  0.3171  0.4000
 1541TIP3    H226039   6.771   1.238   1.589 -0.0419  0.1070  0.1063
 1542TIP3   OH226040   3.580   0.121   6.357 -0.0384  0.2649  0.1187
 1542TIP3    H126041   3.494   0.162   6.351  0.3077  0.6679 -3.2485
 1542TIP3    H226042   3.636   0.176   6.303  1.8912 -1.1191  0.6620
 1543TIP3   OH226043   0.709   4.407  17.098  0.0927  0.2937 -0.1727
 1543TIP3    H126044   0.762   4.483  17.120  0.9536 -0.3063 -0.1335
 1543TIP3    H226045   0.757   4.364  17.027  1.0155 -1.6355  1.5580
 1544TIP3   OH226046   5.911   2.412   1.442 -0.0588  0.2142 -0.0749
 1544TIP3    H126047   5.935   2.366   1.361  2.5312  0.7080  0.3706
 1544TIP3    H226048   5.988   2.466   1.463 -0.7059  0.1360  2.7015
 1545TIP3   OH226049   1.573   4.824   1.254  0.1329  0.0508 -0.2884
 1545TIP3    H126050   1.668   4.814   1.264 -0.0143 -1.9115 -0.6174
 1545TIP3    H226051   1.557   4.916   1.271  1.8866  0.0501  1.6255
 1546TIP3   OH226052   3.876   6.236   6.091  0.4405 -0.2343  0.2276
 1546TIP3    H126053   3.844   6.259   6.178  0.7573  0.4348  0.1756
 1546TIP3    H226054   3.827   6.158   6.067  1.2509 -1.1708  1.5308
 1547TIP3   OH226055   3.296   6.175  13.696  0.3572 -0.4976 -0.0275
 1547TIP3    H126056   3.234   6.110  13.729 -0.6821  0.5546  0.1016
 1547TIP3    H226057   3.378   6.154  13.741 -0.6603 -0.0110  2.1162
 1548TIP3   OH226058   6.264   2.454   4.951 -0.3111 -0.3487 -0.2583
 1548TIP3    H126059   6.191   2.392   4.946  0.0381 -0.9131  1.3649
 1548TIP3    H226060   6.222   2.539   4.965 -0.7049 -0.4516 -0.7736
 1549TIP3   OH226061   0.173   1.701  12.824 -0.1345 -0.0600 -0.2537
 1549TIP3    H126062   0.170   1.646  12.903 -0.7214 -1.0392 -0.9493
 1549TIP3    H226063   0.263   1.692  12.793 -0.3220 -0.9084 -0.5598
 1550TIP3   OH226064   6.639   6.232  14.211 -0.5269  0.6406  0.2827
 1550TIP3    H126065   6.584   6.286  14.155 -1.0906  0.6080  0.7997
 1550TIP3    H226066   6.657   6.154  14.159 -0.4656  0.9180 -0.1172
 1551TIP3   OH226067   3.874   4.091  14.843 -0.3346  0.3415 -0.0437
 1551TIP3    H126068   3.783   4.097  14.872 -0.9712  0.4250 -1.9548
 1551TIP3    H226069   3.895   3.998  14.844 -0.1285  0.3979  1.2934
 1552TIP3   OH226070   6.604   1.905   4.308 -0.2888 -0.3594  0.0504
 1552TIP3    H126071   6.516   1.939   4.291  0.3347  0.9016 -0.6947
 1552TIP3    H226072   6.642   1.893   4.222 -0.5615 -3.2145  0.2812
 1553TIP3   OH226073   4.138   2.382   0.274 -0.1259  0.1431  0.0657
 1553TIP3    H126074   4.091   2.456   0.313 -0.7374 -0.2129  0.0032
 1553TIP3    H226075   4.206   2.423   0.220  1.3149  0.6520  2.1783
 1554TIP3   OH226076   6.107   0.428  12.784 -0.5180  0.3160 -0.3371
 1554TIP3    H126077   6.043   0.498  12.769 -0.7696  0.8074  2.7996
 1554TIP3    H226078   6.113   0.420  12.879  1.3830 -2.2414 -0.6117
 1555TIP3   OH226079   5.006   2.159   5.467  0.6211 -0.2924  0.2740
 1555TIP3    H126080   5.083   2.105   5.487  1.7033  1.0225 -0.2810
 1555TIP3    H226081   5.006   2.226   5.535  0.6633  0.4263 -0.4300
 1556TIP3   OH226082   3.068   2.682  12.057  0.0931 -0.3068  0.1508
 1556TIP3    H126083   3.096   2.594  12.035  2.5633  0.7275 -0.9734
 1556TIP3    H226084   3.014   2.710  11.983 -0.1072 -0.6039  0.1843
 1557TIP3   OH226085   1.142   3.705   2.430 -0.0105  0.2797  0.2514
 1557TIP3    H126086   1.237   3.698   2.440 -0.0819  0.4376  1.1412
 1557TIP3    H226087   1.114   3.617   2.403  0.6028  0.7459 -1.9547
 1558TIP3   OH226088   4.750   0.317  12.613 -0.4659  0.9070 -0.1945
 1558TIP3    H126089   4.766   0.382  12.682  0.7719 -0.0798  0.4699
 1558TIP3    H226090   4.837   0.292  12.584 -0.9631  0.2531 -1.1229
 1559TIP3   OH226091   2.563   2.841   2.027  0.1626  0.2361 -0.3074
 1559TIP3    H126092   2.529   2.925   2.058  1.1726  0.7142 -0.4781
 1559TIP3    H226093   2.486   2.783   2.026 -0.7043  1.3768 -0.9718
 1560TIP3   OH226094   1.729   0.493  15.845 -0.3452 -0.7962 -0.1267
 1560TIP3    H126095   1.635   0.505  15.856 -0.4425 -1.0239 -0.7564
 1560TIP3    H226096   1.749   0.415  15.896 -0.4792 -0.7090  0.0642
 1561TIP3   OH226097   0.575   5.461   2.370 -0.5845  0.1553 -0.2896
 1561TIP3    H126098   0.610   5.479   2.457 -1.4775  1.6824 -0.2255
 1561TIP3    H226099   0.483   5.440   2.385 -0.3606 -1.1772 -0.7189
 1562TIP3   OH226100   4.292   3.482  17.174 -0.5908  0.1802 -0.1289
 1562TIP3    H126101   4.364   3.432  17.212  0.4968  1.6269 -0.2339
 1562TIP3    H226102   4.332   3.530  17.101 -1.9137  0.1000 -0.9306
 1563TIP3   OH226103   3.516   3.514   1.507 -0.4399 -0.0439 -0.9456
 1563TIP3    H126104   3.500   3.590   1.564 -1.0372  0.3180 -1.5958
 1563TIP3    H226105   3.447   3.452   1.530  1.7008 -1.5772  1.6039
 1564TIP3   OH226106   5.871   3.782   1.634  0.0367  0.1480  0.0079
 1564TIP3    H126107   5.811   3.710   1.614  0.7346  0.0583 -1.8550
 1564TIP3    H226108   5.819   3.861   1.617  0.1515  0.0702 -0.7262
 1565TIP3   OH226109   1.915   5.472   4.886 -0.4170 -0.4611 -0.1226
 1565TIP3    H126110   1.900   5.447   4.976  0.2103 -0.5905 -0.0528
 1565TIP3    H226111   1.828   5.497   4.853 -1.0550 -2.7848 -0.2332
 1566TIP3   OH226112   1.814   3.025   2.830 -0.5414  0.1776 -0.1466
 1566TIP3    H126113   1.776   3.113   2.827 -0.6653  0.1187 -0.3310
 1566TIP3    H226114   1.907   3.039   2.814 -0.7797  0.1400 -1.6368
 1567TIP3   OH226115   0.078   2.485  12.362 -0.1536 -0.4041  0.1625
 1567TIP3    H126116   0.062   2.425  12.290  1.0853 -0.2002 -0.2885
 1567TIP3    H226117   0.166   2.464  12.394  1.1515  2.4457 -1.3147
 1568TIP3   OH226118   6.372   6.332   5.791  0.8284  0.7431  0.0010
 1568TIP3    H126119   6.339   6.297   5.875  1.8990  2.9740  1.4036
 1568TIP3    H226120   6.388   6.425   5.809  1.3462  1.1890 -2.6278
 1569TIP3   OH226121   4.619   0.194  13.486  0.3836  0.0976 -0.1348
 1569TIP3    H126122   4.677   0.128  13.447 -1.2037 -2.8526  2.3156
 1569TIP3    H226123   4.672   0.234  13.555  0.2495 -1.0754  0.6664
 1570TIP3   OH226124   2.980   2.875   1.793  0.0151  0.2951 -0.1973
 1570TIP3    H126125   2.982   2.904   1.702  0.5069  0.7474 -0.0521
 1570TIP3    H226126   2.896   2.830   1.803 -0.2770  0.7142 -0.7287
 1571TIP3   OH226127   6.010   2.928  15.990 -0.0264  0.4260  0.7199
 1571TIP3    H126128   5.965   2.858  15.943 -1.2171  1.4151  0.3585
 1571TIP3    H226129   6.028   2.891  16.076 -0.2523 -0.4701  0.3926
 1572TIP3   OH226130   4.758   1.982   5.150  0.7456 -0.5684  0.6813
 1572TIP3    H126131   4.751   2.030   5.068  1.4355 -0.4746  0.6755
 1572TIP3    H226132   4.813   2.037   5.206  0.4583 -0.7346  1.1333
 1573TIP3   OH226133   2.855   3.656   5.942  0.2165 -0.4035  0.3760
 1573TIP3    H126134   2.806   3.580   5.908 -1.3077  0.8306 -0.2332
 1573TIP3    H226135   2.926   3.617   5.994  0.6987 -2.2937 -1.6124
 1574TIP3   OH226136   0.170   2.789  15.852 -0.1877  0.5352  0.1150
 1574TIP3    H126137   0.145   2.772  15.761  2.4945 -0.9171 -0.4022
 1574TIP3    H226138   0.259   2.756  15.859 -0.2498  0.8762  3.2260
 1575TIP3   OH226139   3.292   2.141  10.609 -0.0445 -1.0333 -0.4943
 1575TIP3    H126140   3.220   2.078  10.611 -2.0371  1.2404  0.5662
 1575TIP3    H226141   3.354   2.107  10.674 -2.1776 -0.7314  1.7965
 1576TIP3   OH226142   3.049   4.722  14.870  0.9062  0.3582  0.4773
 1576TIP3    H126143   3.029   4.758  14.957  1.7302  1.2959  0.2860
 1576TIP3    H226144   2.969   4.737  14.819  0.6195  0.3075  0.9070
 1577TIP3   OH226145   1.606   1.522  17.075  0.3088  0.2116 -0.1219
 1577TIP3    H126146   1.562   1.532  16.990  0.8409 -1.0583 -0.5663
 1577TIP3    H226147   1.539   1.486  17.133  1.0136 -2.8256 -1.0970
 1578TIP3   OH226148   0.628   1.997  14.757  0.5095  0.5237  0.0669
 1578TIP3    H126149   0.698   2.060  14.770  0.9661  0.0730 -0.2226
 1578TIP3    H226150   0.548   2.045  14.779  0.8239  1.3085 -0.4967
 1579TIP3   OH226151   0.027   0.575  14.202 -0.1190 -0.1745 -0.2429
 1579TIP3    H126152   0.050   0.520  14.127  0.6097 -0.4418  0.1732
 1579TIP3    H226153  -0.022   0.648  14.164  0.1258 -0.3812 -0.9627
 1580TIP3   OH226154   1.679   2.307  12.799 -0.1072 -0.4778  0.4271
 1580TIP3    H126155   1.654   2.397  12.778 -0.7423 -0.8201 -0.3071
 1580TIP3    H226156   1.703   2.310  12.892  0.4998  0.5743  0.2434
 1581TIP3   OH226157   0.617   5.584   5.406 -0.4632 -0.3957 -0.8079
 1581TIP3    H126158   0.563   5.555   5.480 -0.2416  0.9187 -0.1201
 1581TIP3    H226159   0.698   5.534   5.413  0.3179  1.0749  0.9533
 1582TIP3   OH226160   0.584   5.309  11.407  0.0412  0.3220  0.0500
 1582TIP3    H126161   0.614   5.348  11.325  0.5141  0.1400  0.1349
 1582TIP3    H226162   0.657   5.319  11.468 -0.1957  0.1881  0.3636
 1583TIP3   OH226163   6.625   4.932   6.431 -0.1687  0.4353  0.8009
 1583TIP3    H126164   6.540   4.897   6.403  0.1292  1.1231 -1.0584
 1583TIP3    H226165   6.679   4.854   6.446 -0.9742  0.0065  1.4548
 1584TIP3   OH226166   0.334   1.802   5.781  0.0439 -0.5546 -0.9271
 1584TIP3    H126167   0.312   1.716   5.816 -0.4994 -0.7271 -1.6856
 1584TIP3    H226168   0.287   1.863   5.838  2.3758 -0.5970  1.1462
 1585TIP3   OH226169   6.543   3.419   2.012  0.3852 -0.2555 -0.0991
 1585TIP3    H126170   6.473   3.479   1.987 -0.6074 -0.7281  1.4677
 1585TIP3    H226171   6.499   3.337   2.031  1.0740 -0.0313  2.7744
 1586TIP3   OH226172   6.733   3.067   4.698  0.5408 -0.3068  0.3044
 1586TIP3    H126173   6.778   3.129   4.640 -0.5522 -1.0849 -1.4457
 1586TIP3    H226174   6.733   3.108   4.784  0.7637  1.6333 -0.6121
 1587TIP3   OH226175   2.170   5.189  14.081  0.3942 -0.0374 -0.1246
 1587TIP3    H126176   2.247   5.175  14.137  0.2541 -0.8949 -0.1354
 1587TIP3    H226177   2.171   5.283  14.062  1.9609 -0.1897 -0.8716
 1588TIP3   OH226178   6.470   0.985   4.588 -0.1816  0.1307  0.4974
 1588TIP3    H126179   6.484   1.065   4.538 -0.6506  0.1250  0.3489
 1588TIP3    H226180   6.537   0.987   4.656  1.0332 -0.3149 -0.6741
 1589TIP3   OH226181   2.938   2.936  16.579 -0.2351  0.3387 -0.0775
 1589TIP3    H126182   2.950   2.842  16.595  1.5475  0.7831  1.4560
 1589TIP3    H226183   3.026   2.972  16.583 -0.7882  1.9467 -1.7518
 1590TIP3   OH226184   1.460   5.541  12.653  0.4298  0.3162 -0.3564
 1590TIP3    H126185   1.465   5.522  12.559  0.9245 -0.7951 -0.1160
 1590TIP3    H226186   1.494   5.462  12.695 -0.2237  0.6248  0.7726
 1591TIP3   OH226187   2.566   5.102  12.256  0.4712 -0.0661 -1.3629
 1591TIP3    H126188   2.526   5.188  12.272 -1.3278 -0.5449 -3.0903
 1591TIP3    H226189   2.648   5.105  12.304  0.8255  2.9318 -2.0203
 1592TIP3   OH226190   4.078   4.047   4.206  0.3876  0.0937  0.0070
 1592TIP3    H126191   4.027   4.055   4.126  1.3821 -0.2863 -0.6708
 1592TIP3    H226192   4.151   4.108   4.196  1.9429 -1.7785 -0.5103
 1593TIP3   OH226193   2.947   4.061   5.277 -0.6435  0.9771 -0.1431
 1593TIP3    H126194   2.896   3.993   5.233 -0.1624  1.7152 -1.8839
 1593TIP3    H226195   2.940   4.040   5.370 -0.9887 -1.1111 -0.6133
 1594TIP3   OH226196   0.266   3.007  16.025 -0.0875  0.1100 -0.3167
 1594TIP3    H126197   0.289   2.914  16.030  2.3861  0.6389 -0.8802
 1594TIP3    H226198   0.248   3.023  15.933 -1.1476  0.0546 -0.1227
 1595TIP3   OH226199   4.497   3.200   1.043 -1.1162 -0.2865  0.6008
 1595TIP3    H126200   4.474   3.174   1.133  0.8291  0.0638  1.2159
 1595TIP3    H226201   4.592   3.195   1.040 -1.0153  1.8922 -0.7734
 1596TIP3   OH226202   3.343   4.358  14.348  0.1286  0.0967 -0.2234
 1596TIP3    H126203   3.393   4.285  14.384  0.3380  1.5389  2.5443
 1596TIP3    H226204   3.355   4.429  14.412 -0.9877  2.1914 -2.2711
 1597TIP3   OH226205   0.721   4.724   2.998 -0.2721 -0.0046  0.1326
 1597TIP3    H126206   0.639   4.679   2.976 -0.3485  0.1985  0.0052
 1597TIP3    H226207   0.773   4.719   2.918 -0.0452 -0.3857  0.3019
 1598TIP3   OH226208   5.509   3.976  11.960 -0.3215 -0.3656  0.3953
 1598TIP3    H126209   5.555   4.056  11.982 -0.9996  0.5310 -1.3078
 1598TIP3    H226210   5.570   3.927  11.905 -1.4511  0.9709 -2.1317
 1599TIP3   OH226211   5.381   4.231  12.929 -0.1402 -0.0853 -0.4166
 1599TIP3    H126212   5.329   4.167  12.976 -1.5261  0.9995 -0.4436
 1599TIP3    H226213   5.437   4.271  12.996 -0.7253  0.0981 -0.0405
 1600TIP3   OH226214   4.162   5.125  16.266  0.0856  0.2351  0.1616
 1600TIP3    H126215   4.245   5.173  16.259 -0.7675  1.8200  0.6751
 1600TIP3    H226216   4.101   5.187  16.306 -1.4197 -0.8446 -0.3891
 1601TIP3   OH226217   2.103   0.334  12.813  0.3551  0.1207 -0.2380
 1601TIP3    H126218   2.093   0.369  12.901 -2.8634  2.2637 -1.3595
 1601TIP3    H226219   2.103   0.239  12.824 -0.8795  0.3591  1.9862
 1602TIP3   OH226220   0.456   0.807   2.586 -0.0951  0.0199 -0.0858
 1602TIP3    H126221   0.400   0.825   2.662  0.0663 -1.0710  0.3009
 1602TIP3    H226222   0.408   0.845   2.512 -1.3042 -0.7835  0.2603
 1603TIP3   OH226223   2.164   6.305  12.767 -0.0805 -0.2055 -0.2195
 1603TIP3    H126224   2.140   6.285  12.677 -0.3148 -0.4929 -0.0906
 1603TIP3    H226225   2.139   6.228  12.817 -1.4443  0.5847  0.3541
 1604TIP3   OH226226   0.476   2.458   1.858  0.0120  0.3934 -0.0835
 1604TIP3    H126227   0.537   2.397   1.901 -1.9416 -1.2188  0.4753
 1604TIP3    H226228   0.491   2.541   1.903 -0.2949 -0.6950  2.1367
 1605TIP3   OH226229   4.170   0.223  12.371  0.2825 -0.2549  0.3464
 1605TIP3    H126230   4.234   0.249  12.305  1.3134 -0.3161  1.2933
 1605TIP3    H226231   4.085   0.233  12.328  0.7279  2.8012  0.0163
 1606TIP3   OH226232   2.074   6.433   1.127  0.2481  0.2756  0.1939
 1606TIP3    H126233   2.149   6.373   1.126  0.6187  0.7287  0.4681
 1606TIP3    H226234   2.112   6.518   1.149 -0.2781  0.6085 -0.1734
 1607TIP3   OH226235   3.443   5.128  12.356  0.3944  0.1035  0.0932
 1607TIP3    H126236   3.360   5.128  12.308 -1.0661  0.0854  2.5282
 1607TIP3    H226237   3.506   5.167  12.295 -1.6409  1.1669 -1.3882
 1608TIP3   OH226238   2.204   2.204  13.644  0.6839 -0.6056 -0.7321
 1608TIP3    H126239   2.170   2.130  13.695 -3.7697  2.3953  0.9523
 1608TIP3    H226240   2.266   2.247  13.702 -2.4593  1.2968  1.3822
 1609TIP3   OH226241   6.259   1.454   5.152 -0.6454  0.1561 -0.1047
 1609TIP3    H126242   6.231   1.545   5.165  0.6390  0.6139 -0.5438
 1609TIP3    H226243   6.263   1.443   5.057  0.4892  0.0423 -0.0500
 1610TIP3   OH226244   5.973   3.792  14.885 -0.4297 -0.1001 -0.5804
 1610TIP3    H126245   5.944   3.873  14.928 -2.4501 -1.3945  0.5896
 1610TIP3    H226246   6.062   3.778  14.916 -1.7633 -0.9086  3.1532
 1611TIP3   OH226247   4.389   2.859   3.375  0.1544 -0.5584  0.5897
 1611TIP3    H126248   4.412   2.852   3.467  0.7947 -1.7102  0.3513
 1611TIP3    H226249   4.461   2.909   3.335  0.6917 -1.4740  0.4137
 1612TIP3   OH226250   1.534   5.413  16.022 -0.4485 -0.1884 -0.6194
 1612TIP3    H126251   1.622   5.386  15.993 -0.6438 -0.8941 -0.5641
 1612TIP3    H226252   1.515   5.490  15.969 -0.3429 -0.8234 -1.5989
 1613TIP3   OH226253   0.015   4.510   5.248 -0.4779  0.1000  0.3301
 1613TIP3    H126254   0.028   4.479   5.158 -0.0588  0.1272  0.3829
 1613TIP3    H226255  -0.052   4.451   5.283 -1.5904  0.9086 -0.4180
 1614TIP3   OH226256   5.973   1.695   2.139 -0.1956 -0.2071  0.0766
 1614TIP3    H126257   5.934   1.611   2.162  0.9044  0.1463  3.6280
 1614TIP3    H226258   6.009   1.682   2.051 -3.6538 -2.0987 -1.1407
 1615TIP3   OH226259   2.063   0.439  10.479 -0.1430  0.5291  0.3688
 1615TIP3    H126260   2.158   0.430  10.491 -0.1117 -0.7564 -0.7627
 1615TIP3    H226261   2.046   0.532  10.494  1.1648  0.6203  1.4486
 1616TIP3   OH226262   5.544   5.719   2.726 -0.5899  0.1912 -0.4674
 1616TIP3    H126263   5.551   5.739   2.819 -2.1776 -0.7485 -0.1214
 1616TIP3    H226264   5.568   5.801   2.682  1.9055  0.1248  0.7057
 1617TIP3   OH226265   2.425   3.289  11.568  0.2496  0.6568 -0.1004
 1617TIP3    H126266   2.514   3.270  11.539 -0.0957  0.3799 -0.9885
 1617TIP3    H226267   2.432   3.299  11.663  1.1549  0.2222 -0.1222
 1618TIP3   OH226268   1.888   5.655  15.867  0.1671  0.5000  0.2774
 1618TIP3    H126269   1.814   5.702  15.827 -0.0819  0.1017  0.2703
 1618TIP3    H226270   1.948   5.724  15.895  0.2040  0.8005 -0.5102
 1619TIP3   OH226271   2.589   5.729  14.728  0.1693 -0.2551 -0.2429
 1619TIP3    H126272   2.507   5.770  14.757 -0.1282  0.4207 -1.9925
 1619TIP3    H226273   2.636   5.710  14.810 -0.2153  2.5120  0.7021
 1620TIP3   OH226274   5.038   3.837   3.193 -0.0642 -0.2181 -0.0093
 1620TIP3    H126275   5.038   3.930   3.217  1.9212 -0.0946 -0.3534
 1620TIP3    H226276   5.032   3.791   3.276 -1.2080  0.2139  0.1567
 1621TIP3   OH226277   1.829   2.387  14.838  0.2592  0.3575 -0.1064
 1621TIP3    H126278   1.862   2.442  14.909  0.5556  0.9739 -0.7182
 1621TIP3    H226279   1.902   2.381  14.776 -1.2187  2.9998 -2.2274
 1622TIP3   OH226280   4.487   3.340   2.932  0.7647  0.0961 -0.1609
 1622TIP3    H126281   4.415   3.317   2.874  0.8461 -0.1154 -0.1773
 1622TIP3    H226282   4.502   3.261   2.985  2.3079 -0.5586 -1.5319
 1623TIP3   OH226283   0.807   0.584  12.524  0.4348  0.5722 -0.1545
 1623TIP3    H126284   0.722   0.627  12.523  1.5044  2.8082  0.4073
 1623TIP3    H226285   0.867   0.651  12.558  2.1836 -1.3870  0.7677
 1624TIP3   OH226286   4.354   3.127  12.438  0.4469 -0.1382  0.0786
 1624TIP3    H126287   4.424   3.157  12.381 -0.1246 -1.0704 -1.1531
 1624TIP3    H226288   4.300   3.072  12.382 -2.2466  1.9437  0.5097
 1625TIP3   OH226289   3.789   3.061   1.530  0.1170  0.2896 -0.1829
 1625TIP3    H126290   3.807   2.968   1.541 -0.4778  0.1582 -0.3245
 1625TIP3    H226291   3.708   3.064   1.478  0.1366  0.8812 -0.1795
 1626TIP3   OH226292   6.386   3.972   2.693 -0.0392  0.7836  0.5140
 1626TIP3    H126293   6.480   3.983   2.678 -0.2837  0.3918 -1.4708
 1626TIP3    H226294   6.380   3.901   2.757  0.9834 -0.2708 -0.5282
 1627TIP3   OH226295   0.074   2.245   1.012 -0.2850  0.3885 -0.3571
 1627TIP3    H126296   0.004   2.311   1.007 -1.2170 -0.5579 -0.0875
 1627TIP3    H226297   0.034   2.172   1.058  0.8477 -0.2418 -0.3596
 1628TIP3   OH226298   6.177   0.756   5.664 -0.0251 -0.0995 -0.2107
 1628TIP3    H126299   6.091   0.781   5.698  1.1660  0.0749  2.9331
 1628TIP3    H226300   6.189   0.666   5.694  0.5677 -0.3647 -1.2488
 1629TIP3   OH226301   3.059   2.847   4.207  0.7814  0.1620 -0.0484
 1629TIP3    H126302   3.105   2.781   4.155 -0.9773 -0.6484 -0.6127
 1629TIP3    H226303   3.068   2.818   4.297  0.2823 -0.6975 -0.2675
 1630TIP3   OH226304   5.623   5.385  14.738  0.3425 -0.4474  0.2023
 1630TIP3    H126305   5.706   5.357  14.775  0.2295  0.8942  1.5221
 1630TIP3    H226306   5.643   5.411  14.648  1.4153  0.2242  0.6351
 1631TIP3   OH226307   1.331   1.517   3.821  0.2225 -0.6731  0.4842
 1631TIP3    H126308   1.267   1.505   3.891  1.1121  0.9968  1.6105
 1631TIP3    H226309   1.291   1.580   3.762  1.3692  1.4568  1.9239
 1632TIP3   OH226310   6.424   3.513   2.476  0.0063 -0.1695  0.3138
 1632TIP3    H126311   6.347   3.557   2.441  0.6851  0.1580 -0.8107
 1632TIP3    H226312   6.390   3.432   2.514 -0.8316 -0.3133 -0.7042
 1633TIP3   OH226313   5.605   2.960  17.209  0.1984  0.1096 -0.1841
 1633TIP3    H126314   5.620   2.908  17.287 -3.2352 -0.5645  0.1163
 1633TIP3    H226315   5.575   2.897  17.143 -1.6281  1.2958 -0.5422
 1634TIP3   OH226316   0.597   4.449   0.629 -0.0567  0.6900 -0.2915
 1634TIP3    H126317   0.516   4.455   0.680  0.1503 -0.3217  0.1551
 1634TIP3    H226318   0.605   4.535   0.587 -2.2369  0.2855 -1.6495
 1635TIP3   OH226319   1.165   1.979   3.443 -0.0597  0.2423  0.7257
 1635TIP3    H126320   1.213   1.926   3.380 -2.9858 -0.1575 -1.2877
 1635TIP3    H226321   1.172   2.068   3.411 -1.4406  0.0553 -0.1431
 1636TIP3   OH226322   4.871   4.975  16.283 -0.0507 -0.4090  0.8388
 1636TIP3    H126323   4.864   4.884  16.252 -0.1505 -0.9787  2.5051
 1636TIP3    H226324   4.926   4.970  16.361 -1.0141  0.8061  1.6108
 1637TIP3   OH226325   0.583   6.258  17.063 -0.6019  0.2545 -0.1667
 1637TIP3    H126326   0.671   6.223  17.047 -1.0142 -0.5452 -0.7131
 1637TIP3    H226327   0.595   6.321  17.134  0.8163  1.8069 -1.7026
 1638TIP3   OH226328   3.121   3.957   5.733 -0.5165 -0.6080 -0.6243
 1638TIP3    H126329   3.039   3.963   5.782 -0.5616  1.2633 -0.9213
 1638TIP3    H226330   3.188   3.945   5.801 -0.3428  3.9246  0.1491
 1639TIP3   OH226331   0.364   1.845   1.985  0.1255 -0.5021 -0.1621
 1639TIP3    H126332   0.432   1.894   2.032 -1.0609  1.4234 -0.3872
 1639TIP3    H226333   0.312   1.804   2.053  0.2391 -0.2188  0.0984
 1640TIP3   OH226334   5.863   0.624   2.529 -0.1056  0.2801  0.4187
 1640TIP3    H126335   5.863   0.541   2.577  0.8078  1.0164  1.7314
 1640TIP3    H226336   5.810   0.682   2.584 -1.2502  0.3991 -0.8019
 1641TIP3   OH226337   5.572   1.705   1.768  0.4969 -0.1405  0.3609
 1641TIP3    H126338   5.544   1.652   1.693  1.2028 -0.4155  0.2924
 1641TIP3    H226339   5.618   1.779   1.730 -2.4919  1.7676  0.3434
 1642TIP3   OH226340   4.597   3.630   5.441 -0.6195 -0.3361 -0.2679
 1642TIP3    H126341   4.504   3.619   5.420 -0.7031  1.4617 -0.9007
 1642TIP3    H226342   4.614   3.723   5.427  1.4075 -0.7402 -0.6370
 1643TIP3   OH226343   2.240   2.527   4.588  0.0160  0.6007 -0.1852
 1643TIP3    H126344   2.303   2.535   4.516  2.2697  0.4075  1.7070
 1643TIP3    H226345   2.212   2.617   4.605  0.1887  0.7492 -0.6784
 1644TIP3   OH226346   1.839   3.938  16.142  0.0125  0.3993  0.1053
 1644TIP3    H126347   1.899   4.013  16.141 -0.1831  0.6008  1.8846
 1644TIP3    H226348   1.874   3.878  16.075  0.3354  1.9328 -1.1139
 1645TIP3   OH226349   2.068   0.402   4.548  0.6964 -0.4970  0.3707
 1645TIP3    H126350   2.089   0.464   4.479 -0.2629 -0.4979  0.0731
 1645TIP3    H226351   2.074   0.453   4.629  0.8861 -0.2619  0.2048
 1646TIP3   OH226352   6.183   3.927   4.693  0.0741 -0.5438 -0.7412
 1646TIP3    H126353   6.267   3.912   4.735  0.1530  1.6678 -0.0504
 1646TIP3    H226354   6.134   3.846   4.707  1.3074 -1.0474  0.7153
 1647TIP3   OH226355   0.956   1.440   2.771 -0.2017 -0.4286  0.6639
 1647TIP3    H126356   0.915   1.360   2.803 -0.7075 -0.6257 -0.4587
 1647TIP3    H226357   0.899   1.510   2.802  1.8621 -0.2110  4.3075
 1648TIP3   OH226358   2.595   1.214  15.830  0.2357  0.1310 -0.5927
 1648TIP3    H126359   2.564   1.170  15.909 -0.2299  0.2631 -0.7017
 1648TIP3    H226360   2.542   1.293  15.823  0.5853  0.3540 -0.7897
 1649TIP3   OH226361   1.937   0.176   3.500 -0.6267 -0.0713 -0.2209
 1649TIP3    H126362   1.935   0.175   3.596 -2.2398 -1.5152 -0.2524
 1649TIP3    H226363   1.924   0.085   3.475  0.1676  0.2449 -1.8218
 1650TIP3   OH226364   1.786   3.175  16.126 -0.2814 -0.1526 -0.5590
 1650TIP3    H126365   1.877   3.198  16.144 -0.5345 -0.5072  1.2923
 1650TIP3    H226366   1.790   3.084  16.098 -0.0413 -0.1318 -0.5942
 1651TIP3   OH226367   1.489   3.773  13.854  0.1631 -0.2309 -0.0240
 1651TIP3    H126368   1.413   3.714  13.849 -0.9018  1.2035 -1.2037
 1651TIP3    H226369   1.516   3.768  13.945  0.0250 -2.4577 -0.0638
 1652TIP3   OH226370   2.435   1.363  14.945  0.3591  0.1980 -0.3832
 1652TIP3    H126371   2.372   1.405  14.886  0.1444 -1.0207 -1.0350
 1652TIP3    H226372   2.520   1.397  14.917  0.0116  1.8200  0.4765
 1653TIP3   OH226373   6.102   1.734   4.983 -0.5862 -0.1139  0.1332
 1653TIP3    H126374   6.068   1.647   5.002 -0.3968 -0.5861 -1.6151
 1653TIP3    H226375   6.164   1.752   5.054 -0.2535 -1.6060  0.2310
 1654TIP3   OH226376   4.996   6.309  17.145  0.1166  0.4292 -0.3393
 1654TIP3    H126377   5.022   6.238  17.204  0.0314  0.4324 -0.2971
 1654TIP3    H226378   5.048   6.295  17.066  1.1181  1.1398  0.1889
 1655TIP3   OH226379   1.751   0.318   1.436 -0.4090  0.2671 -0.0754
 1655TIP3    H126380   1.835   0.295   1.397 -0.4278 -0.4533  0.2983
 1655TIP3    H226381   1.761   0.297   1.529 -0.2012  2.4248  0.4174
 1656TIP3   OH226382   3.094   0.075  13.365  0.1968  0.2255  0.6840
 1656TIP3    H126383   3.156   0.005  13.384 -0.4600 -0.4555  0.3597
 1656TIP3    H226384   3.008   0.032  13.365 -0.0795  0.7390 -0.9549
 1657TIP3   OH226385   2.612   3.728  13.472 -0.1205 -0.1049 -0.1244
 1657TIP3    H126386   2.688   3.732  13.530 -0.9424 -0.0974  0.9809
 1657TIP3    H226387   2.558   3.802  13.499 -0.7492 -0.3968 -0.5722
 1658TIP3   OH226388   0.996   2.033  14.326  0.1635 -0.2451  0.4160
 1658TIP3    H126389   0.918   2.089  14.327 -1.3843 -2.2892 -1.9804
 1658TIP3    H226390   0.976   1.962  14.387  0.5691 -0.2395  0.5586
 1659TIP3   OH226391   2.852   2.223  16.697  0.4923  0.2430 -0.0183
 1659TIP3    H126392   2.935   2.265  16.721 -0.1178  0.1758  2.3041
 1659TIP3    H226393   2.849   2.144  16.751 -1.6374  0.8582  0.8249
 1660TIP3   OH226394   0.603   3.581   0.268  0.7877 -0.1642  0.4234
 1660TIP3    H126395   0.673   3.529   0.228 -1.2339 -1.5556 -1.4430
 1660TIP3    H226396   0.585   3.650   0.204 -1.5007 -1.5595 -0.4895
 1661TIP3   OH226397   4.151   1.453   4.093 -0.4748  0.4035  0.0928
 1661TIP3    H126398   4.222   1.500   4.049 -0.1517  0.4526  0.6606
 1661TIP3    H226399   4.079   1.452   4.030  0.7285 -1.4672 -1.3104
 1662TIP3   OH226400   4.036   1.871   2.840  0.4988  0.2829 -0.3236
 1662TIP3    H126401   4.034   1.861   2.935 -1.0166 -2.6054 -0.6163
 1662TIP3    H226402   4.117   1.826   2.814 -0.6929 -1.6808 -0.6685
 1663TIP3   OH226403   5.418   4.800  16.165  0.1773  0.5954 -0.0230
 1663TIP3    H126404   5.480   4.743  16.119  0.0295 -1.4127  2.1844
 1663TIP3    H226405   5.473   4.866  16.207  1.0245 -1.8384  2.8634
 1664TIP3   OH226406   2.631   4.653   2.145  0.2694  0.3539 -0.1674
 1664TIP3    H126407   2.536   4.653   2.133  0.2028 -0.0078  0.3809
 1664TIP3    H226408   2.655   4.746   2.139  0.0709  0.3228 -1.7989
 1665TIP3   OH226409   3.942   5.773  15.121 -0.5670 -0.1602  0.1338
 1665TIP3    H126410   4.017   5.827  15.146 -0.5083 -1.4456  2.8694
 1665TIP3    H226411   3.975   5.715  15.052  0.3257  0.7962 -0.2465
 1666TIP3   OH226412   0.992   3.347  14.918 -0.0522  0.2818  0.3268
 1666TIP3    H126413   1.000   3.259  14.881 -0.8308  0.3961 -0.1256
 1666TIP3    H226414   1.081   3.373  14.938  0.2176 -0.4607  0.0937
 1667TIP3   OH226415   4.679   4.871  13.655 -0.2538  0.2802  0.3869
 1667TIP3    H126416   4.719   4.794  13.615  1.6689  1.0680  0.7437
 1667TIP3    H226417   4.622   4.836  13.723  2.8367 -0.7883  2.5692
 1668TIP3   OH226418   1.242   2.491  12.713  0.4343 -0.1526  0.5214
 1668TIP3    H126419   1.285   2.544  12.780 -0.4675  2.2368 -0.7230
 1668TIP3    H226420   1.271   2.528  12.630 -1.7225 -0.3229 -0.3548
 1669TIP3   OH226421   1.527   1.951  16.925 -0.1256 -0.4317  0.7467
 1669TIP3    H126422   1.490   1.976  17.009 -0.2987  1.3704  0.1563
 1669TIP3    H226423   1.456   1.904  16.881 -1.9518  3.3443 -0.5343
 1670TIP3   OH226424   1.098   4.759   2.401 -0.2064 -0.1645  0.1505
 1670TIP3    H126425   1.045   4.757   2.481 -0.8100 -0.2351 -0.2404
 1670TIP3    H226426   1.126   4.668   2.389 -1.2811 -0.4373 -0.4622
 1671TIP3   OH226427   6.197   2.391   0.090  0.2300 -0.6308 -0.2107
 1671TIP3    H126428   6.226   2.428   0.007  2.7479 -1.6070  0.1677
 1671TIP3    H226429   6.264   2.419   0.153 -1.5937  0.0203  1.4744
 1672TIP3   OH226430   1.401   4.951  10.776  0.1516 -0.0753  0.7796
 1672TIP3    H126431   1.352   4.893  10.717  0.1509  0.3118  0.3923
 1672TIP3    H226432   1.433   4.894  10.846  0.1729 -0.5465  0.3877
 1673TIP3   OH226433   4.420   6.367   4.129 -0.3747 -0.8392  0.1919
 1673TIP3    H126434   4.473   6.433   4.173 -1.2903 -0.7961  1.2512
 1673TIP3    H226435   4.465   6.352   4.046 -0.2949  1.2982 -0.1711
 1674TIP3   OH226436   3.413   3.973   6.725 -0.4081 -0.0994  0.5797
 1674TIP3    H126437   3.438   4.034   6.794  0.3986 -1.3670  1.4214
 1674TIP3    H226438   3.486   3.974   6.663 -0.6090  0.1475  0.3445
 1675TIP3   OH226439   1.269   1.835   5.746  0.3654  0.9194 -0.3307
 1675TIP3    H126440   1.175   1.821   5.731  0.3629 -0.1055  0.6213
 1675TIP3    H226441   1.301   1.872   5.663 -0.8668  1.2302 -0.6770
 1676TIP3   OH226442   1.195   1.301  16.156  0.0040 -0.3573 -0.5232
 1676TIP3    H126443   1.170   1.210  16.143  1.6351 -0.7768 -0.7821
 1676TIP3    H226444   1.248   1.301  16.235  0.6558  0.2516 -0.9568
 1677TIP3   OH226445   5.498   0.413  13.655 -0.3738  0.2661 -0.4123
 1677TIP3    H126446   5.512   0.491  13.600  0.0160 -0.8409 -1.9120
 1677TIP3    H226447   5.403   0.407  13.663 -0.4205  0.6647 -0.6458
 1678TIP3   OH226448   4.175   6.569  11.766 -0.1984  0.2181 -0.2755
 1678TIP3    H126449   4.200   6.493  11.714  2.2993  1.2110 -0.5984
 1678TIP3    H226450   4.145   6.532  11.849  2.3790 -1.1135  0.1225
 1679TIP3   OH226451   6.023   4.865   0.282  0.1817 -0.1471  0.3826
 1679TIP3    H126452   6.091   4.806   0.251  1.0771  0.6276  0.8331
 1679TIP3    H226453   6.064   4.952   0.280 -0.0839  0.0590  2.6990
 1680TIP3   OH226454   1.117   4.130  13.819 -0.2195 -0.7297 -0.0527
 1680TIP3    H126455   1.084   4.081  13.895  0.9930 -0.4832  0.6426
 1680TIP3    H226456   1.199   4.086  13.796  0.3791  0.3549 -0.0363
 1681TIP3   OH226457   6.145   1.068   1.891 -0.0990  0.2706  0.2207
 1681TIP3    H126458   6.094   0.991   1.916  0.0542  0.1076  0.0347
 1681TIP3    H226459   6.097   1.142   1.927 -2.1394  0.3946 -2.5954
 1682TIP3   OH226460   0.037   1.095   4.037 -0.1936 -0.5202 -0.0940
 1682TIP3    H126461   0.124   1.106   4.076  0.8652 -2.5715 -1.7291
 1682TIP3    H226462   0.048   1.020   3.978 -2.7348  0.0767 -1.3581
 1683TIP3   OH226463   4.886   4.084   4.729 -0.4159 -0.2645  0.3126
 1683TIP3    H126464   4.893   4.171   4.768  1.8333 -0.0802 -0.4297
 1683TIP3    H226465   4.791   4.069   4.720 -0.8314  1.9265  0.8070
 1684TIP3   OH226466   0.444   5.393   0.968 -0.3551  0.3105 -0.4188
 1684TIP3    H126467   0.517   5.383   1.029 -0.7550 -0.9475 -0.1309
 1684TIP3    H226468   0.485   5.401   0.882  0.1350  0.2336 -0.1933
 1685TIP3   OH226469   0.748   2.298   4.720  1.0243  0.0050 -0.2774
 1685TIP3    H126470   0.793   2.269   4.800  0.5143 -2.8545 -0.9566
 1685TIP3    H226471   0.808   2.276   4.649 -0.5761 -2.1304 -1.0378
 1686TIP3   OH226472   0.327   5.015   0.056  0.5797  0.4800  0.3643
 1686TIP3    H126473   0.398   5.080   0.059  1.6874 -0.6903 -0.0220
 1686TIP3    H226474   0.349   4.959  -0.018 -0.1873 -0.5374  0.8907
 1687TIP3   OH226475   6.607   6.159   0.781  0.8586  0.1364  0.2953
 1687TIP3    H126476   6.586   6.077   0.826 -1.2445  1.0081  0.9591
 1687TIP3    H226477   6.629   6.219   0.852  2.4328  0.1451 -0.1958
 1688TIP3   OH226478   2.863   0.073   5.869  0.6858  0.1138  0.1902
 1688TIP3    H126479   2.836   0.123   5.947  0.2219 -0.2471  0.2662
 1688TIP3    H226480   2.947   0.112   5.844  2.8450 -2.3593  3.2242
 1689TIP3   OH226481   4.399   5.467   0.160  0.6792  0.2100  0.0954
 1689TIP3    H126482   4.372   5.513   0.080 -0.6898 -2.5590 -1.1005
 1689TIP3    H226483   4.479   5.512   0.187  0.7813  1.6642 -2.4448
 1690TIP3   OH226484   5.010   5.840  15.519 -0.8920  0.3781 -0.1071
 1690TIP3    H126485   4.943   5.899  15.485 -1.7953 -1.5313 -1.7959
 1690TIP3    H226486   4.969   5.753  15.515  1.8085 -0.8905 -1.5772
 1691TIP3   OH226487   2.509   1.855   4.101 -0.9113  0.2140 -0.0861
 1691TIP3    H126488   2.538   1.945   4.089  0.0901 -0.0430  0.3903
 1691TIP3    H226489   2.483   1.850   4.192  1.1615 -0.5678  0.4899
 1692TIP3   OH226490   0.919   1.294   5.444  0.3376  0.0782 -1.2258
 1692TIP3    H126491   0.825   1.310   5.441  0.1670 -0.9490 -1.7577
 1692TIP3    H226492   0.956   1.356   5.381 -0.0412  0.1218 -1.4082
 1693TIP3   OH226493   6.698   0.910   4.198 -0.1169  0.3668 -0.5468
 1693TIP3    H126494   6.785   0.868   4.194 -0.4591 -0.1351 -3.3083
 1693TIP3    H226495   6.706   0.988   4.144 -1.2557  0.5958 -0.3963
 1694TIP3   OH226496   4.411   3.617   3.567 -0.1426 -0.2527 -0.9077
 1694TIP3    H126497   4.411   3.697   3.620  0.2530 -0.7263 -0.1817
 1694TIP3    H226498   4.401   3.546   3.630 -1.1823 -0.7456 -1.6155
 1695TIP3   OH226499   5.339   0.784  11.840 -0.0715  0.4490 -0.0504
 1695TIP3    H126500   5.322   0.784  11.745 -0.2335 -0.7372 -0.0388
 1695TIP3    H226501   5.349   0.876  11.863 -2.7541  0.9688 -0.7379
 1696TIP3   OH226502   3.950   6.291  13.347  0.4394  0.3626  0.4864
 1696TIP3    H126503   3.985   6.331  13.268 -2.1704 -0.1072 -0.9585
 1696TIP3    H226504   4.019   6.303  13.413  2.5289  1.0035 -1.7564
 1697TIP3   OH226505   1.499   1.641  15.147 -0.2171 -0.7505 -0.1476
 1697TIP3    H126506   1.516   1.711  15.210  1.6643 -0.7185 -0.6634
 1697TIP3    H226507   1.552   1.665  15.071 -0.0905 -2.3825 -0.5749
 1698TIP3   OH226508   6.489   3.715  14.323 -0.1788  0.1346  0.5646
 1698TIP3    H126509   6.468   3.806  14.299  0.1683 -0.3075 -1.5399
 1698TIP3    H226510   6.582   3.717  14.343 -0.7011  0.7267  3.0330
 1699TIP3   OH226511   5.535   1.242  17.062  0.0985  0.0156  0.3687
 1699TIP3    H126512   5.608   1.181  17.078 -0.6961 -1.2747 -0.7918
 1699TIP3    H226513   5.577   1.322  17.030  1.0637 -0.4021  0.5637
 1700TIP3   OH226514   3.820   6.367  13.740  0.0911  0.2562  0.1862
 1700TIP3    H126515   3.788   6.400  13.656 -1.4523 -0.6301  0.4012
 1700TIP3    H226516   3.833   6.446  13.793 -0.5468  0.7156 -0.3279
 1701TIP3   OH226517   4.126   3.871  13.611  0.2155 -0.2706  0.0578
 1701TIP3    H126518   4.104   3.946  13.665  1.5324  0.1004  0.0962
 1701TIP3    H226519   4.222   3.867  13.613  0.1310 -3.0500  1.5726
 1702TIP3   OH226520   2.913   1.630  14.667  0.2505  0.3023 -0.4033
 1702TIP3    H126521   2.884   1.548  14.705  2.7881 -0.6883 -0.5230
 1702TIP3    H226522   2.901   1.695  14.736  2.8005 -1.0829  1.4134
 1703TIP3   OH226523   1.093   4.753   3.442  0.1927  0.4740 -0.1346
 1703TIP3    H126524   1.109   4.846   3.430 -2.5120  0.7822 -1.8501
 1703TIP3    H226525   1.102   4.716   3.354 -0.4180 -0.5797  0.2373
 1704TIP3   OH226526   5.758   2.022  12.524 -0.3926  0.5563 -0.4778
 1704TIP3    H126527   5.663   2.016  12.514 -0.8620  2.1334  2.5273
 1704TIP3    H226528   5.773   2.007  12.617  2.2127  1.5006 -0.7196
 1705TIP3   OH226529   3.928   0.123   2.265  0.1646 -0.7601  0.1757
 1705TIP3    H126530   3.942   0.218   2.268 -2.2882 -0.3848  0.7953
 1705TIP3    H226531   3.925   0.102   2.172 -1.0814  0.0929  0.0022
 1706TIP3   OH226532   3.179   1.266   2.649  0.0062 -0.2218 -0.2399
 1706TIP3    H126533   3.140   1.191   2.603 -0.4968  0.3391 -0.7232
 1706TIP3    H226534   3.156   1.342   2.596  0.5958  0.2702  0.2047
 1707TIP3   OH226535   6.610   2.869   2.007  0.6871  0.3405  0.5595
 1707TIP3    H126536   6.622   2.855   2.101  1.3204 -0.2826  0.3914
 1707TIP3    H226537   6.520   2.900   1.998  0.0969 -1.1320  1.2187
 1708TIP3   OH226538   4.847   6.155  11.830  0.5489  0.1155  0.0561
 1708TIP3    H126539   4.781   6.124  11.767  3.1742  1.3242 -3.4563
 1708TIP3    H226540   4.811   6.236  11.864 -0.0980  0.4699 -1.4021
 1709TIP3   OH226541   3.112   3.721   4.480 -0.1134 -0.2161  0.5263
 1709TIP3    H126542   3.113   3.706   4.386 -1.3238 -0.4390  0.5387
 1709TIP3    H226543   3.019   3.727   4.502  0.1630 -0.2143  1.7139
 1710TIP3   OH226544   2.376   2.602   6.142  0.6461  0.0168 -0.1186
 1710TIP3    H126545   2.416   2.600   6.228  1.2165 -1.3640 -0.3979
 1710TIP3    H226546   2.282   2.611   6.159  0.7920  0.1554  0.6255
 1711TIP3   OH226547   0.022   4.102  12.818  0.3629 -0.0159  0.5027
 1711TIP3    H126548  -0.021   4.114  12.903  0.1545 -1.3680  0.6043
 1711TIP3    H226549  -0.049   4.108  12.754  0.4373  0.4680  0.4676
 1712TIP3   OH226550   5.362   0.737   6.057 -0.1036  0.2219 -0.0229
 1712TIP3    H126551   5.332   0.648   6.075  0.2014  0.4939  2.0372
 1712TIP3    H226552   5.413   0.760   6.135  1.6304  1.4099 -1.4640
 1713TIP3   OH226553   0.055   0.327  13.123  0.4551 -0.3122  0.3788
 1713TIP3    H126554   0.055   0.231  13.128 -0.2052 -0.4570 -1.9130
 1713TIP3    H226555  -0.037   0.351  13.117  0.6856  0.3923 -0.4020
 1714TIP3   OH226556   5.754   3.717   6.196  0.3976  0.7073  0.0412
 1714TIP3    H126557   5.738   3.788   6.257  0.2620  0.6984  0.0160
 1714TIP3    H226558   5.670   3.673   6.188  0.3546  0.8562 -0.3364
 1715TIP3   OH226559   3.952   3.725  11.210 -0.2298 -0.2499 -0.4145
 1715TIP3    H126560   4.045   3.708  11.218 -0.0057  0.7345 -0.9103
 1715TIP3    H226561   3.940   3.757  11.121 -0.8351  0.9362  0.0749
 1716TIP3   OH226562   5.547   0.651   3.042  0.1088  0.2526 -0.5643
 1716TIP3    H126563   5.626   0.606   3.073  1.0650  1.8033 -0.7293
 1716TIP3    H226564   5.556   0.650   2.946 -1.5737 -2.2389 -0.7463
 1717TIP3   OH226565   0.093   6.660   4.165 -0.1393  0.3744  0.1269
 1717TIP3    H126566   0.022   6.724   4.174 -0.2272  0.2717  0.1742
 1717TIP3    H226567   0.052   6.587   4.118 -0.8538 -0.9045  2.6532
 1718TIP3   OH226568   1.430   4.594   5.079  0.3775 -0.4874  0.2106
 1718TIP3    H126569   1.447   4.544   4.999 -1.3026 -0.1494 -0.3820
 1718TIP3    H226570   1.457   4.536   5.150 -1.7117 -2.3184 -0.4574
 1719TIP3   OH226571   1.424   3.251   3.473 -0.4300 -0.0128  0.2956
 1719TIP3    H126572   1.455   3.244   3.383  3.1997  0.8748  1.4088
 1719TIP3    H226573   1.430   3.162   3.508  1.3120  0.2193  0.6172
 1720TIP3   OH226574   1.746   6.499   0.768 -0.7528  0.1940  0.4429
 1720TIP3    H126575   1.761   6.409   0.796  0.4001  0.7796  1.7986
 1720TIP3    H226576   1.739   6.549   0.849  3.1537  2.0210 -0.1753
 1721TIP3   OH226577   4.455   2.081   1.262  0.2008 -0.3898 -0.7103
 1721TIP3    H126578   4.464   2.154   1.323 -1.7800 -0.3916 -0.3957
 1721TIP3    H226579   4.528   2.092   1.200  1.2032  0.5843  0.6210
 1722TIP3   OH226580   4.648   5.566  16.197 -0.0242 -0.0465  0.0041
 1722TIP3    H126581   4.667   5.636  16.135  0.3814 -0.1423  0.0228
 1722TIP3    H226582   4.676   5.486  16.152  0.2460 -0.1185  0.3031
 1723TIP3   OH226583   2.700   2.710  15.970 -0.6735  0.4772  0.3683
 1723TIP3    H126584   2.632   2.739  15.908  2.0206  2.9568 -1.5543
 1723TIP3    H226585   2.735   2.630  15.932 -1.2593  0.1923  0.4179
 1724TIP3   OH226586   0.306   5.933  13.426  0.2686  0.3478  0.0789
 1724TIP3    H126587   0.268   6.014  13.392 -1.4053  0.9180  3.1372
 1724TIP3    H226588   0.371   5.962  13.490  1.1656 -0.7248 -0.3247
 1725TIP3   OH226589   0.009   1.458  12.277  0.1904  0.4932 -0.1443
 1725TIP3    H126590  -0.011   1.544  12.240 -2.7648 -0.8423 -1.8577
 1725TIP3    H226591   0.103   1.449  12.268  0.1415  2.2615 -2.9338
 1726TIP3   OH226592   2.419   2.466  15.110 -0.4646  0.7750 -0.0480
 1726TIP3    H126593   2.404   2.383  15.064 -2.5911  2.3746 -2.3553
 1726TIP3    H226594   2.506   2.493  15.082  0.4145 -0.8240  1.0265
 1727TIP3   OH226595   4.867   5.606  14.350 -0.0962  0.1509  0.6339
 1727TIP3    H126596   4.812   5.684  14.344  1.4959  1.1297 -2.4697
 1727TIP3    H226597   4.936   5.629  14.411 -1.5659 -0.1080  2.4202
 1728TIP3   OH226598   3.101   3.181   3.275  0.4262 -0.2707  0.3413
 1728TIP3    H126599   3.194   3.201   3.261  0.5146  0.2852  1.5991
 1728TIP3    H226600   3.057   3.219   3.200  1.0346  1.1292  0.6661
 1729TIP3   OH226601   6.388   5.261  12.864 -0.3628  0.5102  0.0575
 1729TIP3    H126602   6.314   5.298  12.912  0.6596  1.6864  0.7696
 1729TIP3    H226603   6.447   5.335  12.849  1.0378 -0.5406  0.2120
 1730TIP3   OH226604   2.366   0.788   4.425  0.2832 -0.3214 -0.3489
 1730TIP3    H126605   2.354   0.882   4.437  0.2353 -0.6089  2.2192
 1730TIP3    H226606   2.459   0.778   4.406  0.6843  0.1304  1.2561
 1731TIP3   OH226607   6.290   4.867   0.562 -0.3993  0.0013  0.5274
 1731TIP3    H126608   6.275   4.773   0.553  0.2398 -0.3209  2.4839
 1731TIP3    H226609   6.229   4.908   0.501 -1.4043 -1.6439  0.4201
 1732TIP3   OH226610   0.497   0.942  16.693  0.1916 -0.2914 -0.0322
 1732TIP3    H126611   0.475   0.860  16.736 -0.9490  0.4188  0.7617
 1732TIP3    H226612   0.463   1.010  16.751  2.8383  0.8163  0.3091
 1733TIP3   OH226613   0.064   1.322   4.555  0.1760 -0.1962 -0.1463
 1733TIP3    H126614   0.041   1.415   4.562  1.0231 -0.1648  2.8337
 1733TIP3    H226615   0.017   1.292   4.477  0.3912  2.8539 -1.5340
 1734TIP3   OH226616   2.527   3.099   6.018  0.5196  0.5772  0.4106
 1734TIP3    H126617   2.479   3.016   6.029  0.6236  0.3978 -0.4291
 1734TIP3    H226618   2.461   3.161   5.989  0.8546  0.2281 -1.1520
 1735TIP3   OH226619   5.150   4.324  16.592 -0.1103  0.0182 -0.3609
 1735TIP3    H126620   5.202   4.314  16.512 -0.9403 -2.6904 -0.6138
 1735TIP3    H226621   5.059   4.325  16.562 -0.3557  1.6426  0.3549
 1736TIP3   OH226622   2.274   3.471   1.282  1.1273  0.4424 -0.0795
 1736TIP3    H126623   2.363   3.468   1.317  1.3548  0.7993 -0.6308
 1736TIP3    H226624   2.278   3.422   1.200  0.0304 -2.6427  1.5911
 1737TIP3   OH226625   2.454   6.003  12.427 -0.0418  0.0330 -0.2594
 1737TIP3    H126626   2.449   6.065  12.500 -0.4479  0.5046 -0.6889
 1737TIP3    H226627   2.484   6.056  12.353 -1.4899 -0.0450 -0.9113
 1738TIP3   OH226628   5.505   5.781  14.169  0.4101 -0.1610 -0.3839
 1738TIP3    H126629   5.443   5.783  14.242  0.5065  0.6189 -0.3130
 1738TIP3    H226630   5.500   5.869  14.132  1.1029 -0.2512 -0.6924
 1739TIP3   OH226631   3.577   1.475   4.951 -0.0212  0.7414  0.0491
 1739TIP3    H126632   3.580   1.383   4.925 -0.0645  0.2553  1.7459
 1739TIP3    H226633   3.489   1.487   4.986  1.2762  0.3555  3.6483
 1740TIP3   OH226634   4.622   6.244  15.077 -0.1911  0.2226 -0.0543
 1740TIP3    H126635   4.706   6.198  15.085 -0.2307 -0.0639 -1.2752
 1740TIP3    H226636   4.557   6.175  15.076 -0.1389  0.1363 -3.7577
 1741TIP3   OH226637   1.713   0.832  15.866  0.6418  0.1926  0.5020
 1741TIP3    H126638   1.715   0.744  15.830  0.5507  0.7436 -0.8601
 1741TIP3    H226639   1.702   0.889  15.790 -0.2089  1.3176  1.4591
 1742TIP3   OH226640   2.613   0.018  11.541 -0.1200 -0.1673  0.2467
 1742TIP3    H126641   2.574   0.043  11.457 -0.7787 -0.8375  0.3516
 1742TIP3    H226642   2.538  -0.006  11.596  0.3442 -0.1871  0.8755
 1743TIP3   OH226643   6.339   1.460   4.162 -0.8521 -0.0858  0.1455
 1743TIP3    H126644   6.422   1.458   4.115 -1.2612  0.0339 -0.5909
 1743TIP3    H226645   6.364   1.470   4.254 -0.0981  1.3877 -0.2010
 1744TIP3   OH226646   2.757   6.702  16.985 -0.2107  0.6369  0.1596
 1744TIP3    H126647   2.751   6.617  17.028  0.6912 -0.3405 -1.5867
 1744TIP3    H226648   2.752   6.766  17.056  2.5566 -0.9600  1.8541
 1745TIP3   OH226649   3.154   1.509   1.529  0.2572  0.8455  0.2729
 1745TIP3    H126650   3.077   1.551   1.567 -1.1461 -0.3987 -1.1201
 1745TIP3    H226651   3.122   1.470   1.448  2.3080  0.0737 -0.1891
 1746TIP3   OH226652   5.638   6.198  10.497 -0.8398 -0.0412 -0.0850
 1746TIP3    H126653   5.705   6.267  10.503 -0.3154 -0.6524  1.5881
 1746TIP3    H226654   5.686   6.122  10.463 -1.4984  0.4925 -2.2792
 1747TIP3   OH226655   1.563   4.412  13.814  0.0810 -0.3679  0.3155
 1747TIP3    H126656   1.593   4.327  13.846  1.2578 -0.7397 -1.7348
 1747TIP3    H226657   1.546   4.399  13.721 -3.1465  0.7599  0.6637
 1748TIP3   OH226658   5.320   6.696   0.389 -0.0568 -0.0317 -0.1587
 1748TIP3    H126659   5.259   6.765   0.416 -0.1063  0.4658 -1.5241
 1748TIP3    H226660   5.266   6.618   0.381  0.0337 -0.3026  1.5911
 1749TIP3   OH226661   3.857   3.903   3.365  0.0597 -0.1291 -0.0133
 1749TIP3    H126662   3.904   3.855   3.434 -0.5904 -0.8864 -0.0968
 1749TIP3    H226663   3.861   3.846   3.289 -1.8383 -0.6403  0.2504
 1750TIP3   OH226664   1.278   4.555  12.128 -0.4645 -0.6386 -0.8176
 1750TIP3    H126665   1.240   4.614  12.193 -0.2554 -1.0134 -0.3449
 1750TIP3    H226666   1.293   4.610  12.051  0.0938  0.0184 -0.2473
 1751TIP3   OH226667   1.495   4.868  14.491 -0.0543  0.4270  0.2642
 1751TIP3    H126668   1.586   4.841  14.474 -0.2332 -1.1268  1.6600
 1751TIP3    H226669   1.460   4.889  14.405  0.5777 -2.4032 -0.7417
 1752TIP3   OH226670   1.146   4.382   1.480  0.1114  0.3096  0.1645
 1752TIP3    H126671   1.198   4.422   1.550  0.1510 -0.8324  0.7897
 1752TIP3    H226672   1.163   4.437   1.403 -1.4614  2.7507  1.4919
 1753TIP3   OH226673   2.337   1.833  10.540  0.0460  0.2055 -0.0104
 1753TIP3    H126674   2.256   1.793  10.508  0.3722 -0.3926 -0.0870
 1753TIP3    H226675   2.320   1.928  10.536  0.4090  0.1821 -2.8374
 1754TIP3   OH226676   4.520   0.006  13.189  0.0652 -0.0392 -0.0739
 1754TIP3    H126677   4.548   0.098  13.187 -0.6571  0.2565  2.0592
 1754TIP3    H226678   4.593  -0.040  13.230  0.0007 -0.2401 -0.1860
 1755TIP3   OH226679   1.998   4.283   4.976  0.3541  0.1926  0.0319
 1755TIP3    H126680   1.987   4.228   5.053 -0.2602  0.2473 -0.0136
 1755TIP3    H226681   1.909   4.295   4.943  0.7586 -1.2950 -1.7019
 1756TIP3   OH226682   1.157   1.950   4.671 -0.2308  0.1069 -0.1267
 1756TIP3    H126683   1.202   1.974   4.590 -0.8660  0.9792 -0.2296
 1756TIP3    H226684   1.168   2.026   4.728  0.0044 -0.4048  0.5261
 1757TIP3   OH226685   5.652   1.402   5.991  0.2460 -0.0630  0.5929
 1757TIP3    H126686   5.617   1.435   5.908  2.0757  1.2249  0.2912
 1757TIP3    H226687   5.593   1.439   6.058  0.1058  0.7671  0.0144
 1758TIP3   OH226688   1.154   5.027  14.636  0.0431 -0.1556  0.0835
 1758TIP3    H126689   1.231   5.052  14.586 -0.7243  1.3480 -0.3563
 1758TIP3    H226690   1.083   5.079  14.600 -0.9296 -0.5465  1.3742
 1759TIP3   OH226691   6.094   6.722  12.624  0.0160  0.0817 -0.0810
 1759TIP3    H126692   6.157   6.789  12.651  0.5937 -1.8888  3.8889
 1759TIP3    H226693   6.130   6.686  12.543  2.4175  1.0867  0.5038
 1760TIP3   OH226694   5.863   0.762   2.156  0.1297 -0.0714 -0.3619
 1760TIP3    H126695   5.853   0.677   2.199  0.2058  0.9489  1.7153
 1760TIP3    H226696   5.776   0.780   2.119  0.3220 -1.3935 -1.5361
 1761TIP3   OH226697   4.569   0.552  13.509 -0.1280  0.2213 -0.0470
 1761TIP3    H126698   4.586   0.497  13.433  0.1966 -0.5765  0.5848
 1761TIP3    H226699   4.570   0.642  13.476  1.2692 -0.0458 -0.7616
 1762TIP3   OH226700   2.541   4.095  14.252 -0.4034  0.2720  0.2774
 1762TIP3    H126701   2.469   4.080  14.313  0.5335 -0.5091  1.2158
 1762TIP3    H226702   2.522   4.180  14.212 -1.1837  0.6611  1.4521
 1763TIP3   OH226703   4.059   5.252  11.718 -0.0349  0.3523  0.1112
 1763TIP3    H126704   4.086   5.312  11.788  2.8066  0.9277 -1.3730
 1763TIP3    H226705   4.000   5.304  11.664  0.7868  1.1637 -0.0253
 1764TIP3   OH226706   1.413   5.187  16.907 -0.2426  0.7626  0.1075
 1764TIP3    H126707   1.424   5.270  16.861  1.2802  0.4971 -0.0436
 1764TIP3    H226708   1.466   5.125  16.857 -0.9613 -0.1818  0.5164
 1765TIP3   OH226709   3.937   5.701  16.398 -0.3751 -0.4836  0.2749
 1765TIP3    H126710   4.014   5.672  16.447 -0.3431  1.0123  1.1302
 1765TIP3    H226711   3.972   5.761  16.332 -0.6075 -1.2326 -0.5384
 1766TIP3   OH226712   1.521   1.390   1.405 -0.6322  0.0966  0.5889
 1766TIP3    H126713   1.568   1.368   1.325 -2.0859  1.7194 -0.7460
 1766TIP3    H226714   1.452   1.323   1.412 -1.4916  0.8686 -0.3857
 1767TIP3   OH226715   3.363   1.441   0.012 -0.0720  0.3096  0.2439
 1767TIP3    H126716   3.322   1.512  -0.037 -0.4390 -1.8674 -2.8130
 1767TIP3    H226717   3.292   1.404   0.065 -0.8227 -0.0505 -0.9713
 1768TIP3   OH226718   4.540   2.012   4.698 -0.9906  0.0077  0.1160
 1768TIP3    H126719   4.612   2.052   4.746  0.1990 -1.3245 -0.5542
 1768TIP3    H226720   4.530   2.067   4.620 -0.6405  0.1246  0.1535
 1769TIP3   OH226721   5.279   2.801   3.813 -1.0136 -0.5850 -0.0426
 1769TIP3    H126722   5.294   2.858   3.737 -2.0669  1.2835  1.1016
 1769TIP3    H226723   5.202   2.749   3.789 -1.4350  0.1014 -0.1928
 1770TIP3   OH226724   2.767   2.739   4.504  0.7808  0.0035  0.3100
 1770TIP3    H126725   2.822   2.815   4.489 -0.0443  0.7618  1.1342
 1770TIP3    H226726   2.733   2.749   4.592 -0.0629 -0.8512  0.1013
 1771TIP3   OH226727   5.563   6.487  13.613  0.2832 -0.4211  0.3903
 1771TIP3    H126728   5.596   6.407  13.654  0.4851 -0.2338  0.5906
 1771TIP3    H226729   5.642   6.538  13.594  0.1298 -0.1096  0.5893
 1772TIP3   OH226730   6.375   3.467  16.734  0.7147  0.1861 -0.4978
 1772TIP3    H126731   6.338   3.551  16.762  1.8255 -0.0338  1.7926
 1772TIP3    H226732   6.300   3.408  16.730  0.4636  0.2358  2.1732
 1773TIP3   OH226733   3.601   4.549   3.404  1.1251  0.1016 -0.1106
 1773TIP3    H126734   3.566   4.580   3.321 -2.5258 -2.5713  0.3060
 1773TIP3    H226735   3.640   4.464   3.383  0.1930 -0.5811  0.9089
 1774TIP3   OH226736   4.959   6.749  12.647  0.0319 -0.8526  0.1075
 1774TIP3    H126737   4.968   6.702  12.564  1.4014  0.3826 -0.4542
 1774TIP3    H226738   4.940   6.839  12.621 -0.5071 -0.6599  1.1603
 1775TIP3   OH226739   1.778   4.654  13.216 -0.1025  0.3111  0.0797
 1775TIP3    H126740   1.872   4.636  13.212 -0.2842 -0.2058 -3.0223
 1775TIP3    H226741   1.739   4.593  13.154 -2.6836 -0.4967  2.4331
 1776TIP3   OH226742   6.596   1.047   0.305  0.1753 -0.1395 -0.6061
 1776TIP3    H126743   6.588   0.983   0.377 -1.0068 -1.5120 -1.9178
 1776TIP3    H226744   6.518   1.102   0.315  0.1867 -0.1199 -0.6285
 1777TIP3   OH226745   1.451   4.059   2.252 -0.4582  0.7112  0.0171
 1777TIP3    H126746   1.485   4.140   2.213  0.5355 -0.3234 -1.3530
 1777TIP3    H226747   1.511   3.991   2.221 -2.2918 -0.8129 -0.3027
 1778TIP3   OH226748   4.409   3.866  16.234 -0.3984  0.5976 -0.1539
 1778TIP3    H126749   4.409   3.788  16.290 -0.7364  0.4765 -0.3160
 1778TIP3    H226750   4.384   3.938  16.292  1.0084  0.7693  0.2411
 1779TIP3   OH226751   5.242   4.910   3.419  0.0117  0.2937 -0.2960
 1779TIP3    H126752   5.259   4.980   3.356  0.3486  0.7443  0.2854
 1779TIP3    H226753   5.169   4.861   3.381  1.5160 -0.6612 -2.0364
 1780TIP3   OH226754   0.985   6.669  16.022  0.5117 -0.5650 -0.3660
 1780TIP3    H126755   0.982   6.764  16.033 -1.0771 -0.7135  0.7427
 1780TIP3    H226756   1.070   6.643  16.058  0.6805  0.3737 -0.0898
 1781TIP3   OH226757   2.288   1.939   0.649 -0.3659 -0.0213 -0.2457
 1781TIP3    H126758   2.222   2.006   0.666 -0.8150 -0.8414  1.3855
 1781TIP3    H226759   2.250   1.885   0.579 -0.1673  1.1808 -1.2923
 1782TIP3   OH226760   5.263   5.849   4.908  0.0716 -0.1495  0.2631
 1782TIP3    H126761   5.253   5.754   4.906  0.5439 -0.2090  0.6294
 1782TIP3    H226762   5.234   5.878   4.822 -1.0854 -0.5237  0.5137
 1783TIP3   OH226763   3.910   2.036   5.757 -0.4103  0.2114 -0.5467
 1783TIP3    H126764   3.984   2.083   5.796 -0.2882  0.1382 -0.6881
 1783TIP3    H226765   3.838   2.098   5.761 -0.1613  0.5433 -1.0482
 1784TIP3   OH226766   6.021   5.356  12.823  0.0729 -0.0129 -0.1196
 1784TIP3    H126767   6.039   5.429  12.763 -0.6281 -0.6987 -1.1854
 1784TIP3    H226768   6.077   5.373  12.899  1.5651  0.4631 -1.2992
 1785TIP3   OH226769   6.121   3.412  16.766 -0.4104 -0.2857 -0.0965
 1785TIP3    H126770   6.072   3.417  16.684  0.1667 -0.6369 -0.4720
 1785TIP3    H226771   6.089   3.485  16.818  0.0274  0.6366 -1.0948
 1786TIP3   OH226772   4.232   3.288   3.209  0.0229  0.3924 -0.2400
 1786TIP3    H126773   4.221   3.209   3.156  1.0255  0.3943 -0.4417
 1786TIP3    H226774   4.210   3.360   3.150  1.2750  0.4036 -0.6887
 1787TIP3   OH226775   1.905   3.019  13.094 -0.2789 -0.1156  0.0620
 1787TIP3    H126776   2.001   3.026  13.096 -0.1998 -1.2606  1.1604
 1787TIP3    H226777   1.882   2.985  13.181 -1.6890  0.2089 -0.1766
 1788TIP3   OH226778   4.539   0.138  16.682  0.2265  0.0626  0.2843
 1788TIP3    H126779   4.563   0.231  16.682  0.0603  0.1125  1.6663
 1788TIP3    H226780   4.604   0.097  16.739  0.4211 -0.7126 -0.4783
 1789TIP3   OH226781   4.552   3.149  15.032 -0.2324 -0.2193  0.0937
 1789TIP3    H126782   4.517   3.210  14.967 -0.7289  0.0008  0.5577
 1789TIP3    H226783   4.475   3.108  15.070 -0.1149  1.5555  2.3784
 1790TIP3   OH226784   2.661   0.384  12.684 -0.0602 -0.1680 -0.3791
 1790TIP3    H126785   2.629   0.430  12.606  0.7823  1.2841  0.1194
 1790TIP3    H226786   2.597   0.314  12.698 -2.2629  1.8336 -0.1904
 1791TIP3   OH226787   1.661   5.612  11.191  0.4975  0.7541  0.9175
 1791TIP3    H126788   1.680   5.627  11.099  1.4947 -1.9248  0.6496
 1791TIP3    H226789   1.609   5.532  11.193 -0.3296  1.2950  2.6173
 1792TIP3   OH226790   3.414   2.447  12.718 -0.5296  0.4800 -0.0602
 1792TIP3    H126791   3.373   2.380  12.664 -0.1896 -0.1488  0.4509
 1792TIP3    H226792   3.485   2.482  12.664 -0.5051  0.1990 -0.2063
 1793TIP3   OH226793   4.863   3.252   6.757  0.3217 -0.2796  0.2155
 1793TIP3    H126794   4.826   3.329   6.800 -0.9357 -1.2004  0.8201
 1793TIP3    H226795   4.945   3.235   6.803 -0.4017 -0.5151  1.4105
 1794TIP3   OH226796   3.274   4.050   3.229  0.0302  0.1944 -0.2377
 1794TIP3    H126797   3.221   4.129   3.241 -0.8260 -0.3666 -0.3607
 1794TIP3    H226798   3.359   4.084   3.201 -0.0026  1.1352  0.7367
 1795TIP3   OH226799   0.715   1.086  11.958  0.2877  0.3358 -0.0330
 1795TIP3    H126800   0.810   1.096  11.956  0.3951 -0.3632  1.3546
 1795TIP3    H226801   0.700   0.997  11.989 -0.8242  0.3965 -0.3602
 1796TIP3   OH226802   0.121   0.273   5.234  0.6231  0.1289  0.1499
 1796TIP3    H126803   0.146   0.197   5.286  1.2007 -0.8640 -1.5755
 1796TIP3    H226804   0.074   0.329   5.297  0.5126 -1.4478  1.5314
 1797TIP3   OH226805   5.041   1.543  12.441 -0.3808 -0.2313  0.3490
 1797TIP3    H126806   5.056   1.624  12.392 -1.9123  0.6776  1.3336
 1797TIP3    H226807   5.000   1.483  12.379  0.3328 -0.1092 -0.2526
 1798TIP3   OH226808   0.566   0.724  12.311 -0.7901  0.0761 -0.7170
 1798TIP3    H126809   0.551   0.811  12.348  0.8991  0.5441 -1.0789
 1798TIP3    H226810   0.492   0.672  12.340 -0.3009  0.8411  1.9965
 1799TIP3   OH226811   2.615   5.899   2.561 -0.2932 -0.0904  0.1833
 1799TIP3    H126812   2.559   5.946   2.622  2.6061  2.0148  1.3426
 1799TIP3    H226813   2.585   5.926   2.474  0.3381  2.8158  0.8094
 1800TIP3   OH226814   6.565   4.600   0.524 -0.0509 -0.3404 -0.4122
 1800TIP3    H126815   6.529   4.623   0.609 -0.1596 -0.5958 -0.3872
 1800TIP3    H226816   6.657   4.578   0.542  0.5967  2.0090 -0.7510
 1801TIP3   OH226817   1.519   5.933  14.637 -0.1419 -0.0521  0.0815
 1801TIP3    H126818   1.452   5.992  14.672  1.0131  1.3014  0.0693
 1801TIP3    H226819   1.559   5.982  14.565  2.1003 -0.0674  1.2606
 1802TIP3   OH226820   5.228   1.225   4.381  0.2725  0.1065 -0.3647
 1802TIP3    H126821   5.287   1.224   4.306 -1.2735 -0.0560 -1.6149
 1802TIP3    H226822   5.179   1.307   4.372 -0.2876 -0.1635  0.1637
 1803TIP3   OH226823   5.437   0.349   2.373  0.2359  0.1742  0.1004
 1803TIP3    H126824   5.402   0.274   2.324  1.9867  0.2267 -1.2746
 1803TIP3    H226825   5.456   0.314   2.460 -0.1659 -0.6576 -0.1437
 1804TIP3   OH226826   2.923   3.316   1.583  0.1586  0.0499 -0.1212
 1804TIP3    H126827   2.950   3.403   1.614  0.1941  0.9722 -2.6324
 1804TIP3    H226828   2.863   3.284   1.650 -0.5572  2.4015  0.4107
 1805TIP3   OH226829   4.623   6.086   3.215 -0.4688  0.2130  0.8481
 1805TIP3    H126830   4.716   6.106   3.229 -0.0945 -0.8320 -0.0198
 1805TIP3    H226831   4.622   6.034   3.135 -1.6850 -0.8025  1.5100
 1806TIP3   OH226832   2.413   3.662  14.975 -0.0302  0.3158  0.2950
 1806TIP3    H126833   2.469   3.718  15.029  0.8893 -1.4734  1.2286
 1806TIP3    H226834   2.324   3.693  14.993  0.5612  2.7993 -0.7629
 1807TIP3   OH226835   1.019   6.220  11.332 -0.2108  0.2505 -0.4124
 1807TIP3    H126836   1.019   6.279  11.407  1.7937  2.2960 -1.9418
 1807TIP3    H226837   1.034   6.133  11.369 -1.8056  0.8606  1.7532
 1808TIP3   OH226838   0.005   4.828  14.086 -0.1379 -0.1415  0.0838
 1808TIP3    H126839   0.009   4.741  14.127 -0.1916 -0.5603 -0.8045
 1808TIP3    H226840   0.002   4.811  13.992 -3.5502  0.6959 -0.0243
 1809TIP3   OH226841   2.531   1.437   5.015 -0.1473  0.1446  0.1392
 1809TIP3    H126842   2.456   1.413   5.069  0.1000 -1.4877 -0.2045
 1809TIP3    H226843   2.598   1.372   5.038  0.8880  1.1012 -0.1338
 1810TIP3   OH226844   3.926   6.500  10.398 -0.4536  0.0011  0.1553
 1810TIP3    H126845   3.961   6.454  10.474 -0.4185  0.5116  0.4470
 1810TIP3    H226846   3.942   6.592  10.415  2.3443 -0.0389 -1.8599
 1811TIP3   OH226847   3.405   4.367   4.074 -0.1675  0.0670 -0.4766
 1811TIP3    H126848   3.401   4.279   4.036  0.7424 -0.1562 -0.0651
 1811TIP3    H226849   3.477   4.410   4.027 -0.8326  0.7239 -0.9250
 1812TIP3   OH226850   5.955   0.974  14.302 -0.3643  0.4274 -0.0142
 1812TIP3    H126851   5.909   1.017  14.230 -0.6787  0.5198  0.2405
 1812TIP3    H226852   5.903   0.895  14.319  1.0262 -0.8218 -1.4611
 1813TIP3   OH226853   5.056   3.216   0.026  0.5308  0.1350  0.7458
 1813TIP3    H126854   5.053   3.277   0.100  1.3707 -0.0141  0.9077
 1813TIP3    H226855   5.139   3.234  -0.017 -0.9159  1.7803 -1.5188
 1814TIP3   OH226856   3.421   0.343  13.472  0.0771 -0.3301 -0.3738
 1814TIP3    H126857   3.470   0.328  13.553  1.6638 -0.1650 -1.2805
 1814TIP3    H226858   3.456   0.425  13.437 -2.9272  1.4044  0.4360
 1815TIP3   OH226859   2.718   4.202   6.050 -0.3233  0.3634  0.1846
 1815TIP3    H126860   2.681   4.120   6.017 -1.8680  1.6141 -1.2659
 1815TIP3    H226861   2.762   4.177   6.132 -0.8955 -1.8720 -0.1506
 1816TIP3   OH226862   4.119   1.758  12.366 -0.3129 -0.1430 -0.3611
 1816TIP3    H126863   4.098   1.821  12.435  0.0395 -0.1633 -0.2365
 1816TIP3    H226864   4.163   1.809  12.298  2.4292 -0.7307  0.9148
 1817TIP3   OH226865   5.320   3.730  15.200 -0.8181  0.3141 -0.3918
 1817TIP3    H126866   5.364   3.650  15.225  0.5663  1.7242  1.8528
 1817TIP3    H226867   5.374   3.800  15.237 -2.0195  2.2809 -2.2249
 1818TIP3   OH226868   6.515   5.551  16.095  0.1884  0.0645 -0.3285
 1818TIP3    H126869   6.567   5.512  16.025 -0.7539 -0.2007 -0.8947
 1818TIP3    H226870   6.507   5.643  16.070  0.2456  0.0696 -0.3267
 1819TIP3   OH226871   0.152   5.870   1.768 -0.6434  0.1279  0.4517
 1819TIP3    H126872   0.164   5.805   1.837 -1.1193 -1.3534 -0.8319
 1819TIP3    H226873   0.111   5.822   1.696  0.4707  1.4699 -1.1259
 1820TIP3   OH226874   1.137   2.870   4.406 -0.3073 -0.0821  0.2967
 1820TIP3    H126875   1.050   2.898   4.375 -0.8699 -2.0321  0.0477
 1820TIP3    H226876   1.119   2.818   4.484  0.7724  0.8310  1.1645
 1821TIP3   OH226877   5.938   1.628  11.878  0.1684  0.2428 -0.3497
 1821TIP3    H126878   6.013   1.643  11.820 -0.4847  0.3124 -1.1928
 1821TIP3    H226879   5.888   1.710  11.875  1.1132  0.9334  1.8066
 1822TIP3   OH226880   2.138   5.662   6.021  0.1180  0.1397  0.1945
 1822TIP3    H126881   2.185   5.583   6.046 -0.6776 -1.1959 -2.3273
 1822TIP3    H226882   2.046   5.635   6.016 -0.0354  0.9423 -1.6321
 1823TIP3   OH226883   4.996   2.466  17.229  0.3231 -0.5922 -0.4371
 1823TIP3    H126884   4.981   2.546  17.178 -0.2759 -0.1259  0.4626
 1823TIP3    H226885   4.914   2.418  17.223  0.4292 -0.7865 -0.3423
 1824TIP3   OH226886   4.208   1.582   2.312  0.1733  0.4953  0.6124
 1824TIP3    H126887   4.236   1.550   2.226  1.7870  0.1145  1.2674
 1824TIP3    H226888   4.183   1.504   2.360  0.5443  0.5742  0.9370
 1825TIP3   OH226889   3.669   5.717   2.033 -0.2830  0.6577  0.0207
 1825TIP3    H126890   3.576   5.737   2.025  0.0086  1.7406 -0.8538
 1825TIP3    H226891   3.689   5.663   1.957 -0.6999 -1.6514  1.4920
 1826TIP3   OH226892   4.801   1.939  16.375  0.0788 -0.3977 -0.4707
 1826TIP3    H126893   4.879   1.989  16.400 -0.6834  1.6205 -1.9418
 1826TIP3    H226894   4.738   1.956  16.445  0.4955 -0.9190  0.0332
 1827TIP3   OH226895   0.863   0.759   3.004 -0.1674  0.4072  0.4565
 1827TIP3    H126896   0.943   0.772   2.954 -1.5938  0.1317 -1.9303
 1827TIP3    H226897   0.884   0.687   3.064  1.4891  0.6341  0.1733
 1828TIP3   OH226898   1.075   3.108   1.744 -0.2708 -0.1458 -0.0940
 1828TIP3    H126899   1.137   3.077   1.679 -0.1512 -0.1904  0.0408
 1828TIP3    H226900   1.072   3.037   1.809 -1.3002 -0.6432 -0.6711
 1829TIP3   OH226901   0.539   1.733   3.808  0.2076  0.3940  0.1341
 1829TIP3    H126902   0.533   1.739   3.904 -2.8324  0.8445 -0.0113
 1829TIP3    H226903   0.535   1.640   3.789 -1.1342  0.3844  0.3960
 1830TIP3   OH226904   1.692   6.035   1.419  0.1954 -0.7760 -0.8928
 1830TIP3    H126905   1.787   6.045   1.429 -0.0106  0.3208  0.0463
 1830TIP3    H226906   1.671   6.087   1.342  0.1593  0.1424 -0.2671
 1831TIP3   OH226907   2.153   2.246   4.378 -0.4605  0.2215 -0.1775
 1831TIP3    H126908   2.106   2.291   4.448  0.2350 -1.1245  1.2174
 1831TIP3    H226909   2.134   2.295   4.299 -1.2058  1.8356  0.9893
 1832TIP3   OH226910   0.146   3.888   5.541 -0.0634  0.6572 -0.7130
 1832TIP3    H126911   0.241   3.875   5.538 -0.3753 -2.9040  1.9533
 1832TIP3    H226912   0.112   3.836   5.468 -0.0680  0.9657 -0.9325
 1833TIP3   OH226913   4.069   6.723   3.837  0.5514  0.5146 -0.0480
 1833TIP3    H126914   3.986   6.755   3.873  0.5838  0.3718  0.1552
 1833TIP3    H226915   4.130   6.727   3.911  0.8856  1.2225 -0.3665
 1834TIP3   OH226916   5.191   3.456   5.145 -0.3050 -0.6149  0.2535
 1834TIP3    H126917   5.115   3.412   5.107  0.8104 -1.4427 -1.0512
 1834TIP3    H226918   5.169   3.549   5.143 -0.4594 -0.6908 -1.9910
 1835TIP3   OH226919   3.724   1.386  11.283  0.0460  1.0734 -0.3299
 1835TIP3    H126920   3.799   1.328  11.287 -1.0635 -0.3356  0.6598
 1835TIP3    H226921   3.701   1.391  11.190  0.3542  0.1900 -0.4550
 1836TIP3   OH226922   2.084   5.288  10.537  0.1289  0.4307 -0.3344
 1836TIP3    H126923   2.117   5.207  10.499  0.2028  0.2968  0.0160
 1836TIP3    H226924   2.136   5.357  10.494  3.0867  0.0546  2.4467
 1837TIP3   OH226925   1.124   4.758   4.895 -0.0214 -0.3188 -0.4972
 1837TIP3    H126926   1.196   4.700   4.916 -1.1785 -1.4649  0.4009
 1837TIP3    H226927   1.122   4.822   4.966 -0.5076 -0.8978  0.0197
 1838TIP3   OH226928   1.085   3.807   1.356 -0.0569  0.0605 -0.2848
 1838TIP3    H126929   1.126   3.873   1.412  0.3588 -1.8477  1.6837
 1838TIP3    H226930   1.007   3.851   1.321 -0.7545  1.0758  2.3928
 1839TIP3   OH226931   4.985   3.018   4.170  0.3098 -0.0662  0.0972
 1839TIP3    H126932   4.983   3.093   4.231  0.5303 -0.2202  0.2949
 1839TIP3    H226933   4.997   2.942   4.227  2.8156 -0.0024 -0.3150
 1840TIP3   OH226934   4.197   4.824   5.204  0.1265 -0.3505  0.5118
 1840TIP3    H126935   4.211   4.729   5.214  1.9082 -0.2245 -0.4947
 1840TIP3    H226936   4.281   4.863   5.229 -0.5571  0.9633  0.7897
 1841TIP3   OH226937   2.628   0.794   4.696  0.3884  0.1860 -0.1032
 1841TIP3    H126938   2.533   0.804   4.690  0.2440 -1.2389 -0.4861
 1841TIP3    H226939   2.657   0.779   4.606  0.7631 -1.0398  0.2122
 1842TIP3   OH226940   5.106   5.058  16.017  0.1198 -0.5629  0.3341
 1842TIP3    H126941   5.097   5.105  16.100 -2.8244  0.0167 -0.2454
 1842TIP3    H226942   5.151   5.119  15.959  3.1633 -1.3728  1.7775
 1843TIP3   OH226943   0.441   6.142   4.359  0.2574 -0.4920 -0.2610
 1843TIP3    H126944   0.374   6.211   4.358  0.4704 -0.2705  0.4052
 1843TIP3    H226945   0.453   6.119   4.267 -2.1308 -1.9126 -0.2396
 1844TIP3   OH226946   6.012   6.091  12.861  0.0898  0.8369 -0.0181
 1844TIP3    H126947   5.924   6.072  12.894  0.2441  1.1637  0.5883
 1844TIP3    H226948   6.008   6.184  12.836 -0.1759  0.4635 -1.4074
 1845TIP3   OH226949   1.533   4.509   4.805  0.0017 -0.4041 -0.2193
 1845TIP3    H126950   1.445   4.481   4.780  0.2423 -1.2103 -0.1618
 1845TIP3    H226951   1.591   4.468   4.741  0.2646  0.8876 -0.8310
 1846TIP3   OH226952   3.290   5.526  15.067 -0.6763  0.5128 -0.9004
 1846TIP3    H126953   3.297   5.620  15.085 -0.3199  0.1516  0.9033
 1846TIP3    H226954   3.292   5.520  14.971  2.4073  2.1230 -1.0019
 1847TIP3   OH226955   2.771   4.949   5.064  0.0240  0.4315  0.2580
 1847TIP3    H126956   2.704   4.906   5.118  1.0864  0.7234  1.8606
 1847TIP3    H226957   2.752   5.042   5.073 -1.1028  0.4096 -1.6504
 1848TIP3   OH226958   2.857   4.910   1.685  0.1718  0.6534 -0.2903
 1848TIP3    H126959   2.880   4.877   1.598  2.0667 -1.1678  0.8341
 1848TIP3    H226960   2.764   4.889   1.694  0.3943 -0.8545 -1.1779
 1849TIP3   OH226961   5.152   1.323  13.108  0.6349  0.3066  0.3574
 1849TIP3    H126962   5.099   1.342  13.031 -0.2843  0.2804  0.9760
 1849TIP3    H226963   5.130   1.393  13.170  0.9682  0.0309  0.7933
 1850TIP3   OH226964   4.481   3.476  13.880 -0.0998 -0.2115 -0.1372
 1850TIP3    H126965   4.503   3.459  13.788 -2.7456 -0.0526 -0.8563
 1850TIP3    H226966   4.488   3.571  13.888 -2.1419  0.0271 -0.8518
 1851TIP3   OH226967   6.699   3.171   5.242  0.4985 -0.1929 -0.2899
 1851TIP3    H126968   6.711   3.257   5.284  0.5908  0.5105 -1.7402
 1851TIP3    H226969   6.788   3.142   5.221  0.4469 -0.5361 -0.0501
 1852TIP3   OH226970   0.651   6.449  14.760  0.2699 -0.3331 -0.2184
 1852TIP3    H126971   0.709   6.373  14.771 -0.1597 -0.6142  0.1528
 1852TIP3    H226972   0.600   6.451  14.841  0.2614  0.3424 -0.2408
 1853TIP3   OH226973   0.717   3.416  14.360 -0.1239  0.3450 -0.0106
 1853TIP3    H126974   0.791   3.386  14.306 -0.8671 -0.3281 -0.6703
 1853TIP3    H226975   0.756   3.480  14.420  0.8751  0.4949 -0.7910
 1854TIP3   OH226976   4.283   0.890  15.364 -0.1587  0.0448  0.2894
 1854TIP3    H126977   4.232   0.901  15.284  1.3778  0.6678 -0.6107
 1854TIP3    H226978   4.354   0.831  15.339 -0.4342 -0.8382  1.5431
 1855TIP3   OH226979   2.012   1.621  15.591 -0.2099  0.1020 -0.3515
 1855TIP3    H126980   2.069   1.568  15.646  0.1854  0.8867 -0.0066
 1855TIP3    H226981   1.930   1.627  15.640  0.3765  1.3922  0.4883
 1856TIP3   OH226982   2.627   3.525  11.669  0.3600  0.2412  0.3660
 1856TIP3    H126983   2.592   3.437  11.680  1.9491 -0.2314  1.8248
 1856TIP3    H226984   2.707   3.513  11.618 -0.7222  1.1388 -1.5962
 1857TIP3   OH226985   0.457   3.153   5.734 -0.2458 -0.0755  0.8091
 1857TIP3    H126986   0.446   3.204   5.654 -0.0301 -0.1108  0.7569
 1857TIP3    H226987   0.374   3.108   5.745 -0.1292 -0.4077  0.3633
 1858TIP3   OH226988   1.013   1.756  15.544 -0.3175 -0.1194 -0.1480
 1858TIP3    H126989   0.946   1.725  15.605 -1.1567  0.7997 -0.6063
 1858TIP3    H226990   0.988   1.718  15.460  0.6095 -1.0395 -0.0350
 1859TIP3   OH226991   3.507   4.081   5.716  0.2547 -0.8862 -0.3524
 1859TIP3    H126992   3.524   4.093   5.622  0.7351 -1.0304 -0.2835
 1859TIP3    H226993   3.562   4.006   5.741  1.9687  0.6476  0.5788
 1860TIP3   OH226994   0.654   2.215   6.290  0.2471  0.3710  0.0179
 1860TIP3    H126995   0.696   2.161   6.357 -1.0006 -0.3289  0.2676
 1860TIP3    H226996   0.584   2.261   6.336 -1.7646 -1.4402 -1.0715
 1861TIP3   OH226997   0.152   3.876  13.745  0.6763  0.2544  0.1355
 1861TIP3    H126998   0.120   3.957  13.784  0.1644  0.2203 -0.2110
 1861TIP3    H226999   0.206   3.904  13.672 -1.8740  0.2479 -1.8236
 1862TIP3   OH227000   3.416   4.009   2.053  0.0756 -0.3740  0.6169
 1862TIP3    H127001   3.430   3.920   2.021  1.2268  0.3744 -0.9797
 1862TIP3    H227002   3.421   4.001   2.149  1.8288 -1.7427  0.4340
 1863TIP3   OH227003   5.705   6.215  14.728  0.1979 -0.3035  0.8845
 1863TIP3    H127004   5.732   6.230  14.819  2.0944  3.8833 -0.2815
 1863TIP3    H227005   5.778   6.168  14.689  1.1539  1.4677  0.5129
 1864TIP3   OH227006   2.369   3.888  13.465 -0.1173  0.5759 -0.1214
 1864TIP3    H127007   2.347   3.801  13.433  5.1932 -1.2845  0.7469
 1864TIP3    H227008   2.312   3.901  13.540  0.2810 -3.0702  0.9290
 1865TIP3   OH227009   0.632   2.649  10.403 -0.6779 -0.4998  0.0553
 1865TIP3    H127010   0.702   2.709  10.380 -0.0441 -1.4855 -0.5961
 1865TIP3    H227011   0.586   2.693  10.475 -0.2396  0.7641 -0.4267
 1866TIP3   OH227012   6.432   6.064   4.041 -0.0152 -0.2059 -0.7666
 1866TIP3    H127013   6.350   6.079   3.994 -0.7866  0.0223  0.6149
 1866TIP3    H227014   6.473   5.990   3.996 -1.5872 -1.1484 -0.6829
 1867TIP3   OH227015   3.689   3.434   3.827  0.2106  0.1326  0.1006
 1867TIP3    H127016   3.611   3.407   3.876  0.4004 -1.3508 -0.3908
 1867TIP3    H227017   3.665   3.422   3.735  0.6674  0.6726 -0.0902
 1868TIP3   OH227018   4.092   2.346   3.955 -0.4116 -0.4483  0.6384
 1868TIP3    H127019   4.134   2.260   3.955  0.6965  0.0830  0.2040
 1868TIP3    H227020   4.057   2.356   4.044  0.6759 -0.7695  1.1106
 1869TIP3   OH227021   6.222   5.037  15.539  0.4463 -0.0898  0.0151
 1869TIP3    H127022   6.143   5.076  15.501 -0.8941 -1.2767  1.4824
 1869TIP3    H227023   6.245   4.965  15.481 -0.2788 -0.4964  0.2247
 1870TIP3   OH227024   6.587   2.699  11.604  0.1113 -0.0136 -0.5058
 1870TIP3    H127025   6.615   2.631  11.666  1.6862  0.4240 -0.7367
 1870TIP3    H227026   6.559   2.772  11.660  0.8573  0.1108 -0.2861
 1871TIP3   OH227027   4.099   0.882   6.503 -0.6673  0.1389  0.0422
 1871TIP3    H127028   4.011   0.877   6.541 -0.0552 -0.6439  1.3647
 1871TIP3    H227029   4.112   0.796   6.463  0.3858 -0.5697  1.8524
 1872TIP3   OH227030   6.515   0.889  16.414 -0.4155  0.4788 -0.0267
 1872TIP3    H127031   6.574   0.826  16.455 -0.2227 -1.2955 -2.8699
 1872TIP3    H227032   6.431   0.845  16.409 -0.8492  1.2924 -0.0384
 1873TIP3   OH227033   0.443   2.803  15.744 -0.3335  0.0431 -0.2879
 1873TIP3    H127034   0.454   2.877  15.685  1.8164 -1.6982 -2.1753
 1873TIP3    H227035   0.506   2.818  15.814  1.1893 -0.6844 -1.4533
 1874TIP3   OH227036   2.151   2.975  12.229  0.2644 -0.2471 -0.3194
 1874TIP3    H127037   2.145   2.941  12.140 -0.2674 -0.5584 -0.1688
 1874TIP3    H227038   2.128   2.901  12.285 -0.9957  0.3740  0.0067
 1875TIP3   OH227039   0.912   5.936  16.571 -0.2143  0.4950 -0.1628
 1875TIP3    H127040   0.948   5.908  16.655 -0.2863 -2.1671 -0.9682
 1875TIP3    H227041   0.823   5.903  16.571 -0.2983  0.7146 -1.1838
 1876TIP3   OH227042   2.492   1.514   3.162 -0.1399 -0.5612  0.6259
 1876TIP3    H127043   2.510   1.563   3.081 -1.5570  1.0085  1.2468
 1876TIP3    H227044   2.571   1.462   3.176  0.1514 -0.8069 -1.7348
 1877TIP3   OH227045   0.559   3.801  11.961 -0.4997  0.8440  0.0563
 1877TIP3    H127046   0.654   3.813  11.957 -0.4836  1.1884  1.4772
 1877TIP3    H227047   0.528   3.832  11.875  0.6131  1.1964 -0.2257
 1878TIP3   OH227048   0.660   0.237  15.289 -0.0595  0.8765 -0.1485
 1878TIP3    H127049   0.695   0.263  15.374 -2.2493  0.2646  1.0028
 1878TIP3    H227050   0.642   0.319  15.244 -0.8358  1.2655  0.8452
 1879TIP3   OH227051   3.866   1.486   2.735 -0.5866 -0.0696 -0.3461
 1879TIP3    H127052   3.780   1.512   2.766 -0.0832 -1.7409  2.6217
 1879TIP3    H227053   3.924   1.502   2.810  1.7165  1.0553 -2.2858
 1880TIP3   OH227054   4.108   3.312  13.918 -0.5337  0.2804 -0.1145
 1880TIP3    H127055   4.017   3.320  13.947 -0.7326  0.2407 -0.7165
 1880TIP3    H227056   4.133   3.401  13.894 -0.8058  0.1031 -1.0898
 1881TIP3   OH227057   3.526   2.615  11.354  0.3330 -0.8749 -0.2075
 1881TIP3    H127058   3.465   2.689  11.352 -0.0498 -1.1679  0.7668
 1881TIP3    H227059   3.481   2.547  11.403  0.8331 -1.6359 -0.7979
 1882TIP3   OH227060   6.665   5.394  13.412 -0.1190  0.0159  1.0930
 1882TIP3    H127061   6.619   5.326  13.461  0.2219  0.4485  2.0207
 1882TIP3    H227062   6.599   5.463  13.400 -1.2145 -1.4445 -1.9588
 1883TIP3   OH227063   1.167   0.243   5.538  0.1834  0.7055 -0.1152
 1883TIP3    H127064   1.134   0.309   5.599 -0.3293 -0.1623  0.5576
 1883TIP3    H227065   1.248   0.211   5.578  0.0385  0.3926 -0.0749
 1884TIP3   OH227066   3.821   6.095  11.266 -0.2528 -0.3289 -0.0615
 1884TIP3    H127067   3.895   6.139  11.308 -0.5535  1.2098 -1.0982
 1884TIP3    H227068   3.833   6.111  11.173 -1.0446 -1.4169 -0.3624
 1885TIP3   OH227069   4.736   2.470   3.829 -0.4812  0.0561 -0.2540
 1885TIP3    H127070   4.747   2.565   3.817 -1.3197  0.5258  2.4220
 1885TIP3    H227071   4.769   2.432   3.747  1.0107  2.5799 -0.8880
 1886TIP3   OH227072   0.189   4.118  17.048 -0.1776  0.0449  0.1622
 1886TIP3    H127073   0.095   4.101  17.056 -0.0140 -0.1551  1.7719
 1886TIP3    H227074   0.214   4.077  16.965 -1.1435 -1.5344  0.6358
 1887TIP3   OH227075   0.178   1.303   0.390 -0.3045 -0.3382 -0.9652
 1887TIP3    H127076   0.183   1.302   0.294 -1.3938 -0.4598 -1.0200
 1887TIP3    H227077   0.100   1.251   0.411  0.4392 -1.0798  0.0206
 1888TIP3   OH227078   5.590   6.456  16.800  0.1467  0.5030  0.5811
 1888TIP3    H127079   5.545   6.383  16.842 -1.1253  1.3132  0.6338
 1888TIP3    H227080   5.607   6.425  16.710 -0.0547  0.0134  0.7145
 1889TIP3   OH227081   1.582   6.334  13.858  0.1382  0.6359  0.3370
 1889TIP3    H127082   1.561   6.395  13.787 -2.2987  1.3891  1.6217
 1889TIP3    H227083   1.675   6.349  13.876 -0.2310  3.4849  0.1374
 1890TIP3   OH227084   6.028   2.051  15.422  0.1156 -0.2754 -0.9643
 1890TIP3    H127085   5.980   2.058  15.505  1.2049  1.4708 -0.4463
 1890TIP3    H227086   5.963   2.073  15.355 -0.9525 -2.3659 -0.6604
 1891TIP3   OH227087   2.439   2.989  10.976  0.3061 -0.0996 -0.3013
 1891TIP3    H127088   2.519   2.939  10.959 -0.1370 -1.1566  0.6256
 1891TIP3    H227089   2.389   2.933  11.035 -0.5700  1.1070  0.1031
 1892TIP3   OH227090   3.463   0.969  15.768  0.0388 -0.4389  0.6783
 1892TIP3    H127091   3.542   0.926  15.736  0.6819  0.5618  0.8639
 1892TIP3    H227092   3.434   1.023  15.695 -0.4473 -0.7691  0.6280
 1893TIP3   OH227093   2.558   4.619   3.755 -0.1652 -0.0210  0.5293
 1893TIP3    H127094   2.551   4.557   3.683  0.5182 -0.6837  1.0311
 1893TIP3    H227095   2.647   4.608   3.789  0.1758  1.6433  0.2531
 1894TIP3   OH227096   4.525   5.396  13.310  0.3909  0.0353  0.3900
 1894TIP3    H127097   4.469   5.467  13.342  0.5093  0.1332  0.3797
 1894TIP3    H227098   4.614   5.423  13.333  0.2482 -1.2013  2.4345
 1895TIP3   OH227099   1.662   4.181  14.188  0.0455 -0.4172  0.1987
 1895TIP3    H127100   1.757   4.188  14.178  0.1972 -0.6459  1.3398
 1895TIP3    H227101   1.635   4.269  14.216 -0.1601 -0.2028 -0.6506
 1896TIP3   OH227102   1.974   4.768  16.152 -0.9277  0.1841 -0.4396
 1896TIP3    H127103   1.904   4.716  16.114  0.3801 -1.5843 -0.5390
 1896TIP3    H227104   2.038   4.778  16.081 -0.5431  0.7613 -0.0189
 1897TIP3   OH227105   0.891   0.122  12.145 -0.1848  0.1127 -0.5101
 1897TIP3    H127106   0.902   0.206  12.100  1.1858  1.0942  1.6070
 1897TIP3    H227107   0.807   0.129  12.189 -0.3484  0.1411 -0.8264
 1898TIP3   OH227108   3.703   5.750   3.297  0.1650 -0.1705  0.7021
 1898TIP3    H127109   3.633   5.813   3.316  1.1253  0.8912  0.7790
 1898TIP3    H227110   3.781   5.804   3.284  0.5887 -1.1887 -1.2694
 1899TIP3   OH227111   5.413   6.667   5.093 -0.5586  0.2411  0.2643
 1899TIP3    H127112   5.483   6.725   5.062 -0.7691  1.8427  2.7256
 1899TIP3    H227113   5.460   6.597   5.139 -0.3800 -0.9769 -1.6907
 1900TIP3   OH227114   6.634   6.040  14.998 -0.3178 -0.0126  0.4607
 1900TIP3    H127115   6.619   6.134  14.985 -2.6469 -0.5691 -1.3969
 1900TIP3    H227116   6.697   6.016  14.930 -1.2744 -0.1472 -0.3965
 1901TIP3   OH227117   3.472   4.419  14.736  0.4951  0.5832 -0.5806
 1901TIP3    H127118   3.376   4.417  14.733  0.4990  0.2983 -0.5627
 1901TIP3    H227119   3.493   4.459  14.820  0.3875  1.9954 -1.2134
 1902TIP3   OH227120   2.293   3.174  12.392  0.0331  0.4325 -0.2022
 1902TIP3    H127121   2.284   3.150  12.485  2.4870 -0.5891 -0.1958
 1902TIP3    H227122   2.243   3.107  12.345 -0.5603  0.4961  0.3295
 1903TIP3   OH227123   3.386   4.920  13.078 -0.0481  0.6089  0.5318
 1903TIP3    H127124   3.309   4.963  13.115 -1.0188 -2.2743  1.9914
 1903TIP3    H227125   3.355   4.882  12.996 -0.2075 -0.4980  1.0893
 1904TIP3   OH227126   2.250   0.037  13.322 -0.2361  0.3171 -0.1786
 1904TIP3    H127127   2.185  -0.002  13.381 -0.2709  0.1830 -0.3054
 1904TIP3    H227128   2.230  -0.000  13.236 -0.3323  0.6952 -0.3181
 1905TIP3   OH227129   3.345   3.919  16.540  0.6152 -0.1382 -0.2712
 1905TIP3    H127130   3.287   3.843  16.530  0.7848 -0.2454 -0.4633
 1905TIP3    H227131   3.296   3.991  16.499 -0.8418  0.5352  2.5424
 1906TIP3   OH227132   3.138   3.894   4.727  0.0097  0.2213 -0.2327
 1906TIP3    H127133   3.231   3.916   4.728  0.4659 -1.5294 -1.6127
 1906TIP3    H227134   3.124   3.853   4.642 -0.7733 -4.6288  2.0633
 1907TIP3   OH227135   6.303   4.876   4.259 -0.4216  0.3378 -0.6382
 1907TIP3    H127136   6.312   4.857   4.352  2.0003  0.7333 -0.7436
 1907TIP3    H227137   6.229   4.823   4.230 -0.6713 -0.4273  1.3429
 1908TIP3   OH227138   2.061   2.170   2.305  0.0710 -0.0621  0.1149
 1908TIP3    H127139   2.115   2.116   2.363  0.4925 -0.0656 -0.2808
 1908TIP3    H227140   2.046   2.115   2.228  0.3941  0.3349 -0.2339
 1909TIP3   OH227141   1.450   2.102   0.722 -0.7566  0.5166 -0.5063
 1909TIP3    H127142   1.415   2.014   0.737 -1.7846  0.7460 -1.4278
 1909TIP3    H227143   1.372   2.159   0.722  0.0528  1.6654  1.7841
 1910TIP3   OH227144   1.458   2.157   5.337  0.8355  0.3712  0.2267
 1910TIP3    H127145   1.523   2.088   5.332 -0.5935 -0.9659 -0.2870
 1910TIP3    H227146   1.450   2.190   5.247  0.2686  0.0317  0.1522
 1911TIP3   OH227147   4.493   0.638   1.847 -0.4804 -0.0320 -0.3522
 1911TIP3    H127148   4.546   0.632   1.767  0.1860 -0.9729  0.1539
 1911TIP3    H227149   4.491   0.732   1.866 -0.3291  0.1693 -1.2636
 1912TIP3   OH227150   3.724   0.198  16.059 -0.1460  0.1229  0.1459
 1912TIP3    H127151   3.729   0.217  16.153  0.5847  0.9179 -0.0456
 1912TIP3    H227152   3.741   0.104  16.053  0.7054  0.2233  0.7475
 1913TIP3   OH227153   0.307   5.619  12.079 -0.7706 -0.3276 -0.2973
 1913TIP3    H127154   0.254   5.669  12.016  0.7452 -0.3173 -1.5995
 1913TIP3    H227155   0.279   5.528  12.067 -0.0418 -0.4093 -1.4608
 1914TIP3   OH227156   4.959   5.795   4.016 -0.2219  0.0280 -0.1694
 1914TIP3    H127157   5.001   5.876   3.985 -0.2167 -0.2577 -0.9262
 1914TIP3    H227158   4.870   5.799   3.980 -0.5795  0.2285  0.7248
 1915TIP3   OH227159   2.149   5.458   4.683  0.0762 -0.0526 -0.0232
 1915TIP3    H127160   2.192   5.443   4.767 -0.3808 -0.0746  0.2074
 1915TIP3    H227161   2.125   5.551   4.684  1.5413  0.3541 -0.8178
 1916TIP3   OH227162   4.931   5.952  13.157 -0.6442 -0.3455 -0.0691
 1916TIP3    H127163   4.932   5.908  13.072 -0.1996 -1.4985  0.5137
 1916TIP3    H227164   4.844   5.933  13.192 -0.8663  0.2228 -0.3168
 1917TIP3   OH227165   4.679   1.732   4.390 -0.1341 -0.0618  0.0268
 1917TIP3    H127166   4.728   1.805   4.428 -1.0117  1.6178 -1.9896
 1917TIP3    H227167   4.587   1.757   4.401 -0.4509 -1.0517 -0.3522
 1918TIP3   OH227168   4.709   3.995  15.904 -0.2038 -0.2142  0.0164
 1918TIP3    H127169   4.788   4.006  15.851 -0.9554  0.4747 -0.9868
 1918TIP3    H227170   4.657   4.074  15.886 -0.0704  0.4734  2.4957
 1919TIP3   OH227171   3.196   2.007  13.770  0.1047 -0.1683  0.8335
 1919TIP3    H127172   3.136   1.964  13.831  1.0884  1.3768  3.0077
 1919TIP3    H227173   3.281   1.966  13.787  0.1339 -0.6114 -0.4121
 1920TIP3   OH227174   0.339   4.187  11.422 -0.5217  0.2565 -0.2956
 1920TIP3    H127175   0.272   4.163  11.486  0.3489 -0.9621  0.1817
 1920TIP3    H227176   0.422   4.173  11.468  0.0836  1.8030 -0.8566
 1921TIP3   OH227177   6.143   4.856  15.084 -0.2096  0.3577  0.3981
 1921TIP3    H127178   6.218   4.806  15.055 -0.4118  0.0748  0.3619
 1921TIP3    H227179   6.133   4.926  15.020 -0.1948  0.1833  0.2071
 1922TIP3   OH227180   0.449   4.580  10.636  0.1617 -0.4436 -0.4966
 1922TIP3    H127181   0.508   4.589  10.561 -1.0476  1.2425 -1.2826
 1922TIP3    H227182   0.373   4.633  10.613 -1.0991 -1.5111  1.0755
 1923TIP3   OH227183   0.928   1.273  15.747  0.1149  0.5577  0.2336
 1923TIP3    H127184   0.876   1.325  15.809  0.1006  1.1695 -0.2878
 1923TIP3    H227185   0.886   1.187  15.747 -2.0573  1.5603 -1.5525
 1924TIP3   OH227186   4.678   4.387  11.088 -0.4798  0.0094  0.3802
 1924TIP3    H127187   4.630   4.306  11.108 -0.5263 -0.7604 -2.5950
 1924TIP3    H227188   4.640   4.418  11.006  1.6280  1.3942 -0.1061
 1925TIP3   OH227189   2.254   3.458  14.382  0.4516  0.0856 -0.2619
 1925TIP3    H127190   2.235   3.550  14.364  2.2403  0.1223 -2.0158
 1925TIP3    H227191   2.283   3.458  14.474 -0.7811  1.0616  0.1520
 1926TIP3   OH227192   0.700   5.954  12.207  0.4658  0.4615 -0.0367
 1926TIP3    H127193   0.650   5.878  12.176  0.6477 -0.0722  0.9553
 1926TIP3    H227194   0.759   5.918  12.274  0.2789  1.5532  0.7180
 1927TIP3   OH227195   0.159   4.088  15.824 -0.4324 -0.0412 -0.6098
 1927TIP3    H127196   0.240   4.110  15.870 -0.8232  0.3059 -0.0973
 1927TIP3    H227197   0.175   4.000  15.789  0.1975  0.0598 -0.5837
 1928TIP3   OH227198   6.213   5.592  16.816 -0.1735 -0.3068  0.3013
 1928TIP3    H127199   6.143   5.616  16.876  0.2259  0.8839  0.3050
 1928TIP3    H227200   6.273   5.538  16.868  0.1810  0.7290  0.9852
 1929TIP3   OH227201   2.640   4.718   3.357  0.1204  0.2411 -0.4317
 1929TIP3    H127202   2.566   4.762   3.399  0.9972  1.4221 -0.0958
 1929TIP3    H227203   2.714   4.736   3.414  1.1294  1.0109 -1.9555
 1930TIP3   OH227204   2.187   1.774   0.416 -0.0837 -0.1936 -0.3293
 1930TIP3    H127205   2.270   1.780   0.370 -0.1616  0.0223 -0.4438
 1930TIP3    H227206   2.122   1.759   0.348 -0.2270  0.3584 -0.3216
 1931TIP3   OH227207   3.096   5.963  10.841  0.1475 -0.0381  0.3355
 1931TIP3    H127208   3.012   5.947  10.799  1.0476  0.3633 -1.6539
 1931TIP3    H227209   3.087   6.049  10.882  0.0064  0.5700 -0.9628
 1932TIP3   OH227210   2.533   0.821  16.101 -0.1602  0.8874 -0.0111
 1932TIP3    H127211   2.469   0.790  16.165 -1.1888  1.8172 -0.5585
 1932TIP3    H227212   2.547   0.747  16.043 -1.0881  0.8097 -0.1461
 1933TIP3   OH227213   1.567   4.123  15.052 -0.7312  0.4313 -0.0371
 1933TIP3    H127214   1.591   4.060  14.984  0.6273 -0.2332  1.0449
 1933TIP3    H227215   1.537   4.069  15.125 -0.4697  1.0620  0.5435
 1934TIP3   OH227216   3.008   5.787   5.139 -0.1376  0.7769  0.8246
 1934TIP3    H127217   3.041   5.849   5.203  3.5676  3.1056 -3.0931
 1934TIP3    H227218   3.085   5.738   5.111 -1.5980 -0.0804 -1.8951
 1935TIP3   OH227219   6.460   3.643  16.120 -0.4312 -0.5173  0.0316
 1935TIP3    H127220   6.382   3.604  16.160  0.4089 -1.9681  0.2929
 1935TIP3    H227221   6.517   3.664  16.193  0.0329 -0.8106 -0.2408
 1936TIP3   OH227222   2.533   5.788   3.692  0.0706  0.5665 -0.0708
 1936TIP3    H127223   2.488   5.707   3.669  0.0304 -0.1038  2.2741
 1936TIP3    H227224   2.619   5.781   3.650 -0.4439 -0.0182 -1.0552
 1937TIP3   OH227225   5.335   0.523  15.022 -0.1343  0.1679  0.2641
 1937TIP3    H127226   5.315   0.531  14.929 -0.2320  0.5198  0.3146
 1937TIP3    H227227   5.295   0.440  15.048  0.5617 -0.3207 -0.1809
 1938TIP3   OH227228   3.156   2.874   3.568  0.5880 -0.1362  0.3785
 1938TIP3    H127229   3.145   2.851   3.660  0.6763 -2.0447 -0.0597
 1938TIP3    H227230   3.080   2.928   3.547 -0.3311 -1.1146  1.1341
 1939TIP3   OH227231   4.697   0.431   2.758  0.6045 -1.0507  0.3983
 1939TIP3    H127232   4.702   0.507   2.816 -0.8909 -1.2943  0.8909
 1939TIP3    H227233   4.757   0.450   2.686 -0.2958  0.9314  0.1431
 1940TIP3   OH227234   3.292   3.891   4.134 -0.1477 -0.2506  0.5487
 1940TIP3    H127235   3.242   3.970   4.115 -0.1311  0.0611  1.7809
 1940TIP3    H227236   3.308   3.852   4.048 -0.6385  0.7833 -0.0216
 1941TIP3   OH227237   2.775   1.219  13.807  0.3979  0.0376  0.1066
 1941TIP3    H127238   2.699   1.206  13.864 -0.6719  3.9283 -0.2804
 1941TIP3    H227239   2.850   1.215  13.867 -0.3485 -0.5632  1.0152
 1942TIP3   OH227240   2.014   0.281   1.379 -0.4374 -0.7298  0.8577
 1942TIP3    H127241   2.076   0.307   1.312 -1.4890 -0.3399  0.0271
 1942TIP3    H227242   2.067   0.233   1.443  0.8711  0.3889  0.6274
 1943TIP3   OH227243   0.470   0.048  11.604 -0.3835  0.3620  0.8561
 1943TIP3    H127244   0.503   0.089  11.684 -0.5481 -1.6604  1.9954
 1943TIP3    H227245   0.384   0.087  11.591 -0.2109  0.9616  1.4694
 1944TIP3   OH227246   2.371   5.705  13.387  0.0554  0.0157 -0.0125
 1944TIP3    H127247   2.408   5.631  13.435  0.6828  0.1742 -0.2422
 1944TIP3    H227248   2.284   5.675  13.361  0.1517 -0.4957  0.2404
 1945TIP3   OH227249   6.143   4.830   2.353 -0.1508 -0.7369 -0.3772
 1945TIP3    H127250   6.065   4.873   2.319  0.2673 -1.5237 -2.4374
 1945TIP3    H227251   6.196   4.900   2.391 -0.4090  0.2701 -1.8606
 1946TIP3   OH227252   1.389   6.728  11.784  0.3095 -0.0063  0.2154
 1946TIP3    H127253   1.408   6.634  11.782  1.4394  0.2328 -0.9780
 1946TIP3    H227254   1.396   6.756  11.693  0.4424  1.3153  0.6191
 1947TIP3   OH227255   2.448   1.071  15.612 -0.0291  0.4249  0.6163
 1947TIP3    H127256   2.373   1.127  15.595  0.8729  1.5992  0.4056
 1947TIP3    H227257   2.515   1.130  15.647  1.4358 -0.2505 -0.9596
 1948TIP3   OH227258   6.196   1.303   0.766  0.1709  0.2594  0.0750
 1948TIP3    H127259   6.212   1.350   0.849  1.0269  1.0728 -0.5383
 1948TIP3    H227260   6.153   1.222   0.793 -0.2199  0.8398  1.2642
 1949TIP3   OH227261   0.927   1.334   0.512 -0.4925 -0.0087 -0.1091
 1949TIP3    H127262   0.911   1.346   0.418  2.7776 -1.2932 -0.9210
 1949TIP3    H227263   0.958   1.244   0.519 -0.0351  0.2926  2.1196
 1950TIP3   OH227264   4.335   0.589  14.702 -0.0479 -0.2584 -0.1021
 1950TIP3    H127265   4.301   0.652  14.639  2.7381 -0.2457 -1.6792
 1950TIP3    H227266   4.261   0.532  14.723 -1.9623  2.0143 -0.5153
 1951TIP3   OH227267   3.874   2.006   1.952 -0.5544  0.2682 -0.5868
 1951TIP3    H127268   3.818   1.941   1.908 -0.6966  0.1101 -0.1707
 1951TIP3    H227269   3.831   2.021   2.036  0.4050 -0.3587  0.0200
 1952TIP3   OH227270   5.760   0.571  15.009 -0.3573  0.3437  0.3227
 1952TIP3    H127271   5.773   0.656  14.966  1.6512 -1.9978 -4.0422
 1952TIP3    H227272   5.841   0.557  15.058  0.6399 -0.3526 -1.4696
 1953TIP3   OH227273   1.682   2.949   2.144 -0.0467 -0.5540 -0.0852
 1953TIP3    H127274   1.705   2.856   2.140  1.2023 -0.3477  1.6771
 1953TIP3    H227275   1.692   2.972   2.236 -2.0193  0.9204 -0.2044
 1954TIP3   OH227276   4.603   0.961  10.931  0.2530 -0.3239 -0.2978
 1954TIP3    H127277   4.540   0.965  11.002 -1.7291 -1.0496 -1.9418
 1954TIP3    H227278   4.630   1.052  10.916  0.9439 -0.2078  1.5535
 1955TIP3   OH227279   0.663   5.617  15.596 -0.1535  0.6419 -0.0967
 1955TIP3    H127280   0.616   5.689  15.639 -1.1093  1.5804 -2.6182
 1955TIP3    H227281   0.598   5.548  15.588  0.0336  0.4600 -0.0524
 1956TIP3   OH227282   3.964   6.184   4.114 -0.3640  0.7394  0.3962
 1956TIP3    H127283   3.961   6.139   4.030  0.4499  0.6963  0.3855
 1956TIP3    H227284   4.053   6.170   4.145 -1.4867 -1.8752  2.7025
 1957TIP3   OH227285   2.903   0.917   3.386  0.3943 -0.1271 -0.5592
 1957TIP3    H127286   2.814   0.897   3.359 -0.2495  2.3863 -0.3706
 1957TIP3    H227287   2.954   0.915   3.305 -0.6414  2.5905 -1.3233
 1958TIP3   OH227288   2.930   0.224   0.771 -0.2877 -0.0600  0.2696
 1958TIP3    H127289   2.931   0.301   0.715 -0.9983 -0.9148 -0.9549
 1958TIP3    H227290   3.018   0.221   0.809  0.2068  0.5468 -0.7871
 1959TIP3   OH227291   6.429   3.177   3.509  0.1152  0.1603  0.1253
 1959TIP3    H127292   6.480   3.171   3.429 -0.3789 -1.5523 -0.0639
 1959TIP3    H227293   6.375   3.098   3.510  0.6733 -0.2226  2.5315
 1960TIP3   OH227294   0.528   2.827  10.588  0.5126  0.1868  0.3140
 1960TIP3    H127295   0.581   2.824  10.668  2.0604  2.4661 -0.5817
 1960TIP3    H227296   0.541   2.915  10.554 -2.3523  0.1460 -0.9974
 1961TIP3   OH227297   4.246   2.855   0.186 -0.3397  0.0526  0.4918
 1961TIP3    H127298   4.327   2.851   0.135  1.2820  0.2105  2.9679
 1961TIP3    H227299   4.177   2.866   0.120  1.4056 -2.2158 -1.8117
 1962TIP3   OH227300   5.285   5.533  11.020 -0.2990  0.5222 -0.3397
 1962TIP3    H127301   5.271   5.610  10.966 -0.4720  0.7408  0.0146
 1962TIP3    H227302   5.202   5.484  11.014  0.0658 -0.0041 -1.1487
 1963TIP3   OH227303   3.495   0.009   0.994 -0.2328  0.3222 -0.2996
 1963TIP3    H127304   3.469   0.079   1.054  0.1895 -1.2643  1.8142
 1963TIP3    H227305   3.563  -0.039   1.041  2.2712  0.7943 -3.3075
 1964TIP3   OH227306   3.208   0.687  12.330 -0.4225  0.2121  0.0607
 1964TIP3    H127307   3.224   0.779  12.351 -0.7737  0.8219 -2.2351
 1964TIP3    H227308   3.235   0.639  12.409  2.1568  2.0645  0.3499
 1965TIP3   OH227309   4.697   0.281   1.294  0.4673 -0.3210 -0.0290
 1965TIP3    H127310   4.744   0.342   1.238 -0.2289 -1.2340 -1.6302
 1965TIP3    H227311   4.738   0.196   1.277 -1.0346 -0.9372 -0.6538
 1966TIP3   OH227312   1.921   0.392  10.747  0.1713 -0.1497 -0.1764
 1966TIP3    H127313   1.850   0.329  10.736  0.3907 -0.4249 -0.0342
 1966TIP3    H227314   1.955   0.406  10.659 -0.0536 -0.0236 -0.2442
 1967TIP3   OH227315   0.446   0.510  11.076 -0.2104 -0.6216 -0.1537
 1967TIP3    H127316   0.532   0.506  11.032 -1.0206 -0.7342 -1.7676
 1967TIP3    H227317   0.453   0.585  11.135  1.4135 -1.3648  0.6521
 1968TIP3   OH227318   1.503   1.800  11.693 -0.2941  0.4221 -0.2626
 1968TIP3    H127319   1.545   1.820  11.777  0.9140  0.8173 -0.9463
 1968TIP3    H227320   1.567   1.826  11.628 -1.4450  0.6170 -1.3306
 1969TIP3   OH227321   3.984   6.695   3.401  0.2818  0.2926  0.2332
 1969TIP3    H127322   3.918   6.659   3.459  0.9735  0.0716  0.8947
 1969TIP3    H227323   4.033   6.756   3.455  0.5983  0.4858 -0.2620
 1970TIP3   OH227324   6.764   2.203  13.839 -0.0388  0.1505  0.3947
 1970TIP3    H127325   6.859   2.212  13.849 -0.3089  1.3350  1.9059
 1970TIP3    H227326   6.752   2.189  13.745  1.4879  1.7279 -0.0549
 1971TIP3   OH227327   1.296   2.484   4.656  0.5362 -0.1399 -0.0412
 1971TIP3    H127328   1.345   2.566   4.645 -0.5601  0.5396  0.0573
 1971TIP3    H227329   1.273   2.482   4.749 -2.2232  1.0698 -0.6498
 1972TIP3   OH227330   3.442   5.226   5.148  0.3658  0.2867 -0.7267
 1972TIP3    H127331   3.354   5.246   5.179  0.9631  0.5546  0.8358
 1972TIP3    H227332   3.435   5.231   5.052 -1.4204 -0.2123 -0.6387
 1973TIP3   OH227333   3.966   5.611   5.215  0.9184  0.0825  0.3477
 1973TIP3    H127334   3.945   5.664   5.291  1.9697 -0.2756  0.8926
 1973TIP3    H227335   3.918   5.529   5.229 -2.4568  1.6314 -1.5417
 1974TIP3   OH227336   6.308   4.997  11.166 -0.2449 -0.8896  0.1119
 1974TIP3    H127337   6.281   5.048  11.089  0.4126 -0.3680  0.2320
 1974TIP3    H227338   6.378   4.940  11.134 -1.5008 -2.3014 -0.2160
 1975TIP3   OH227339   1.219   4.517  12.757  0.3863 -0.6303  0.6110
 1975TIP3    H127340   1.305   4.549  12.785 -0.1188  0.1785  1.2407
 1975TIP3    H227341   1.180   4.480  12.836 -0.2270 -0.1453  0.5434
 1976TIP3   OH227342   3.276   4.801  12.844 -0.4875  0.2972  0.2844
 1976TIP3    H127343   3.239   4.714  12.835  0.3003 -0.1330  1.0767
 1976TIP3    H227344   3.232   4.854  12.777 -0.6268 -0.8171 -0.5061
 1977TIP3   OH227345   2.637   6.397   3.260  0.4650  0.0679  0.6979
 1977TIP3    H127346   2.567   6.333   3.245  1.1975 -0.4627 -0.6379
 1977TIP3    H227347   2.697   6.382   3.187  1.5590  1.0594  1.3922
 1978TIP3   OH227348   4.419   0.842  16.408 -0.1023 -0.2313  0.0373
 1978TIP3    H127349   4.427   0.764  16.463  0.6070  0.8284  1.4910
 1978TIP3    H227350   4.505   0.884  16.413 -0.4989  0.6868 -0.6437
 1979TIP3   OH227351   6.386   5.352   4.844 -0.3830 -0.1213 -0.4759
 1979TIP3    H127352   6.475   5.317   4.852 -0.4979 -0.4078 -0.4341
 1979TIP3    H227353   6.354   5.315   4.762 -0.4814 -0.0575 -0.4653
 1980TIP3   OH227354   4.399   6.451  10.746  0.1728 -0.5591  0.1568
 1980TIP3    H127355   4.411   6.387  10.676 -1.0615 -0.2328 -0.3732
 1980TIP3    H227356   4.365   6.529  10.701 -1.8168 -0.7462  1.2613
 1981TIP3   OH227357   2.173   3.416  11.456 -0.0117  0.2877  0.0260
 1981TIP3    H127358   2.248   3.372  11.496  1.3238  2.8848  0.4761
 1981TIP3    H227359   2.115   3.436  11.530 -0.9513 -1.2767 -0.2610
 1982TIP3   OH227360   2.687   0.185   2.583 -0.2238 -0.1000 -0.2363
 1982TIP3    H127361   2.606   0.200   2.631 -0.4643 -1.8269 -0.0888
 1982TIP3    H227362   2.731   0.115   2.631  0.8485  0.0827 -0.9336
 1983TIP3   OH227363   1.630   0.556   1.751  0.2457 -1.0331 -0.3202
 1983TIP3    H127364   1.725   0.550   1.757  0.7005  3.9271 -0.2842
 1983TIP3    H227365   1.599   0.540   1.840  1.0712 -1.7423 -0.1485
 1984TIP3   OH227366   3.414   0.878  14.179  0.0955  0.4476 -0.4313
 1984TIP3    H127367   3.355   0.870  14.104  1.2533 -2.1619 -1.1127
 1984TIP3    H227368   3.474   0.949  14.155 -1.4092  1.6643 -0.6467
 1985TIP3   OH227369   4.647   6.736   2.832 -0.0208  0.3609 -0.6001
 1985TIP3    H127370   4.659   6.828   2.854  0.6226  0.2666 -0.5476
 1985TIP3    H227371   4.725   6.713   2.780  0.7564 -0.6538  0.9768
 1986TIP3   OH227372   2.518   0.067   6.078 -0.2743 -0.2621 -0.7836
 1986TIP3    H127373   2.502   0.073   6.172 -0.0143 -2.1864 -0.5934
 1986TIP3    H227374   2.609   0.095   6.067  0.6296 -2.7115 -0.0562
 1987TIP3   OH227375   5.571   3.611   2.324  0.6415  0.2346 -0.3642
 1987TIP3    H127376   5.660   3.591   2.353  0.6251 -0.9874 -1.1180
 1987TIP3    H227377   5.576   3.611   2.228 -0.9574 -3.8818 -0.5756
 1988TIP3   OH227378   3.901   4.861  16.730  0.4029  0.7006 -0.1080
 1988TIP3    H127379   3.887   4.954  16.711 -1.6603  0.8421  2.0072
 1988TIP3    H227380   3.875   4.816  16.649 -0.6322  1.8140 -0.4105
 1989TIP3   OH227381   4.935   4.320  11.057 -0.2403 -0.2947 -0.0081
 1989TIP3    H127382   4.848   4.358  11.066 -0.4230 -0.8593  0.6245
 1989TIP3    H227383   4.940   4.292  10.965  0.3667  2.3643 -0.8224
 1990TIP3   OH227384   1.314   5.591   2.175  0.2515 -0.0698  1.1186
 1990TIP3    H127385   1.295   5.615   2.084  1.2960 -0.5348  0.7669
 1990TIP3    H227386   1.309   5.674   2.223  0.1078  0.2483  0.5679
 1991TIP3   OH227387   1.744   1.732  16.288 -0.4337  0.5228  0.3156
 1991TIP3    H127388   1.747   1.690  16.374  0.6439  1.9580  1.0025
 1991TIP3    H227389   1.712   1.820  16.306 -1.8510  0.3014 -0.9979
 1992TIP3   OH227390   1.699   4.949  13.314 -0.4256 -0.4598  0.1852
 1992TIP3    H127391   1.787   4.986  13.312 -0.0973 -1.2805 -0.5480
 1992TIP3    H227392   1.641   5.025  13.304  0.1819  0.1038  0.8590
 1993TIP3   OH227393   3.124   0.132   5.130 -0.3499  0.5557 -0.0627
 1993TIP3    H127394   3.182   0.141   5.205 -0.0703  1.3931 -0.3693
 1993TIP3    H227395   3.053   0.194   5.147 -2.6760 -2.4091  1.6629
 1994TIP3   OH227396   0.236   1.607   2.039  0.1439  0.3690 -0.2363
 1994TIP3    H127397   0.225   1.583   1.947  1.3008 -0.1397 -0.2563
 1994TIP3    H227398   0.302   1.545   2.072  0.3234  1.0584  0.7213
 1995TIP3   OH227399   3.808   3.737   1.904  0.3094 -0.0364 -0.0467
 1995TIP3    H127400   3.724   3.729   1.948  0.5532  1.2006  0.6609
 1995TIP3    H227401   3.808   3.825   1.866  2.2712  0.9510  2.0939
 1996TIP3   OH227402   3.941   6.218  14.357 -0.1572  0.1075 -0.0672
 1996TIP3    H127403   3.889   6.298  14.353 -0.0673  0.2122  0.7408
 1996TIP3    H227404   3.878   6.149  14.375 -0.0689  0.1796  0.5240
 1997TIP3   OH227405   0.616   4.911  16.831  0.0855 -0.1136  0.6675
 1997TIP3    H127406   0.652   4.822  16.827 -2.1811 -1.0532  0.1193
 1997TIP3    H227407   0.586   4.928  16.742 -0.7966  0.6241  1.0964
 1998TIP3   OH227408   6.503   0.662  16.827 -1.0016  1.0116 -0.4531
 1998TIP3    H127409   6.521   0.717  16.903  1.1078  1.2834 -1.1038
 1998TIP3    H227410   6.501   0.573  16.861  1.4915  0.9792 -0.2607
 1999TIP3   OH227411   0.309   4.336   4.186  0.6672  0.4024 -0.3188
 1999TIP3    H127412   0.268   4.295   4.110 -0.0209  0.5815 -0.0452
 1999TIP3    H227413   0.240   4.389   4.225  0.8331 -0.1627  0.7799
 2000TIP3   OH227414   3.429   0.153  14.044  0.3263 -0.1854  0.3386
 2000TIP3    H127415   3.405   0.195  13.961 -0.5906  0.1268  0.7519
 2000TIP3    H227416   3.408   0.060  14.030  3.2868 -0.7148 -0.9179
 2001TIP3   OH227417   2.857   4.536  14.279 -0.2223 -0.1178  0.0826
 2001TIP3    H127418   2.934   4.590  14.297  1.8530 -3.0009  0.3779
 2001TIP3    H227419   2.847   4.539  14.184  1.2233 -0.8634 -0.1240
 2002TIP3   OH227420   2.932   2.607  15.159  0.0385  0.5580 -0.4866
 2002TIP3    H127421   2.915   2.696  15.129  0.7021  0.9279  0.2153
 2002TIP3    H227422   2.865   2.590  15.225 -1.1634 -0.1053 -1.8321
 2003TIP3   OH227423   2.948   6.405   5.209  0.4123 -0.1746 -0.2471
 2003TIP3    H127424   2.862   6.365   5.225 -0.3178  1.0210 -1.0749
 2003TIP3    H227425   2.981   6.427   5.296 -0.8741  0.8732 -0.0072
 2004TIP3   OH227426   5.083   4.656   2.608  0.0793 -0.1000 -0.4676
 2004TIP3    H127427   5.109   4.648   2.516  0.3150 -0.2026 -0.3928
 2004TIP3    H227428   5.152   4.612   2.656  0.2589  0.4645 -0.2013
 2005TIP3   OH227429   2.457   5.030   3.423 -0.1748  0.4197  0.3312
 2005TIP3    H127430   2.422   4.942   3.430 -0.0171  0.3622  0.4019
 2005TIP3    H227431   2.383   5.084   3.396 -0.1532  0.1836 -0.1919
 2006TIP3   OH227432   1.175   1.553  16.991 -0.0717 -0.9584  0.2578
 2006TIP3    H127433   1.207   1.513  16.910  2.5785 -0.3369  0.9613
 2006TIP3    H227434   1.253   1.572  17.042 -1.4099  2.2256  1.3202
 2007TIP3   OH227435   4.964   0.632  12.266  0.3551 -0.0034 -0.1068
 2007TIP3    H127436   4.913   0.600  12.191 -0.7110 -0.6389  0.8663
 2007TIP3    H227437   5.054   0.609  12.245 -0.1650 -2.0190 -0.3027
 2008TIP3   OH227438   5.317   3.418  13.060 -0.8643 -0.7151  0.0731
 2008TIP3    H127439   5.396   3.409  13.114 -0.5793 -1.1825 -0.4114
 2008TIP3    H227440   5.350   3.422  12.970 -1.2765  1.0262 -0.0059
 2009TIP3   OH227441   1.503   1.323   4.979  0.5602 -0.3005  0.2737
 2009TIP3    H127442   1.590   1.364   4.981  0.2542  0.3746 -0.1829
 2009TIP3    H227443   1.463   1.346   5.063  0.4668  0.1737  0.1019
 2010TIP3   OH227444   2.812   1.196   0.051  0.4819 -0.0096  0.4715
 2010TIP3    H127445   2.772   1.188  -0.036 -0.2752 -0.4665  0.8632
 2010TIP3    H227446   2.902   1.226   0.033  0.3723 -0.2302 -0.4735
 2011TIP3   OH227447   5.753   3.813  12.029 -0.1910 -0.5149 -0.0442
 2011TIP3    H127448   5.794   3.727  12.032  1.3733  0.2149  0.1350
 2011TIP3    H227449   5.797   3.863  12.098 -1.7443  0.1418  0.4902
 2012TIP3   OH227450   3.480   5.712   2.600  0.2109 -0.6226  0.2300
 2012TIP3    H127451   3.402   5.658   2.595  0.8868 -1.4596 -1.8150
 2012TIP3    H227452   3.553   5.650   2.592  1.1861 -0.0481  3.5931
 2013TIP3   OH227453   6.189   1.736   5.261  0.0811 -0.5441 -0.2222
 2013TIP3    H127454   6.261   1.734   5.323 -0.1634  0.9706  0.1313
 2013TIP3    H227455   6.126   1.797   5.299 -1.1862 -1.4912 -0.7515
 2014TIP3   OH227456   0.606   5.959  12.789 -0.0741 -0.3545  0.3485
 2014TIP3    H127457   0.689   5.999  12.765  0.0499 -0.9489 -0.2245
 2014TIP3    H227458   0.550   6.033  12.814 -0.0453  0.2441 -1.2948
 2015TIP3   OH227459   2.891   4.238  11.083 -0.3308  0.3432 -0.3771
 2015TIP3    H127460   2.879   4.258  10.990 -0.7150  0.7332 -0.2451
 2015TIP3    H227461   2.884   4.143  11.088  0.8513  0.2148 -0.9186
 2016TIP3   OH227462   3.598   2.373  13.611  0.3106 -0.1655 -0.0286
 2016TIP3    H127463   3.572   2.458  13.576  2.1094  0.6355  0.5466
 2016TIP3    H227464   3.631   2.325  13.535  0.0517 -0.0558 -0.2128
 2017TIP3   OH227465   2.916   1.394  16.034 -0.0895 -0.4210  0.4161
 2017TIP3    H127466   2.883   1.333  16.100  1.1708 -2.5156 -0.8010
 2017TIP3    H227467   2.972   1.454  16.083 -0.8857 -0.5997  1.5708
 2018TIP3   OH227468   5.487   4.408  13.114  0.1354 -0.0560 -0.2500
 2018TIP3    H127469   5.491   4.504  13.109  0.3858 -0.1846 -3.3800
 2018TIP3    H227470   5.409   4.390  13.166  0.2524  1.8400  0.6227
 2019TIP3   OH227471   4.849   2.458   0.550  0.1291 -0.5441 -0.1230
 2019TIP3    H127472   4.881   2.548   0.537 -1.2043  0.3336  2.3122
 2019TIP3    H227473   4.755   2.463   0.533 -0.2468 -1.0834  1.6983
 2020TIP3   OH227474   4.732   3.773  14.207 -0.0310 -0.3610  0.4174
 2020TIP3    H127475   4.706   3.690  14.246  0.4792  0.2742  2.1513
 2020TIP3    H227476   4.678   3.839  14.250  0.7740  0.3855  0.3167
 2021TIP3   OH227477   1.050   6.084  16.858  0.6261  0.1439  0.4884
 2021TIP3    H127478   1.051   5.989  16.845  0.8620  0.4768 -2.4267
 2021TIP3    H227479   0.962   6.103  16.891  0.8007 -1.1330  1.7734
 2022TIP3   OH227480   2.579   2.913   2.599  0.2385 -0.1799 -0.0918
 2022TIP3    H127481   2.552   2.827   2.630  1.2714 -1.1119 -1.7230
 2022TIP3    H227482   2.500   2.953   2.564 -0.0325 -0.8682 -0.2586
 2023TIP3   OH227483   6.338   0.413  12.641  0.0442  0.0679 -0.1503
 2023TIP3    H127484   6.252   0.436  12.678  0.4231  0.4623  0.4930
 2023TIP3    H227485   6.397   0.414  12.716  1.2356  2.9475 -1.0501
 2024TIP3   OH227486   5.253   6.593  11.921  0.6830 -0.1459 -0.0544
 2024TIP3    H127487   5.244   6.663  11.857  0.0471  1.0995  1.3777
 2024TIP3    H227488   5.211   6.517  11.880 -1.7124  1.2289 -0.1917
 2025TIP3   OH227489   0.061   4.609   0.563 -0.4664 -0.0699 -0.5191
 2025TIP3    H127490   0.154   4.596   0.545  0.0198 -1.8928  2.8659
 2025TIP3    H227491   0.044   4.699   0.535  3.1573  1.4513  1.7215
 2026TIP3   OH227492   4.600   6.498  15.001 -0.1630  0.0732  0.5069
 2026TIP3    H127493   4.517   6.504  14.954  0.3899  0.2494 -0.4441
 2026TIP3    H227494   4.603   6.407  15.031 -0.7152  0.0737  0.5760
 2027TIP3   OH227495   0.256   1.825  11.503  0.0968 -0.6778  0.1402
 2027TIP3    H127496   0.240   1.916  11.476  0.9525 -0.4587  0.3409
 2027TIP3    H227497   0.254   1.775  11.421  1.1425 -0.2442 -0.1662
 2028TIP3   OH227498   0.050   5.581   3.110 -0.1484  0.3876  0.3519
 2028TIP3    H127499   0.031   5.527   3.186  0.0875  0.0128  0.1447
 2028TIP3    H227500   0.142   5.607   3.121 -0.0927  0.2764  0.1618
 2029TIP3   OH227501   5.104   2.635  13.473 -0.2353 -0.4743 -0.0628
 2029TIP3    H127502   5.136   2.683  13.549  0.5345 -0.2940 -0.5031
 2029TIP3    H227503   5.136   2.546  13.486  0.3337 -0.3211 -0.4445
 2030TIP3   OH227504   1.085   3.617  17.141 -0.3058  0.0902  0.1054
 2030TIP3    H127505   1.096   3.584  17.051 -0.5286 -1.8313  0.7627
 2030TIP3    H227506   1.151   3.686  17.149  1.0232 -1.0294 -0.9178
 2031TIP3   OH227507   4.411   6.369  11.725  0.5985 -0.7459  0.6374
 2031TIP3    H127508   4.448   6.432  11.787  2.4169 -0.1607 -0.9878
 2031TIP3    H227509   4.334   6.334  11.769  1.2225  0.4785  2.7593
 2032TIP3   OH227510   2.663   1.923  16.226  0.2514 -0.5781 -0.4144
 2032TIP3    H127511   2.656   1.936  16.320  0.4020 -0.9024 -0.3600
 2032TIP3    H227512   2.695   1.833  16.216  1.3572 -0.1609 -0.7415
 2033TIP3   OH227513   5.047   4.351   3.488  0.0591  0.9332 -0.0410
 2033TIP3    H127514   5.089   4.431   3.521 -1.3266  1.9176 -0.6200
 2033TIP3    H227515   4.993   4.381   3.415 -1.1695 -0.4017  0.3109
 2034TIP3   OH227516   2.963   2.013  11.583  0.0684 -0.7078  0.2654
 2034TIP3    H127517   3.034   1.955  11.555 -1.5464 -1.7224 -1.8586
 2034TIP3    H227518   2.950   2.072  11.509 -1.4497 -0.6871  0.5307
 2035TIP3   OH227519   1.670   5.524  16.243 -0.4049  0.3719 -0.1891
 2035TIP3    H127520   1.618   5.513  16.164 -0.4658  1.8997 -0.3788
 2035TIP3    H227521   1.712   5.609  16.233  1.1047 -0.2495  0.5604
 2036TIP3   OH227522   0.229   5.833   0.459  0.1903  0.1070  0.0786
 2036TIP3    H127523   0.255   5.743   0.438 -1.0052 -0.2837  0.2304
 2036TIP3    H227524   0.178   5.825   0.540 -0.6471  0.8002 -0.3653
 2037TIP3   OH227525   6.272   0.569  17.207  0.1233 -0.1373 -0.1624
 2037TIP3    H127526   6.242   0.649  17.251 -0.3143  0.9285 -2.3404
 2037TIP3    H227527   6.198   0.542  17.153  0.3450 -1.9320  0.3852
 2038TIP3   OH227528   0.803   3.056   5.326 -0.0919  0.1849  0.0724
 2038TIP3    H127529   0.772   3.135   5.370  2.1804  0.6172  0.9239
 2038TIP3    H227530   0.802   3.078   5.233 -2.0469  0.2756  0.0938
 2039TIP3   OH227531   6.172   2.880   0.814  0.2115 -0.1006  0.1996
 2039TIP3    H127532   6.088   2.840   0.790 -0.1631  0.9880 -0.3330
 2039TIP3    H227533   6.156   2.974   0.812  0.7348  0.0838  2.7384
 2040TIP3   OH227534   2.522   2.072  11.825 -0.5000 -0.8141 -0.0545
 2040TIP3    H127535   2.568   2.155  11.837 -0.6305 -0.8216  0.5424
 2040TIP3    H227536   2.572   2.027  11.757 -0.1682 -0.4299 -0.0709
 2041TIP3   OH227537   0.094   0.501   1.618 -0.3194 -0.3004  0.9645
 2041TIP3    H127538   0.032   0.534   1.681  0.7372  0.6884  1.4978
 2041TIP3    H227539   0.049   0.508   1.533 -1.1131 -0.0946  1.4036
 2042TIP3   OH227540   4.484   2.844   6.529 -0.0101 -0.1545 -0.0677
 2042TIP3    H127541   4.468   2.842   6.623 -0.4295  0.1551 -0.1293
 2042TIP3    H227542   4.444   2.926   6.500  1.9536  0.7902 -0.1967
 2043TIP3   OH227543   6.033   1.508   1.032 -0.2241  0.4565 -0.0439
 2043TIP3    H127544   5.975   1.545   1.099  0.3876  1.0162  0.1781
 2043TIP3    H227545   6.074   1.433   1.075 -2.1703 -1.0800 -0.7919
 2044TIP3   OH227546   2.006   1.796  12.658 -0.3711  0.5341 -0.3025
 2044TIP3    H127547   2.094   1.801  12.620  0.6976  0.3638  2.0396
 2044TIP3    H227548   2.017   1.827  12.748 -2.4989 -0.5321  0.3685
 2045TIP3   OH227549   1.071   0.883   1.388 -0.1891  0.1206 -0.2897
 2045TIP3    H127550   1.154   0.839   1.407 -0.3725 -0.4158 -0.7194
 2045TIP3    H227551   1.055   0.938   1.465  0.3162 -0.1475  0.0098
 2046TIP3   OH227552   5.074   5.865  14.921  0.7133  0.1123 -0.7502
 2046TIP3    H127553   5.019   5.800  14.964 -0.3065  1.1483 -0.4655
 2046TIP3    H227554   5.129   5.900  14.991  0.1637  0.6759 -0.6052
 2047TIP3   OH227555   3.842   0.811   1.953  0.0253  0.5534  0.2432
 2047TIP3    H127556   3.823   0.791   1.861  0.6110 -0.3616  0.3132
 2047TIP3    H227557   3.779   0.759   2.003 -0.9000  1.7605  0.3414
 2048TIP3   OH227558   2.556   5.366  16.097 -0.5205 -0.5265 -0.3617
 2048TIP3    H127559   2.464   5.391  16.105 -0.5398 -0.5611 -0.4658
 2048TIP3    H227560   2.598   5.403  16.175 -0.5711 -0.2729 -0.4526
 2049TIP3   OH227561   2.854   1.025  14.773 -0.1683 -0.4321  0.2589
 2049TIP3    H127562   2.830   1.088  14.706 -2.5140 -0.4086  1.0730
 2049TIP3    H227563   2.775   0.973  14.788  0.9206 -1.8049  1.5145
 2050TIP3   OH227564   3.817   4.361  16.744 -0.1982  0.5652 -0.1010
 2050TIP3    H127565   3.814   4.340  16.837 -0.9377  0.9707 -0.0222
 2050TIP3    H227566   3.811   4.457  16.741 -0.3983  0.5431 -0.5647
 2051TIP3   OH227567   3.270   2.096  10.951  0.1600 -0.3642  0.1000
 2051TIP3    H127568   3.229   2.043  11.019 -0.6872  0.7453  0.4509
 2051TIP3    H227569   3.202   2.157  10.923  1.6112  1.5839  0.7810
 2052TIP3   OH227570   1.357   0.740   0.076  0.0625  0.1483 -0.0597
 2052TIP3    H127571   1.428   0.796   0.106  1.6728 -1.8925  0.0467
 2052TIP3    H227572   1.328   0.780  -0.007  0.9993  1.2636  0.1409
 2053TIP3   OH227573   3.569   1.390  17.043 -0.1813  0.4519 -0.6578
 2053TIP3    H127574   3.578   1.301  17.008 -2.6340  0.5818 -1.7278
 2053TIP3    H227575   3.500   1.382  17.109  0.7783  1.2495  0.4598
 2054TIP3   OH227576   6.352   3.875  15.982 -0.1986  0.1063  0.5774
 2054TIP3    H127577   6.353   3.821  16.061  0.9975 -0.2798  0.3079
 2054TIP3    H227578   6.432   3.927  15.988 -1.1214  1.5405  0.6113
 2055TIP3   OH227579   0.677   1.779  11.439  0.3579 -0.1821  0.4857
 2055TIP3    H127580   0.623   1.703  11.418  0.9204 -0.6940  0.8858
 2055TIP3    H227581   0.623   1.854  11.415  0.0832 -0.7224 -0.5835
 2056TIP3   OH227582   2.783   5.301   4.624 -0.5756 -0.2355 -0.4364
 2056TIP3    H127583   2.808   5.320   4.533 -0.9643 -0.4738 -0.5930
 2056TIP3    H227584   2.819   5.374   4.674  0.6599 -0.6911 -0.6278
 2057TIP3   OH227585   3.522   0.759   3.088 -0.1382  0.0700  0.4934
 2057TIP3    H127586   3.612   0.732   3.072 -0.2247  0.0352  0.0521
 2057TIP3    H227587   3.516   0.769   3.183  0.9916  2.3614  0.3400
 2058TIP3   OH227588   1.749   1.194   6.494  0.1991  0.0932 -0.5642
 2058TIP3    H127589   1.714   1.188   6.405 -0.5293 -0.4824 -0.2505
 2058TIP3    H227590   1.722   1.281   6.525 -2.4852 -0.9766  0.2815
 2059TIP3   OH227591   3.423   0.807   5.377 -0.0258  0.6254 -0.0959
 2059TIP3    H127592   3.503   0.810   5.324 -0.8877  0.9747 -1.3986
 2059TIP3    H227593   3.356   0.846   5.321 -0.8380  1.5260  1.4751
 2060TIP3   OH227594   5.981   2.549   4.048  0.1017 -0.3820 -0.3730
 2060TIP3    H127595   5.905   2.583   4.001 -2.8591 -0.3254  4.1535
 2060TIP3    H227596   6.025   2.626   4.082  0.4116 -0.5616 -0.3665
 2061TIP3   OH227597   5.614   3.710  16.968 -0.6723  0.2886  0.0102
 2061TIP3    H127598   5.632   3.616  16.968  0.6734  0.5432  0.5952
 2061TIP3    H227599   5.587   3.729  16.878  0.6073 -0.3739 -0.5237
 2062TIP3   OH227600   5.726   3.320   3.228 -0.1232  0.3792 -0.1625
 2062TIP3    H127601   5.699   3.300   3.138 -0.3428 -1.9449  0.3917
 2062TIP3    H227602   5.655   3.375   3.262 -0.0969  1.1773 -1.3545
 2063TIP3   OH227603   0.097   6.696  11.680 -0.2087 -0.2234 -0.1384
 2063TIP3    H127604   0.019   6.745  11.706 -0.7315 -0.3681 -1.3995
 2063TIP3    H227605   0.146   6.757  11.624 -0.5196 -0.9023 -1.1479
 2064TIP3   OH227606   6.315   2.479   3.229 -0.2940  0.1760  0.0171
 2064TIP3    H127607   6.353   2.397   3.259 -0.5039  0.2539  0.4952
 2064TIP3    H227608   6.233   2.487   3.278 -1.5035 -0.5678 -1.8366
 2065TIP3   OH227609   5.264   0.907   2.174  0.4945  0.1882  0.3472
 2065TIP3    H127610   5.292   0.830   2.223  0.0763 -0.9060 -1.0835
 2065TIP3    H227611   5.321   0.909   2.097 -1.3230 -0.3451 -1.0629
 2066TIP3   OH227612   0.220   0.768   5.503  0.0384 -0.2872  0.1043
 2066TIP3    H127613   0.250   0.677   5.505 -2.5262 -1.1825 -0.3290
 2066TIP3    H227614   0.286   0.814   5.451  1.1662 -1.9709  0.0083
 2067TIP3   OH227615   0.403   5.105   5.106  0.3691 -0.4652 -0.1317
 2067TIP3    H127616   0.354   5.095   5.188 -1.2903 -0.6706 -1.1323
 2067TIP3    H227617   0.362   5.181   5.063  0.7039 -0.8543 -1.1391
 2068TIP3   OH227618   1.730   0.446  12.763  0.1330 -0.6949 -0.4373
 2068TIP3    H127619   1.666   0.489  12.706 -0.2724 -0.8194 -0.0810
 2068TIP3    H227620   1.779   0.518  12.803 -1.3731 -0.5123  1.1212
 2069TIP3   OH227621   2.478   1.968   3.588 -0.2756 -0.3349  0.2665
 2069TIP3    H127622   2.478   1.876   3.560  0.8502 -1.0882  2.6232
 2069TIP3    H227623   2.388   1.997   3.573 -0.3490 -1.4564 -1.6185
 2070TIP3   OH227624   1.904   4.025   2.095 -0.4494  0.9334  0.1850
 2070TIP3    H127625   1.919   4.097   2.157 -0.2635  0.2244  0.9618
 2070TIP3    H227626   1.950   3.950   2.133 -0.7841  0.3530 -0.5414
 2071TIP3   OH227627   0.113   2.079  15.172  0.9372 -0.1686 -0.2505
 2071TIP3    H127628   0.045   2.121  15.224  1.9544 -1.6287  2.3212
 2071TIP3    H227629   0.193   2.127  15.193  1.1042  0.2661 -1.7536
 2072TIP3   OH227630   5.701   4.679  10.859 -0.1944  0.6672  0.0131
 2072TIP3    H127631   5.763   4.627  10.809  1.0733  2.4658 -0.3231
 2072TIP3    H227632   5.617   4.667  10.815  0.1639 -0.7709 -0.2763
 2073TIP3   OH227633   1.517   3.254  16.045 -0.1619 -0.1236 -0.4812
 2073TIP3    H127634   1.599   3.257  16.095  0.0259  0.5395 -0.8144
 2073TIP3    H227635   1.459   3.314  16.092 -0.2852 -0.1993 -0.5417
 2074TIP3   OH227636   0.380   3.436   1.041  0.1666  0.3484 -0.2723
 2074TIP3    H127637   0.364   3.371   1.109 -1.2184 -0.0603 -0.9575
 2074TIP3    H227638   0.471   3.425   1.017  0.0974 -0.9214  0.0462
 2075TIP3   OH227639   0.566   2.644  14.555 -0.5330  0.1239 -0.3582
 2075TIP3    H127640   0.471   2.652  14.546 -0.4007  1.4545 -0.7070
 2075TIP3    H227641   0.590   2.715  14.614  0.4104  0.6410 -1.3529
 2076TIP3   OH227642   2.421   1.715   2.604  0.3761 -0.1780  0.6042
 2076TIP3    H127643   2.501   1.748   2.646  0.6376 -0.3160  0.2126
 2076TIP3    H227644   2.436   1.726   2.511 -0.2551  0.2254  0.5475
 2077TIP3   OH227645   3.951   6.567  14.132 -0.2840  0.5266 -1.0794
 2077TIP3    H127646   3.885   6.588  14.066 -1.0938 -0.5544 -0.6359
 2077TIP3    H227647   4.012   6.509  14.087 -1.2490 -0.8179 -0.6912
 2078TIP3   OH227648   5.985   0.402  12.142  0.0847  0.8151  0.3530
 2078TIP3    H127649   6.006   0.423  12.233  1.8115  1.5592 -0.2172
 2078TIP3    H227650   6.062   0.355  12.110  0.6943  3.0457 -1.5691
 2079TIP3   OH227651   6.740   5.027   4.335  0.2083  0.1760 -0.6674
 2079TIP3    H127652   6.809   5.012   4.400 -0.9269  0.9425  0.7343
 2079TIP3    H227653   6.766   4.973   4.260  1.4577 -0.8492  0.4715
 2080TIP3   OH227654   0.885   1.220   0.004  0.3313 -0.5266  0.0182
 2080TIP3    H127655   0.844   1.250  -0.077 -0.1215  0.5783  0.6542
 2080TIP3    H227656   0.812   1.206   0.064  0.7732 -0.0451  0.6640
 2081TIP3   OH227657   6.535   1.367  13.426  0.5788  0.7850  0.5526
 2081TIP3    H127658   6.502   1.325  13.346  0.3911  1.6631  0.1590
 2081TIP3    H227659   6.601   1.307  13.460  0.7869  0.4877 -0.3728
 2082TIP3   OH227660   0.617   2.531   2.407  0.2330 -0.2643 -0.2901
 2082TIP3    H127661   0.615   2.440   2.437  1.3710 -0.5423 -1.0084
 2082TIP3    H227662   0.526   2.551   2.386  0.0065 -1.3266 -0.3716
 2083TIP3   OH227663   6.750   4.450   2.187  0.0460 -0.6059  0.2818
 2083TIP3    H127664   6.837   4.487   2.205 -0.3420 -0.5448  2.2135
 2083TIP3    H227665   6.697   4.525   2.161  0.3906 -0.5176 -0.1640
 2084TIP3   OH227666   5.511   2.430  14.767 -0.3071  0.3035  0.1949
 2084TIP3    H127667   5.577   2.498  14.780 -0.2248  0.1393  0.6319
 2084TIP3    H227668   5.445   2.447  14.834 -0.5843  0.3120 -0.0777
 2085TIP3   OH227669   5.151   1.526   0.143 -0.6441  0.5334 -0.2419
 2085TIP3    H127670   5.087   1.542   0.075 -1.4699 -0.8351  0.1966
 2085TIP3    H227671   5.180   1.437   0.129  1.4743  1.2659 -0.6723
 2086TIP3   OH227672   5.587   3.886  16.425  0.3286  0.4482 -0.3466
 2086TIP3    H127673   5.531   3.949  16.471 -0.4091 -0.9379  0.6902
 2086TIP3    H227674   5.674   3.902  16.461 -0.1008 -0.0664  0.9642
 2087TIP3   OH227675   3.738   3.835   5.536 -0.6659 -0.2101  0.1667
 2087TIP3    H127676   3.723   3.817   5.629 -0.0954  1.2404  0.5494
 2087TIP3    H227677   3.655   3.811   5.494 -0.4551 -2.2684  0.8273
 2088TIP3   OH227678   0.622   1.989   2.628  1.2704  0.5322  0.7435
 2088TIP3    H127679   0.635   1.895   2.617 -1.4932  0.4138 -2.0386
 2088TIP3    H227680   0.706   2.027   2.603  1.1615 -0.9801 -2.1041
 2089TIP3   OH227681   2.529   1.655  11.530  0.6723 -0.0578 -0.1386
 2089TIP3    H127682   2.598   1.619  11.474  1.9818 -1.4475  2.2989
 2089TIP3    H227683   2.574   1.684  11.609 -1.4163 -0.1541  1.1284
 2090TIP3   OH227684   1.901   3.603   4.055  0.0045  0.2957 -0.0598
 2090TIP3    H127685   1.934   3.692   4.039 -0.6022  0.7678  1.2386
 2090TIP3    H227686   1.950   3.572   4.131  0.0504 -0.3932 -0.3703
 2091TIP3   OH227687   6.753   0.518  14.993 -0.0008 -0.4108 -0.2517
 2091TIP3    H127688   6.747   0.613  14.991  0.5124 -0.3922 -1.1649
 2091TIP3    H227689   6.803   0.495  14.915  1.0688 -1.3440  0.6884
 2092TIP3   OH227690   2.833   1.044   0.477 -0.0909  0.5102  0.1000
 2092TIP3    H127691   2.747   1.015   0.507 -1.0780  2.7771 -0.4487
 2092TIP3    H227692   2.848   0.997   0.396  0.5536 -2.1598  1.6930
 2093TIP3   OH227693   0.543   1.708  15.403  0.0815 -0.2570  0.0058
 2093TIP3    H127694   0.550   1.784  15.345 -0.0588 -1.4343 -1.5753
 2093TIP3    H227695   0.616   1.717  15.463 -0.8938  2.0215  0.9234
 2094TIP3   OH227696   2.961   4.541   2.732 -0.0460 -0.2164 -0.5177
 2094TIP3    H127697   3.000   4.472   2.677  0.5188 -0.3245  0.0066
 2094TIP3    H227698   2.885   4.570   2.683  1.0825  0.4758 -1.9178
 2095TIP3   OH227699   5.116   3.866  14.477 -0.5125 -0.0924  0.9503
 2095TIP3    H127700   5.197   3.821  14.451 -0.8673 -1.7936  2.6715
 2095TIP3    H227701   5.141   3.958  14.485  0.9208 -0.3939  0.1155
 2096TIP3   OH227702   2.631   2.037  16.927  0.1425 -0.0727  0.1538
 2096TIP3    H127703   2.727   2.043  16.929  0.1796 -0.6312  0.1138
 2096TIP3    H227704   2.610   2.030  16.834 -0.0313  1.3900  0.0598
 2097TIP3   OH227705   2.959   1.613  13.507  0.4903  0.1989 -0.1045
 2097TIP3    H127706   2.905   1.676  13.554  2.2618  1.6350  0.0711
 2097TIP3    H227707   2.983   1.659  13.426 -1.6934 -1.8519 -1.9771
 2098TIP3   OH227708   4.820   1.801   4.693 -0.0026  0.3417 -0.1717
 2098TIP3    H127709   4.780   1.877   4.651 -0.5867 -2.5096 -5.1061
 2098TIP3    H227710   4.748   1.760   4.741 -0.6539  0.7256 -0.8020
 2099TIP3   OH227711   1.357   2.242   1.394 -0.6857  0.8221  0.1225
 2099TIP3    H127712   1.267   2.248   1.361 -0.4210  1.8212 -0.4486
 2099TIP3    H227713   1.368   2.150   1.416 -2.5548  1.0405  2.1926
 2100TIP3   OH227714   3.576   3.155  13.230  0.5460 -0.2099 -0.0311
 2100TIP3    H127715   3.594   3.062  13.219 -1.5654 -0.6080 -0.3425
 2100TIP3    H227716   3.528   3.180  13.151 -1.2379  0.5086  1.2535
 2101TIP3   OH227717   0.043   6.752   3.403 -0.4464  0.8132  0.4480
 2101TIP3    H127718   0.067   6.841   3.427  2.0993  0.2245  0.2483
 2101TIP3    H227719   0.124   6.714   3.368 -2.0419 -0.8831 -1.5355
 2102TIP3   OH227720   2.352   4.370  12.172  0.3754 -0.9380 -0.4018
 2102TIP3    H127721   2.308   4.349  12.089  1.6121  0.6123 -1.4790
 2102TIP3    H227722   2.437   4.404  12.146  1.3169 -1.6941  1.5826
 2103TIP3   OH227723   3.392   1.750   5.289 -0.3760 -0.2468 -0.8941
 2103TIP3    H127724   3.403   1.655   5.295 -3.5600 -0.6260  0.3437
 2103TIP3    H227725   3.301   1.764   5.315 -0.2544  3.0612 -2.0929
 2104TIP3   OH227726   6.593   3.406   4.073  0.0928 -0.3911 -0.4200
 2104TIP3    H127727   6.661   3.395   4.006  0.4218  0.2147 -0.1874
 2104TIP3    H227728   6.511   3.400   4.025  0.3274  0.0995 -0.8846
 2105TIP3   OH227729   0.469   6.622  15.471  0.0118  0.5683  0.4106
 2105TIP3    H127730   0.418   6.543  15.490  1.5230 -0.1610  1.5491
 2105TIP3    H227731   0.443   6.685  15.538 -0.2908  0.6166  0.2469
 2106TIP3   OH227732   3.278   4.793  15.534  0.2006 -0.4690  0.2654
 2106TIP3    H127733   3.243   4.798  15.445 -0.8372 -1.2905  0.6269
 2106TIP3    H227734   3.282   4.884  15.563  0.4676 -0.2061 -0.5948
 2107TIP3   OH227735   5.795   3.613  17.200 -0.3815  0.0111 -0.0275
 2107TIP3    H127736   5.751   3.648  17.122  0.9063  1.2622 -0.2197
 2107TIP3    H227737   5.878   3.580  17.168 -0.5429 -0.9986  0.5708
 2108TIP3   OH227738   4.027   6.561  16.463 -0.0923 -0.1220  0.0056
 2108TIP3    H127739   4.037   6.522  16.376  1.1178 -1.8584  0.8713
 2108TIP3    H227740   3.949   6.519  16.499 -1.2015  1.3718 -0.6153
 2109TIP3   OH227741   5.889   4.822  10.987  0.3461  0.9000 -0.5283
 2109TIP3    H127742   5.832   4.750  10.961  0.8796  0.9355 -1.8210
 2109TIP3    H227743   5.896   4.814  11.082  0.6896 -0.9782 -0.6991
 2110TIP3   OH227744   3.359   1.412  12.554 -0.9145 -0.2276  0.3965
 2110TIP3    H127745   3.266   1.402  12.535 -0.6506 -0.5992 -0.7426
 2110TIP3    H227746   3.397   1.442  12.471  0.0161 -0.2976  0.7891
 2111TIP3   OH227747   5.092   3.650   5.673  0.1955  0.2605 -0.0009
 2111TIP3    H127748   5.047   3.682   5.752  0.3213 -0.6511  0.4509
 2111TIP3    H227749   5.170   3.705   5.667  0.1625  0.3713  0.4914
 2112TIP3   OH227750   0.326   4.671   4.903  0.0271  0.2472 -0.2055
 2112TIP3    H127751   0.317   4.673   4.998 -2.9279  0.6319 -0.4410
 2112TIP3    H227752   0.354   4.760   4.879  1.1146  0.0494  0.3184
 2113TIP3   OH227753   2.505   6.068   3.637  0.2522 -0.2713  0.0859
 2113TIP3    H127754   2.555   6.134   3.685 -3.1641  0.7017  2.4931
 2113TIP3    H227755   2.503   5.993   3.696  2.6538 -2.0165 -1.9230
 2114TIP3   OH227756   6.780   1.781   5.945 -0.1687  0.1358  0.0966
 2114TIP3    H127757   6.807   1.789   6.037 -0.1832 -0.6860  0.1765
 2114TIP3    H227758   6.686   1.796   5.946 -0.1935 -0.0313  0.2384
 2115TIP3   OH227759   0.887   0.967  13.995 -0.2041 -0.0867 -0.6971
 2115TIP3    H127760   0.819   0.907  14.025  2.1171 -3.0088 -1.0555
 2115TIP3    H227761   0.938   0.987  14.073  1.1600 -1.5004 -1.1864
 2116TIP3   OH227762   5.674   3.914   5.141  0.1779 -0.0906  0.4789
 2116TIP3    H127763   5.629   3.987   5.182  1.4495  1.0548 -0.1238
 2116TIP3    H227764   5.642   3.836   5.188 -2.5116  0.6483 -0.0240
 2117TIP3   OH227765   2.855   0.039  16.615  0.4254 -0.6440  0.0007
 2117TIP3    H127766   2.785   0.012  16.556  1.2341  2.1755 -2.3705
 2117TIP3    H227767   2.811   0.090  16.684  0.1034  1.3033 -1.5985
 2118TIP3   OH227768   0.336   1.260  11.308 -0.4101 -0.9420 -0.7239
 2118TIP3    H127769   0.252   1.239  11.267 -0.4269 -1.8858 -0.2306
 2118TIP3    H227770   0.386   1.304  11.240 -0.6067 -2.0864 -1.6321
 2119TIP3   OH227771   4.635   2.918  12.197 -0.2746  0.0210  0.3154
 2119TIP3    H127772   4.558   2.861  12.195  0.4688 -0.9955 -2.0327
 2119TIP3    H227773   4.602   3.003  12.226 -1.9094 -0.9115  1.2192
 2120TIP3   OH227774   1.170   0.113   6.155 -1.0925  0.5029  0.2908
 2120TIP3    H127775   1.189   0.191   6.103  0.9362  1.6421  2.6092
 2120TIP3    H227776   1.190   0.139   6.245 -0.0952 -2.7456  1.0878
 2121TIP3   OH227777   1.513   2.501  13.410  0.3946 -0.2151  0.0559
 2121TIP3    H127778   1.609   2.492  13.408  0.3579 -0.3965 -2.2262
 2121TIP3    H227779   1.492   2.513  13.502  2.7295  0.8956  0.4821
 2122TIP3   OH227780   5.296   1.609   0.946 -0.1166 -0.2251 -0.2948
 2122TIP3    H127781   5.219   1.654   0.912 -0.7070  0.6023  2.0782
 2122TIP3    H227782   5.369   1.645   0.894 -0.4556  4.0748  1.9330
 2123TIP3   OH227783   3.573   5.300   0.314  0.8782 -0.1502  0.1609
 2123TIP3    H127784   3.511   5.325   0.382 -1.8669 -0.1469 -2.2673
 2123TIP3    H227785   3.587   5.381   0.264  2.2911 -0.3449  0.2137
 2124TIP3   OH227786   4.436   1.019   1.348 -0.5581 -0.1744  0.0370
 2124TIP3    H127787   4.502   1.067   1.298 -1.4185  0.2964 -0.6610
 2124TIP3    H227788   4.396   0.961   1.284 -3.0599  1.8731 -0.3171
 2125TIP3   OH227789   6.433   3.282   2.711 -0.9179 -0.0048 -0.6319
 2125TIP3    H127790   6.346   3.273   2.750  1.0746 -1.1915  3.7563
 2125TIP3    H227791   6.474   3.354   2.759  1.6077 -1.4795 -0.5049
 2126TIP3   OH227792   1.805   5.924   4.288  0.0116  0.3674  0.4818
 2126TIP3    H127793   1.845   5.931   4.201  0.2977 -1.4997  0.4506
 2126TIP3    H227794   1.856   5.985   4.342  1.8211 -0.7113  0.0397
 2127TIP3   OH227795   2.079   1.502   4.983 -0.0739  0.2140 -0.1036
 2127TIP3    H127796   2.039   1.544   4.908  1.2268 -0.8796 -1.4438
 2127TIP3    H227797   2.052   1.410   4.977  1.6999 -0.3086 -0.4080
 2128TIP3   OH227798   5.362   1.692   0.160 -0.0896 -0.2916 -0.2371
 2128TIP3    H127799   5.291   1.628   0.150 -0.9676  0.5529  0.5529
 2128TIP3    H227800   5.329   1.771   0.117  0.8967 -0.2909 -0.9919
 2129TIP3   OH227801   6.302   2.322  14.389  0.3266 -0.6499 -0.1165
 2129TIP3    H127802   6.264   2.317  14.477  0.7262  2.3648  0.3096
 2129TIP3    H227803   6.230   2.298  14.330 -0.4844 -0.9307  0.9674
 2130TIP3   OH227804   0.018   0.696   2.452 -0.1899  0.1997  0.5146
 2130TIP3    H127805  -0.053   0.635   2.471 -0.9381  1.2391  1.0518
 2130TIP3    H227806   0.072   0.649   2.388  0.5974 -2.0266  2.7312
 2131TIP3   OH227807   2.371   5.078  11.242  0.2587  0.0359 -0.2797
 2131TIP3    H127808   2.289   5.045  11.278  1.7314 -2.4024  0.9526
 2131TIP3    H227809   2.362   5.066  11.148 -1.0169  0.3241 -0.2060
 2132TIP3   OH227810   3.913   6.021  12.208  0.2354 -0.5563  0.0454
 2132TIP3    H127811   3.939   6.107  12.242 -1.4753 -0.0220  0.0556
 2132TIP3    H227812   3.956   5.958  12.266 -0.3071  0.3191  1.4293
 2133TIP3   OH227813   4.576   5.774  14.602 -0.0042 -0.0266  0.5190
 2133TIP3    H127814   4.660   5.785  14.646  0.5195  0.0540 -0.5025
 2133TIP3    H227815   4.550   5.862  14.576 -0.6025 -0.0001  1.1880
 2134TIP3   OH227816   1.504   4.513  14.921 -0.3562 -0.2610  0.1147
 2134TIP3    H127817   1.532   4.581  14.859  0.4110 -0.1464  0.5778
 2134TIP3    H227818   1.422   4.546  14.958 -1.8198 -1.1572 -2.1733
 2135TIP3   OH227819   5.727   6.674  16.602 -0.3379  0.5052 -0.6386
 2135TIP3    H127820   5.661   6.717  16.657  0.3249 -0.6701  1.1517
 2135TIP3    H227821   5.810   6.711  16.631  0.2419 -1.9088  0.9316
 2136TIP3   OH227822   0.282   5.451  14.038  0.4439 -0.6184  0.6051
 2136TIP3    H127823   0.319   5.458  13.950 -1.7856 -0.2679 -0.3450
 2136TIP3    H227824   0.352   5.412  14.091  1.8027 -0.8532 -1.3219
 2137TIP3   OH227825   2.756   5.934  12.808 -0.3322  0.1881 -0.2742
 2137TIP3    H127826   2.785   5.911  12.720 -1.2425 -2.9951  0.2012
 2137TIP3    H227827   2.838   5.953  12.855  0.6956 -3.5171 -0.3753
 2138TIP3   OH227828   1.091   3.975  14.073  0.6234  1.0631  0.2450
 2138TIP3    H127829   1.048   3.969  14.159  0.6220  2.2541  0.3489
 2138TIP3    H227830   1.183   3.987  14.094  1.0989 -1.8699  0.0159
 2139TIP3   OH227831   1.284   0.020  13.408  0.7099 -0.1328  0.1509
 2139TIP3    H127832   1.241  -0.064  13.425  1.8392 -0.8374 -0.4171
 2139TIP3    H227833   1.254   0.044  13.320 -1.2345  1.0933  1.1012
 2140TIP3   OH227834   4.288   2.644   4.188 -0.0869  0.4806 -0.1609
 2140TIP3    H127835   4.357   2.634   4.254  1.0770  0.6692 -1.3314
 2140TIP3    H227836   4.249   2.557   4.182  0.6758  0.1298 -0.1550
 2141TIP3   OH227837   5.161   4.791  16.024 -0.4927  0.6562  0.0487
 2141TIP3    H127838   5.227   4.766  16.089  0.3625 -0.4757 -1.2255
 2141TIP3    H227839   5.144   4.884  16.041  1.5419  0.9981  0.3207
 2142TIP3   OH227840   0.737   3.952   0.584  0.6356 -0.0278  0.0501
 2142TIP3    H127841   0.652   3.932   0.546  1.3872 -3.5282  0.1050
 2142TIP3    H227842   0.801   3.917   0.522  2.0528  1.3015  0.7038
 2143TIP3   OH227843   2.954   4.927   3.230 -0.0018  0.1782  0.2364
 2143TIP3    H127844   2.923   4.839   3.252 -0.9794  0.8731  1.7461
 2143TIP3    H227845   2.879   4.983   3.249  0.3371  1.2460 -1.5349
 2144TIP3   OH227846   0.586   4.975  14.033  0.4449 -0.3805 -0.4924
 2144TIP3    H127847   0.655   5.019  13.983  1.7739  0.7929  2.2525
 2144TIP3    H227848   0.564   5.037  14.102 -0.0299 -2.6745  1.4549
 2145TIP3   OH227849   0.652   2.795  10.839 -0.1099 -0.0875 -0.3778
 2145TIP3    H127850   0.686   2.725  10.895 -0.6177  0.1463  0.2308
 2145TIP3    H227851   0.711   2.869  10.854 -1.3866  0.6159  1.3810
 2146TIP3   OH227852   2.562   0.379  11.187 -0.0884  0.0527  0.3321
 2146TIP3    H127853   2.487   0.364  11.131 -0.7779 -0.5132  1.3846
 2146TIP3    H227854   2.634   0.399  11.127 -0.3597 -2.3416 -0.8613
 2147TIP3   OH227855   0.901   1.791  12.905  0.0646 -0.0161  0.2535
 2147TIP3    H127856   0.953   1.716  12.874 -1.5989 -1.3960  0.6955
 2147TIP3    H227857   0.934   1.866  12.856  2.0562 -0.9748  0.1099
 2148TIP3   OH227858   1.949   3.383   3.396 -0.0417 -0.6220 -0.3027
 2148TIP3    H127859   2.011   3.440   3.443 -0.5829 -1.1727  1.1152
 2148TIP3    H227860   1.893   3.347   3.465 -0.4377 -1.9756 -1.3087
 2149TIP3   OH227861   4.433   4.953   6.511  0.0146  0.0007  0.1905
 2149TIP3    H127862   4.354   4.913   6.475  0.5334 -0.4566 -0.4366
 2149TIP3    H227863   4.450   4.904   6.592 -0.9712  0.8265  0.9157
 2150TIP3   OH227864   4.498   6.220  12.276  0.0647  0.2250 -0.1770
 2150TIP3    H127865   4.536   6.306  12.290  0.1072  0.2608 -0.5097
 2150TIP3    H227866   4.574   6.162  12.263  0.0006  0.3566 -1.1787
 2151TIP3   OH227867   3.485   0.504   4.870 -0.0253 -0.2547 -0.3179
 2151TIP3    H127868   3.431   0.435   4.908  0.5677 -0.8393 -0.5364
 2151TIP3    H227869   3.543   0.459   4.809 -0.7128  0.6264 -1.6450
 2152TIP3   OH227870   2.735   2.606  12.440  0.2568 -0.2389 -0.1836
 2152TIP3    H127871   2.665   2.560  12.395 -0.2363 -0.1666  0.4983
 2152TIP3    H227872   2.738   2.567  12.527  0.0262  0.8188  0.3069
 2153TIP3   OH227873   5.667   0.545   0.821 -0.4483 -0.2661  0.0633
 2153TIP3    H127874   5.617   0.627   0.822  0.6722  0.4270 -0.4361
 2153TIP3    H227875   5.667   0.518   0.729  1.9425  0.8876 -0.3139
 2154TIP3   OH227876   6.034   3.728  12.378 -0.2519 -0.0479  0.0687
 2154TIP3    H127877   6.078   3.661  12.431  1.1114  0.7363 -0.0624
 2154TIP3    H227878   5.941   3.709  12.388  0.0702 -1.0175  1.2829
 2155TIP3   OH227879   3.133   0.928   4.087 -0.1040 -0.4269 -0.4963
 2155TIP3    H127880   3.060   0.921   4.149 -0.5814 -0.2154 -1.0337
 2155TIP3    H227881   3.135   0.843   4.043  0.0951 -0.4985 -0.3511
 2156TIP3   OH227882   4.438   2.019   5.556  0.2410 -0.0034  0.0901
 2156TIP3    H127883   4.347   2.025   5.585  0.2528 -0.3207  0.1931
 2156TIP3    H227884   4.433   1.979   5.469  0.3737 -1.2623  0.6499
 2157TIP3   OH227885   2.233   4.557   5.960 -0.4223  0.5093 -0.2715
 2157TIP3    H127886   2.289   4.588   6.031 -1.8022  0.6508  0.7599
 2157TIP3    H227887   2.272   4.474   5.933  1.2928  1.4379 -0.7276
 2158TIP3   OH227888   4.830   1.899   5.699  0.0448 -0.5331  0.7614
 2158TIP3    H127889   4.776   1.854   5.635 -0.2605 -0.0615  0.6805
 2158TIP3    H227890   4.917   1.860   5.691  0.2754  0.2570 -0.6785
 2159TIP3   OH227891   1.984   4.126  13.028  0.2359  0.3220  0.1341
 2159TIP3    H127892   2.065   4.135  12.978 -0.3419 -0.8301 -1.0363
 2159TIP3    H227893   1.967   4.214  13.062  2.0133  0.5611  0.4844
 2160TIP3   OH227894   5.698   3.480   2.547  0.2247 -0.0509  0.0445
 2160TIP3    H127895   5.749   3.443   2.474  0.8828  1.0094 -0.0320
 2160TIP3    H227896   5.732   3.569   2.558 -1.8432  0.7890 -0.2336
 2161TIP3   OH227897   4.363   2.122   0.834  0.0851  0.1708 -0.5543
 2161TIP3    H127898   4.380   2.030   0.858  2.1798  0.7604  0.2863
 2161TIP3    H227899   4.319   2.159   0.911 -0.4118 -0.0170 -0.7445
 2162TIP3   OH227900   2.130   2.868  14.293  0.1892  0.0123  0.4624
 2162TIP3    H127901   2.219   2.855  14.261 -0.5760 -0.7742 -1.3917
 2162TIP3    H227902   2.097   2.780  14.312 -1.1061  0.0483 -1.4457
 2163TIP3   OH227903   1.043   1.682   0.111  0.3682  1.2406 -0.1304
 2163TIP3    H127904   0.985   1.665   0.036  1.3055 -0.8574 -0.4153
 2163TIP3    H227905   0.991   1.736   0.170 -1.4902  0.2935 -0.8720
 2164TIP3   OH227906   1.687   1.623  14.565 -0.3423  0.0118 -0.2939
 2164TIP3    H127907   1.694   1.577  14.481  0.8555 -1.0767  0.3889
 2164TIP3    H227908   1.595   1.611  14.590 -0.5394 -0.2501 -1.1173
 2165TIP3   OH227909   6.784   2.911  13.151  0.4236  0.3450 -0.0235
 2165TIP3    H127910   6.740   2.996  13.154  0.7360  0.5123 -0.2065
 2165TIP3    H227911   6.713   2.847  13.163  0.0243  0.5845 -1.0569
 2166TIP3   OH227912   3.943   4.587  11.452 -0.1008 -0.1649 -0.2500
 2166TIP3    H127913   3.892   4.507  11.465  1.6492 -1.3394 -0.3783
 2166TIP3    H227914   3.984   4.576  11.366 -1.5196  1.8407 -1.2246
 2167TIP3   OH227915   4.113   5.890  14.931  0.2928  0.0142 -0.2817
 2167TIP3    H127916   4.171   5.825  14.890  0.7168  1.6595 -2.4249
 2167TIP3    H227917   4.151   5.974  14.906 -0.6972  1.0954  1.7783
 2168TIP3   OH227918   1.436   6.679  14.415 -0.3779  0.1437 -0.4028
 2168TIP3    H127919   1.426   6.584  14.418 -1.8717  0.3021  0.4762
 2168TIP3    H227920   1.351   6.713  14.443 -0.0061  1.7466 -1.1341
 2169TIP3   OH227921   1.770   4.507  16.285  0.5335  0.0673  0.0645
 2169TIP3    H127922   1.703   4.554  16.334  0.1276 -0.6730  0.2130
 2169TIP3    H227923   1.739   4.417  16.281 -0.5515  0.5308 -3.4697
 2170TIP3   OH227924   2.655   5.314  16.982  0.3037  0.4837 -0.4199
 2170TIP3    H127925   2.702   5.253  16.925 -1.1288  0.0550 -1.1707
 2170TIP3    H227926   2.677   5.400  16.947  1.6447  0.3646  0.1059
 2171TIP3   OH227927   1.851   1.745  11.247 -0.3304  0.5890  0.0717
 2171TIP3    H127928   1.779   1.754  11.185 -0.6780  1.2727  0.5738
 2171TIP3    H227929   1.898   1.828  11.243 -0.0303  0.4352  0.3306
 2172TIP3   OH227930   0.788   0.788  11.472 -0.2787 -0.0759 -0.0357
 2172TIP3    H127931   0.810   0.881  11.479  2.9223 -0.7602 -0.1512
 2172TIP3    H227932   0.777   0.773  11.378  0.2624 -0.0249 -0.1088
 2173TIP3   OH227933   1.175   6.402  13.687  0.5253 -0.2095 -0.2351
 2173TIP3    H127934   1.164   6.312  13.718 -1.4819  0.0333 -0.1712
 2173TIP3    H227935   1.208   6.449  13.764 -1.3892 -0.2708  0.6455
 2174TIP3   OH227936   2.681   5.642  16.004 -0.4457 -0.3433 -0.0299
 2174TIP3    H127937   2.600   5.593  15.997 -0.5942 -0.3774  1.6161
 2174TIP3    H227938   2.654   5.733  16.013 -0.3470 -0.4099  1.0845
 2175TIP3   OH227939   1.343   2.203   0.040  0.4914  0.0400  0.1156
 2175TIP3    H127940   1.253   2.173   0.039  1.0938 -1.7870 -0.7348
 2175TIP3    H227941   1.353   2.252  -0.042  0.5436 -0.5741 -0.2442
 2176TIP3   OH227942   2.617   1.106   4.804 -0.3563 -0.2419  0.1959
 2176TIP3    H127943   2.667   1.029   4.779 -0.6339  0.1964 -1.8187
 2176TIP3    H227944   2.683   1.172   4.825 -0.0509  0.1912 -2.0015
 2177TIP3   OH227945   0.152   0.312   5.947  0.1599  0.2106 -0.0864
 2177TIP3    H127946   0.225   0.294   6.007 -0.7635  1.5917  1.5013
 2177TIP3    H227947   0.118   0.397   5.976 -0.2431  0.9604 -2.6613
 2178TIP3   OH227948   1.811   1.397  16.114 -0.0321 -0.0324 -0.0972
 2178TIP3    H127949   1.846   1.433  16.033  0.9581  1.4155  0.9664
 2178TIP3    H227950   1.877   1.334  16.143 -1.6737 -2.6863 -1.8554
 2179TIP3   OH227951   6.349   4.171   6.494  0.5317  0.5226  0.0068
 2179TIP3    H127952   6.399   4.140   6.569  0.6757  0.9606  0.0943
 2179TIP3    H227953   6.326   4.261   6.516 -0.0618  0.4092 -0.1514
 2180TIP3   OH227954   4.912   0.010   5.484 -0.6237 -0.6246 -0.2539
 2180TIP3    H127955   5.008   0.015   5.491 -0.5358 -1.3158 -0.9516
 2180TIP3    H227956   4.888   0.088   5.435 -0.0934 -2.1332 -3.0213
 2181TIP3   OH227957   3.990   2.708  13.166  0.0728  0.1607 -0.0386
 2181TIP3    H127958   3.911   2.697  13.113  0.6675 -0.5940 -0.7827
 2181TIP3    H227959   3.980   2.648  13.239 -0.0677  0.1080 -0.1016
 2182TIP3   OH227960   6.255   4.082  12.498 -0.0162 -0.3009 -0.2726
 2182TIP3    H127961   6.247   4.045  12.586 -0.2886  0.3021 -0.0391
 2182TIP3    H227962   6.165   4.090  12.467  0.1242 -1.5154 -1.0387
 2183TIP3   OH227963   4.048   1.027   3.938 -0.2996  0.7209  0.5680
 2183TIP3    H127964   4.083   1.101   3.886 -1.2507  0.8217  0.0551
 2183TIP3    H227965   3.999   1.069   4.009 -0.4022  0.5834  0.5782
 2184TIP3   OH227966   4.411   3.429   2.382 -0.8333  0.7253 -0.2620
 2184TIP3    H127967   4.500   3.463   2.371 -0.9746  1.6265  1.2434
 2184TIP3    H227968   4.391   3.386   2.299  0.0438  2.7233 -1.5351
 2185TIP3   OH227969   4.967   6.601  13.572 -0.7458  0.3725  0.5776
 2185TIP3    H127970   4.936   6.528  13.625  0.1845 -0.0268  0.5772
 2185TIP3    H227971   4.957   6.571  13.481  1.5981 -0.5792  0.6139
 2186TIP3   OH227972   2.593   4.024   2.593 -0.3531 -0.0987 -0.6098
 2186TIP3    H127973   2.626   4.099   2.544  2.0881  0.2569  1.4932
 2186TIP3    H227974   2.531   4.062   2.655  0.5554  0.1473  0.1593
 2187TIP3   OH227975   2.306   0.155   4.840  0.1818  0.1122  0.8649
 2187TIP3    H127976   2.367   0.084   4.818  0.5840  0.7497 -0.1114
 2187TIP3    H227977   2.251   0.164   4.762 -0.4358  0.2853  1.3210
 2188TIP3   OH227978   6.005   0.810  11.832 -0.4455 -0.6781  0.4344
 2188TIP3    H127979   6.018   0.829  11.925 -2.5198 -1.9126  1.0105
 2188TIP3    H227980   6.031   0.719  11.823 -0.9185 -0.7647 -0.0388
 2189TIP3   OH227981   4.397   5.904   3.276 -0.1286 -0.5481  0.3262
 2189TIP3    H127982   4.346   5.954   3.340  1.3990  0.2565  0.9492
 2189TIP3    H227983   4.464   5.965   3.246  1.7565 -2.1880  1.0853
 2190TIP3   OH227984   3.443   6.084  14.611 -0.8729  0.0838  0.1386
 2190TIP3    H127985   3.458   6.123  14.525  1.7049  1.1596  1.0370
 2190TIP3    H227986   3.502   6.009  14.613 -0.3698  0.5011  1.2223
 2191TIP3   OH227987   2.263   1.035   4.478 -0.2458  0.0777  0.5018
 2191TIP3    H127988   2.258   1.093   4.555  0.3874 -0.4489  0.9450
 2191TIP3    H227989   2.186   1.058   4.426 -0.6940  0.4233  1.3064
 2192TIP3   OH227990   2.659   3.021   3.969 -0.4412 -0.3381 -0.0131
 2192TIP3    H127991   2.678   2.953   3.904 -0.0476 -0.0233 -0.2237
 2192TIP3    H227992   2.673   2.978   4.053 -0.7665 -0.6902 -0.1344
 2193TIP3   OH227993   1.773   4.817   3.445  0.3508 -0.1942 -0.4396
 2193TIP3    H127994   1.722   4.765   3.382 -1.1371  0.4464  0.2370
 2193TIP3    H227995   1.727   4.900   3.451 -0.1661 -0.6266  2.3252
 2194TIP3   OH227996   1.050   3.694  12.404  0.0775  0.0470  0.7487
 2194TIP3    H127997   1.051   3.787  12.427  0.3825  0.0725  0.6382
 2194TIP3    H227998   1.108   3.653  12.469 -0.2811 -0.1071  0.9729
 2195TIP3   OH227999   4.691   2.602  15.343  0.3275 -0.2031  0.0551
 2195TIP3    H128000   4.741   2.522  15.364 -0.2519 -0.8726 -1.0670
 2195TIP3    H228001   4.668   2.592  15.251  1.0623  1.7188 -0.3615
 2196TIP3   OH228002   1.619   6.110  15.179  0.2546  0.2589 -0.0464
 2196TIP3    H128003   1.690   6.148  15.127  0.2983  1.0381  0.5668
 2196TIP3    H228004   1.576   6.049  15.120 -0.4563  2.0293 -1.4072
 2197TIP3   OH228005   4.273   2.126   4.034  0.1906  0.0406 -0.9082
 2197TIP3    H128006   4.272   2.091   3.946  0.4177  0.3060 -1.0186
 2197TIP3    H228007   4.360   2.165   4.044 -0.4038  1.4862 -1.1607
 2198TIP3   OH228008   2.797   1.621  13.215 -0.2488 -0.0868 -0.1243
 2198TIP3    H128009   2.782   1.656  13.303  2.0751 -1.1098  0.7336
 2198TIP3    H228010   2.892   1.612  13.209 -0.3388  0.2053 -2.8559
 2199TIP3   OH228011   5.038   6.528  14.320  0.3655  0.2164  0.5546
 2199TIP3    H128012   5.114   6.585  14.318 -1.3869  2.6856 -2.9579
 2199TIP3    H228013   4.967   6.583  14.352 -0.4938 -1.2653  1.2691
 2200TIP3   OH228014   1.967   2.432   1.667  0.2643 -0.7440  0.6492
 2200TIP3    H128015   1.934   2.477   1.745  2.4257 -2.4593  2.6296
 2200TIP3    H228016   2.021   2.497   1.623 -0.3208 -0.0066  1.0019
 2201TIP3   OH228017   6.571   2.805  15.238 -0.4687  0.3526 -0.6502
 2201TIP3    H128018   6.582   2.816  15.333 -1.9938  1.8011 -0.5985
 2201TIP3    H228019   6.536   2.889  15.209 -1.4684 -0.5987 -2.2621
 2202TIP3   OH228020   3.352   1.917  17.130 -0.1109  0.1211 -0.2793
 2202TIP3    H128021   3.267   1.949  17.100  0.3284  1.2714 -0.3406
 2202TIP3    H228022   3.385   1.987  17.186 -0.5637 -1.6689  2.2811
 2203TIP3   OH228023   4.521   4.092   1.636 -0.5637 -0.1368 -0.2331
 2203TIP3    H128024   4.564   4.125   1.715  0.6744  1.1795 -1.4498
 2203TIP3    H228025   4.500   4.001   1.657 -2.3800  0.8183  2.4967
 2204TIP3   OH228026   1.537   0.397  13.544 -0.4032 -0.0364 -0.8535
 2204TIP3    H128027   1.486   0.376  13.622 -0.1265 -0.3912 -0.7680
 2204TIP3    H228028   1.617   0.439  13.577 -1.0845  1.4548 -1.0328
 2205TIP3   OH228029   4.046   0.428  11.715 -0.6722  0.4273 -0.6450
 2205TIP3    H128030   4.012   0.469  11.636 -1.8646  1.5879  0.4550
 2205TIP3    H228031   3.975   0.434  11.779  1.3012  2.2601  1.4738
 2206TIP3   OH228032   0.807   2.824  16.010 -0.4477  0.2630  0.2806
 2206TIP3    H128033   0.816   2.755  15.944  1.0148  0.4054  0.3174
 2206TIP3    H228034   0.771   2.898  15.962 -1.5256 -0.3311  0.1309
 2207TIP3   OH228035   2.607   5.719   2.013  0.0870  0.0705  0.0157
 2207TIP3    H128036   2.598   5.786   2.081 -1.0303 -1.7099  1.6551
 2207TIP3    H228037   2.628   5.639   2.061  1.1343 -0.8333 -1.8991
 2208TIP3   OH228038   0.805   2.834   0.065  0.4531  0.0257  0.3580
 2208TIP3    H128039   0.812   2.929   0.067  0.4977  0.0739 -1.3250
 2208TIP3    H228040   0.895   2.803   0.066  0.4799  0.0549 -0.4785
 2209TIP3   OH228041   0.259   2.923   3.790  0.2344 -0.0805  0.1398
 2209TIP3    H128042   0.321   2.980   3.837  2.8406 -1.4250 -1.5324
 2209TIP3    H228043   0.240   2.971   3.709 -0.9602  0.3470  0.6699
 2210TIP3   OH228044   2.551   4.903   3.056 -0.3979 -0.0671  0.4663
 2210TIP3    H128045   2.594   4.915   3.140 -2.9370 -1.6763  2.0695
 2210TIP3    H228046   2.503   4.984   3.042  0.5650  0.4669  0.2242
 2211TIP3   OH228047   5.125   1.869   4.530 -0.2538  0.0586  0.0630
 2211TIP3    H128048   5.183   1.864   4.607 -0.8303  0.2566  0.5130
 2211TIP3    H228049   5.040   1.839   4.562 -0.2478 -0.8735 -0.7688
 2212TIP3   OH228050   2.264   3.341   4.915  0.5899  0.2965  0.2728
 2212TIP3    H128051   2.308   3.275   4.969 -0.9899 -2.1644 -1.3092
 2212TIP3    H228052   2.332   3.405   4.894  2.1504 -0.7724  1.9388
 2213TIP3   OH228053   0.846   3.068   4.605  0.3886  0.2543 -0.1415
 2213TIP3    H128054   0.795   3.055   4.685 -0.1727  0.4415 -0.4707
 2213TIP3    H228055   0.937   3.069   4.635  0.2292 -0.5029  0.3914
 2214TIP3   OH228056   3.619   4.803  12.785  0.4226 -0.2489 -0.0384
 2214TIP3    H128057   3.563   4.760  12.850  0.0904 -1.5931 -1.1885
 2214TIP3    H228058   3.565   4.873  12.750  1.5944  2.3664  3.1493
 2215TIP3   OH228059   2.149   2.973   2.297 -0.1240 -0.1020 -0.0125
 2215TIP3    H128060   2.183   2.963   2.386  0.8751 -2.1780 -0.5900
 2215TIP3    H228061   2.228   2.979   2.243 -0.7306  1.2817 -0.7545
 2216TIP3   OH228062   1.821   3.906   3.571 -0.5371 -0.0420  0.2205
 2216TIP3    H128063   1.828   3.815   3.541 -0.0731 -0.1782  0.7431
 2216TIP3    H228064   1.910   3.939   3.568 -0.7483  0.4862 -0.2415
 2217TIP3   OH228065   3.657   4.964  13.557 -0.3143 -0.7786  0.3832
 2217TIP3    H128066   3.632   4.938  13.468 -1.4146 -0.6444  0.6594
 2217TIP3    H228067   3.714   4.892  13.586  0.9795 -0.2785 -0.8360
 2218TIP3   OH228068   2.046   5.543  16.586 -0.1779 -0.2003  0.1678
 2218TIP3    H128069   2.133   5.557  16.548  0.1010 -1.9939  0.0902
 2218TIP3    H228070   2.062   5.490  16.664 -0.9743  1.5861  1.5563
 2219TIP3   OH228071   4.633   5.447   3.041  0.0065 -0.1870 -0.3345
 2219TIP3    H128072   4.650   5.354   3.025 -1.7509 -0.2939 -1.7653
 2219TIP3    H228073   4.584   5.449   3.123 -0.5411 -0.5903 -0.6457
 2220TIP3   OH228074   1.849   5.266  16.717  0.3997  0.4756  0.3588
 2220TIP3    H128075   1.779   5.213  16.679 -0.6366  2.1649 -0.1376
 2220TIP3    H228076   1.808   5.351  16.735  2.0357  1.1316  1.0945
 2221TIP3   OH228077   2.385   1.390   0.729 -0.0171  0.2547  0.0768
 2221TIP3    H128078   2.305   1.359   0.772  1.4740 -1.5777  1.6246
 2221TIP3    H228079   2.436   1.430   0.799  0.3685  1.5740 -0.9376
 2222TIP3   OH228080   1.891   2.657   3.486 -0.0587  0.5069 -0.0892
 2222TIP3    H128081   1.907   2.569   3.451 -0.0067  1.4174 -2.4916
 2222TIP3    H228082   1.804   2.653   3.525  0.1348 -0.7273  0.2340
 2223TIP3   OH228083   5.521   5.538   5.774  0.6229 -0.2991 -0.3717
 2223TIP3    H128084   5.570   5.576   5.848  0.9660  0.1434 -0.8199
 2223TIP3    H228085   5.577   5.553   5.698  0.3496 -0.9086 -0.7005
 2224TIP3   OH228086   1.656   3.921   2.098  0.0699 -0.6520  0.5488
 2224TIP3    H128087   1.740   3.967   2.096  0.2109 -0.8850  1.2442
 2224TIP3    H228088   1.612   3.949   2.017  0.3864  0.2681  0.6847
 2225TIP3   OH228089   2.931   6.755   3.656 -0.0298 -0.4619  0.3764
 2225TIP3    H128090   2.978   6.838   3.660 -1.5597  0.4881 -0.7689
 2225TIP3    H228091   2.997   6.691   3.629  1.2532  0.2865  1.6822
 2226TIP3   OH228092   4.315   2.155  14.674 -0.1396 -0.0474 -0.2081
 2226TIP3    H128093   4.299   2.082  14.734 -0.0481 -1.1650 -1.4995
 2226TIP3    H228094   4.330   2.231  14.731  0.4487 -1.1757  1.1806
 2227TIP3   OH228095   6.361   0.362   4.918 -0.5159 -0.2995 -0.1150
 2227TIP3    H128096   6.393   0.340   5.005 -2.2587 -0.6165  0.4744
 2227TIP3    H228097   6.420   0.431   4.888 -0.9817  1.1328  2.0993
 2228TIP3   OH228098   3.883   4.174   5.913  0.0174 -0.1709  0.2106
 2228TIP3    H128099   3.945   4.193   5.984 -0.6131  3.9347 -0.2331
 2228TIP3    H228100   3.808   4.134   5.956  1.0905 -1.0014  1.3431
 2229TIP3   OH228101   0.434   3.782   1.288 -0.1124 -0.0500 -0.1412
 2229TIP3    H128102   0.365   3.715   1.283 -1.3539  1.0398  1.6420
 2229TIP3    H228103   0.408   3.848   1.224 -0.9408  0.5282  0.7765
 2230TIP3   OH228104   5.718   0.160  15.962  0.0064 -0.0898 -0.1352
 2230TIP3    H128105   5.767   0.136  15.883 -1.5307 -0.9727 -0.8523
 2230TIP3    H228106   5.676   0.078  15.989 -0.0154  0.3591  1.2212
 2231TIP3   OH228107   1.133   0.003   1.735  0.1553  0.3788 -0.1880
 2231TIP3    H128108   1.110   0.078   1.680 -2.3763  0.6978  1.1951
 2231TIP3    H228109   1.134  -0.072   1.675 -0.1940  1.0904 -1.0851
 2232TIP3   OH228110   0.645   5.274  10.045  0.2402 -0.4071  0.3198
 2232TIP3    H128111   0.569   5.217  10.030 -0.7879  0.7383  1.0874
 2232TIP3    H228112   0.612   5.362  10.026  1.4210  0.0853  0.5571
 2233TIP3   OH228113   5.961   5.293  13.868 -0.0345  0.0033 -0.1021
 2233TIP3    H128114   5.885   5.249  13.907  0.1888  0.5008  0.9135
 2233TIP3    H228115   6.007   5.224  13.820 -0.0399 -0.7294  0.9283
 2234TIP3   OH228116   1.892   6.560  13.675  0.1047 -0.1163 -0.1673
 2234TIP3    H128117   1.861   6.586  13.761 -0.7105 -1.6495  0.0344
 2234TIP3    H228118   1.812   6.539  13.626  0.6805 -1.5970 -0.4984
 2235TIP3   OH228119   4.010   2.573   1.762  0.1942  0.2076 -0.2515
 2235TIP3    H128120   4.097   2.540   1.782 -0.2614 -0.4724  0.6409
 2235TIP3    H228121   3.954   2.540   1.833 -0.7323  0.8733 -0.6544
 2236TIP3   OH228122   2.869   1.779  16.050 -0.1648  0.0551 -0.5374
 2236TIP3    H128123   2.826   1.735  15.977 -1.9854  0.0937  0.4807
 2236TIP3    H228124   2.859   1.719  16.124  0.5022  0.5898 -0.0058
 2237TIP3   OH228125   5.712   0.683   1.667 -0.4405 -0.0165 -0.6344
 2237TIP3    H128126   5.672   0.745   1.728  0.5321  0.0604 -0.0618
 2237TIP3    H228127   5.686   0.597   1.700  0.0254  0.0272 -0.1596
 2238TIP3   OH228128   2.965   4.669   4.080  0.0429  0.1439 -0.5594
 2238TIP3    H128129   3.056   4.658   4.108  0.7243  1.0133 -2.3679
 2238TIP3    H228130   2.938   4.581   4.051  0.2702 -0.1369  0.0855
 2239TIP3   OH228131   0.995   2.171  11.885 -0.5628  0.0079  0.6397
 2239TIP3    H128132   1.068   2.233  11.883 -0.2411 -0.3907 -2.7430
 2239TIP3    H228133   1.003   2.128  11.970  2.7326  0.4833  0.6499
 2240TIP3   OH228134   1.445   5.498   4.844 -0.3740 -0.2944  0.4854
 2240TIP3    H128135   1.352   5.502   4.821 -0.8674  0.7568  2.5237
 2240TIP3    H228136   1.468   5.406   4.834 -1.6201 -0.5678 -0.0509
 2241TIP3   OH228137   3.899   2.275   1.809 -0.2422 -0.3361 -0.2393
 2241TIP3    H128138   3.974   2.230   1.847 -1.4595 -1.5924  0.7184
 2241TIP3    H228139   3.861   2.324   1.882 -1.3428 -1.0671 -0.3135
 2242TIP3   OH228140   4.261   2.952   1.739 -0.2799 -0.0378  0.4196
 2242TIP3    H128141   4.252   3.034   1.786 -0.6675 -0.8966  1.8922
 2242TIP3    H228142   4.172   2.917   1.735 -0.1826 -0.1726 -0.5799
 2243TIP3   OH228143   2.556   1.692   5.522  0.1622  0.0878 -0.4031
 2243TIP3    H128144   2.487   1.646   5.474 -0.1774 -0.2531  0.4025
 2243TIP3    H228145   2.636   1.672   5.473 -0.2992  0.4094 -1.2845
 2244TIP3   OH228146   3.754   3.028   1.037 -0.5654  0.3577  0.8098
 2244TIP3    H128147   3.827   3.030   1.098  0.3495 -0.7625 -0.2090
 2244TIP3    H228148   3.727   3.119   1.028  2.8224  1.2288 -1.2964
 2245TIP3   OH228149   2.088   0.695   2.404 -0.2170 -0.1100 -0.0016
 2245TIP3    H128150   2.149   0.768   2.398 -0.1929 -0.0739  0.6232
 2245TIP3    H228151   2.142   0.621   2.431 -0.4528 -0.0703  0.5851
 2246TIP3   OH228152   4.326   4.082  16.412  0.0177  0.4304  0.1116
 2246TIP3    H128153   4.295   4.131  16.489 -0.0748  0.5428  0.0058
 2246TIP3    H228154   4.405   4.128  16.385  0.4496 -0.0374  0.5697
 2247TIP3   OH228155   4.291   1.980  17.239  0.6550  1.0016  0.1413
 2247TIP3    H128156   4.354   1.921  17.280 -0.9354 -0.9419 -0.1450
 2247TIP3    H228157   4.232   2.007  17.309  0.4732  1.0355 -0.0216
 2248TIP3   OH228158   3.108   6.736  12.228 -0.3459 -0.0765  0.1643
 2248TIP3    H128159   3.187   6.788  12.240 -0.9935  1.3459 -1.5037
 2248TIP3    H228160   3.036   6.795  12.249 -1.0461 -0.6937 -0.4405
 2249TIP3   OH228161   0.342   2.406  15.992  0.1139  0.1781 -0.0877
 2249TIP3    H128162   0.329   2.422  16.086  0.1047 -0.9844  0.1206
 2249TIP3    H228163   0.430   2.367  15.987  0.2005  0.4401 -0.5880
 2250TIP3   OH228164   2.036   2.750   4.539 -0.5640 -0.1942 -0.5160
 2250TIP3    H128165   2.058   2.831   4.494  1.3546 -0.3047  0.1771
 2250TIP3    H228166   1.941   2.740   4.527 -0.9360  2.4804 -0.0396
 2251TIP3   OH228167   0.899   4.171   2.512 -0.3997  0.1828  0.1032
 2251TIP3    H128168   0.962   4.239   2.535 -1.2362  1.0808 -0.2628
 2251TIP3    H228169   0.953   4.094   2.494  0.5138  0.5735  1.1091
 2252TIP3   OH228170   5.499   4.091  15.818  0.0787  0.2492  0.4452
 2252TIP3    H128171   5.529   4.010  15.859  0.4204 -0.1586 -0.5841
 2252TIP3    H228172   5.570   4.116  15.760 -0.0445  1.2749  0.7260
 2253TIP3   OH228173   1.434   6.412  14.360  0.0616 -0.0323 -0.0112
 2253TIP3    H128174   1.422   6.341  14.296  0.0516  1.3329 -1.5721
 2253TIP3    H228175   1.529   6.424  14.363 -0.0017  0.6725 -0.6553
 2254TIP3   OH228176   0.684   6.721  17.093  0.3304 -0.1513 -0.0650
 2254TIP3    H128177   0.602   6.701  17.048 -0.0076  0.1031  0.4308
 2254TIP3    H228178   0.709   6.639  17.136  0.3664 -0.2434 -0.2570
 2255TIP3   OH228179   4.240   0.791  12.756 -0.6107 -0.3559 -0.6038
 2255TIP3    H128180   4.175   0.859  12.771  1.0814  0.9476  1.0409
 2255TIP3    H228181   4.290   0.822  12.680 -1.2626 -0.8840 -1.2590
 2256TIP3   OH228182   5.249   3.545   0.105 -0.2320 -0.2896  0.8712
 2256TIP3    H128183   5.239   3.602   0.029 -0.3147  0.0845  1.1667
 2256TIP3    H228184   5.339   3.511   0.097 -0.2150 -0.1961  0.6501
 2257TIP3   OH228185   6.786   4.870  13.325 -0.0633  0.4865  0.2919
 2257TIP3    H128186   6.748   4.788  13.358  1.9057 -0.7133 -0.3513
 2257TIP3    H228187   6.791   4.927  13.401  0.8072 -0.8679  1.2589
 2258TIP3   OH228188   5.637   4.157   3.167 -0.7839 -0.1095  0.0947
 2258TIP3    H128189   5.590   4.089   3.215 -0.9159 -0.4350 -0.4954
 2258TIP3    H228190   5.707   4.110   3.121 -0.1410  0.3137  0.6319
 2259TIP3   OH228191   5.501   1.894   3.471  0.2936 -0.3018  1.3022
 2259TIP3    H128192   5.491   1.901   3.566 -0.3078 -0.2142  1.2350
 2259TIP3    H228193   5.578   1.837   3.460  0.8652  0.3558  1.8324
 2260TIP3   OH228194   2.402   6.761   1.758 -0.2014  0.2862  0.5814
 2260TIP3    H128195   2.459   6.827   1.798 -0.9078  2.2695 -1.5591
 2260TIP3    H228196   2.462   6.698   1.718  0.4835  0.8294  0.7433
 2261TIP3   OH228197   0.645   5.143   1.737  0.4566  0.3766 -0.3212
 2261TIP3    H128198   0.721   5.187   1.699  2.1379 -1.1487  1.2212
 2261TIP3    H228199   0.668   5.050   1.738 -2.2303 -0.3644 -1.6319
 2262TIP3   OH228200   4.278   4.637   5.844  0.0553  0.0065  0.1710
 2262TIP3    H128201   4.277   4.686   5.927  0.5678  1.2106 -0.5190
 2262TIP3    H228202   4.362   4.592   5.844  0.8331  1.4188 -0.4842
 2263TIP3   OH228203   1.785   3.263   3.566 -0.5431  0.0734 -0.0079
 2263TIP3    H128204   1.775   3.259   3.661  0.1690 -1.4232  0.0114
 2263TIP3    H228205   1.723   3.198   3.533 -0.7110  0.5137 -0.5838
 2264TIP3   OH228206   4.355   6.784  16.184 -0.3100  0.5245 -0.5829
 2264TIP3    H128207   4.331   6.873  16.160  1.9235  0.8218 -1.8778
 2264TIP3    H228208   4.428   6.794  16.244  0.0369 -0.4296 -0.8298
 2265TIP3   OH228209   0.243   6.180   2.491 -0.2612  0.1625 -0.0771
 2265TIP3    H128210   0.296   6.106   2.463 -0.2968 -0.3438  1.1574
 2265TIP3    H228211   0.216   6.223   2.410 -1.2303 -1.8663 -0.8647
 2266TIP3   OH228212   1.393   1.295  15.947 -0.1861  0.5117 -0.1309
 2266TIP3    H128213   1.328   1.269  15.882  0.1055  1.5806 -0.8677
 2266TIP3    H228214   1.341   1.318  16.025 -0.8013  2.3437 -1.0418
 2267TIP3   OH228215   2.679   0.116  17.160 -0.4983  0.4674 -0.2841
 2267TIP3    H128216   2.596   0.162  17.165  0.2937  1.9634 -0.7679
 2267TIP3    H228217   2.732   0.154  17.230  0.1144  0.2073 -0.6038
 2268TIP3   OH228218   5.296   1.387   2.228  0.5539 -0.0069  0.2824
 2268TIP3    H128219   5.252   1.302   2.234  0.4582  0.1063  1.1881
 2268TIP3    H228220   5.240   1.439   2.171 -0.4903  0.1387  1.4328
 2269TIP3   OH228221   1.601   5.288  14.530  0.2996  0.5582 -0.0487
 2269TIP3    H128222   1.633   5.227  14.597  0.2120  1.8770  1.2201
 2269TIP3    H228223   1.680   5.323  14.490  0.3391 -1.0573 -1.4072
 2270TIP3   OH228224   3.988   1.550   1.296 -0.7300  0.1210  0.2986
 2270TIP3    H128225   4.033   1.544   1.380 -3.2471  0.0684  1.6865
 2270TIP3    H228226   3.945   1.466   1.285 -1.9374  0.7897 -0.1580
 2271TIP3   OH228227   1.536   4.135  16.543 -0.6764 -0.0197  0.4566
 2271TIP3    H128228   1.591   4.117  16.619 -1.4345 -1.0168  0.7880
 2271TIP3    H228229   1.519   4.229  16.546  1.5868  0.4384 -0.0607
 2272TIP3   OH228230   0.306   6.163   0.982 -0.5711  0.5409  0.0855
 2272TIP3    H128231   0.305   6.255   0.956  0.1895  0.9952  1.6477
 2272TIP3    H228232   0.246   6.121   0.920 -0.2622  1.9250 -1.1858
 2273TIP3   OH228233   3.402   0.588   3.398  0.3034 -0.8173  0.5772
 2273TIP3    H128234   3.471   0.639   3.441  1.7477 -1.1825 -1.2760
 2273TIP3    H228235   3.423   0.497   3.420  0.0127 -0.8821  0.5824
 2274TIP3   OH228236   2.990   3.948  16.111  0.1502  0.1982  0.6628
 2274TIP3    H128237   2.950   3.964  16.197 -0.7013 -2.0864  0.7209
 2274TIP3    H228238   2.920   3.909  16.059  0.5012  2.0864 -1.2749
 2275TIP3   OH228239   2.266   6.492   3.707  0.0816  0.8886  0.0656
 2275TIP3    H128240   2.312   6.506   3.625 -0.9711  0.0216 -0.6936
 2275TIP3    H228241   2.176   6.521   3.689 -0.4286 -0.3514  0.5669
 2276TIP3   OH228242   6.739   2.173  13.287 -0.2824  0.0341  0.4106
 2276TIP3    H128243   6.807   2.114  13.320 -1.3930 -1.1183  0.6965
 2276TIP3    H228244   6.713   2.225  13.363  0.6298  0.8346  0.1820
 2277TIP3   OH228245   6.082   1.493   3.755  0.2875  0.1035 -0.0844
 2277TIP3    H128246   6.174   1.468   3.748  0.1997 -0.2516  0.0101
 2277TIP3    H228247   6.076   1.538   3.839  0.1848 -0.7223  0.3578
 2278TIP3   OH228248   0.905   5.863   1.668 -0.0105  0.0154  0.0867
 2278TIP3    H128249   0.814   5.890   1.678 -0.2079 -0.2650 -0.8571
 2278TIP3    H228250   0.935   5.843   1.757 -1.0420 -0.4496  0.3298
 2279TIP3   OH228251   1.667   2.483  16.260 -0.0641 -0.0821  0.3363
 2279TIP3    H128252   1.601   2.502  16.193 -0.4544 -0.5816  0.5773
 2279TIP3    H228253   1.674   2.564  16.310  1.4804  0.8654 -1.3683
 2280TIP3   OH228254   2.145   0.841  11.126 -0.3900  0.3292 -0.0358
 2280TIP3    H128255   2.077   0.862  11.190 -1.3890  0.3427 -1.0926
 2280TIP3    H228256   2.148   0.917  11.069 -1.1307 -0.6469 -1.3986
 2281TIP3   OH228257   6.738   0.296  14.116 -0.2273  0.0774  0.3061
 2281TIP3    H128258   6.653   0.265  14.148 -1.7737 -0.7094 -4.2346
 2281TIP3    H228259   6.790   0.217  14.104  1.7240  0.6295  4.2104
 2282TIP3   OH228260   4.587   1.971  13.812 -0.0567 -0.1243 -0.6017
 2282TIP3    H128261   4.508   2.002  13.856  1.0816  0.3012  1.2070
 2282TIP3    H228262   4.569   1.879  13.791 -1.0527 -0.0063 -0.2604
 2283TIP3   OH228263   6.601   4.145   2.602  0.1145  0.0700 -0.2004
 2283TIP3    H128264   6.674   4.204   2.582  0.3829 -0.4100 -0.6648
 2283TIP3    H228265   6.552   4.138   2.519 -0.9112  1.0107  0.3162
 2284TIP3   OH228266   1.325   2.662  13.248  0.3048  0.0004 -0.2760
 2284TIP3    H128267   1.365   2.629  13.329  0.5771 -0.0293 -0.4239
 2284TIP3    H228268   1.303   2.584  13.199  0.4700  0.0271 -0.3922
 2285TIP3   OH228269   4.392   6.508  15.254  0.1926  0.4194  0.5020
 2285TIP3    H128270   4.404   6.553  15.338  0.4641 -1.1458  1.3218
 2285TIP3    H228271   4.457   6.438  15.255 -1.0934 -0.8203 -0.1625
 2286TIP3   OH228272   5.162   1.576  14.545  0.2660 -0.0460 -0.3863
 2286TIP3    H128273   5.121   1.651  14.588 -1.3964 -1.7200  1.0633
 2286TIP3    H228274   5.148   1.590  14.452 -2.2739  0.2024  0.0127
 2287TIP3   OH228275   0.448   1.733  11.678  0.2191  0.4812 -1.1758
 2287TIP3    H128276   0.465   1.826  11.693 -0.8221  0.5441 -0.2717
 2287TIP3    H228277   0.377   1.731  11.613 -0.0041  0.3330 -0.9321
 2288TIP3   OH228278   5.850   5.011   5.860 -0.1387  0.2459 -0.0952
 2288TIP3    H128279   5.771   5.049   5.821  0.3598  2.7216  1.1642
 2288TIP3    H228280   5.820   4.931   5.902 -2.0074  1.1482  0.3637
 2289TIP3   OH228281   5.136   2.383  14.019  0.3643 -0.4767  0.2148
 2289TIP3    H128282   5.126   2.429  14.103  1.1119 -0.2136  0.1671
 2289TIP3    H228283   5.231   2.377  14.007  0.2769  1.3906 -1.6623
 2290TIP3   OH228284   6.130   1.838   0.986  0.4680 -0.0677 -0.5671
 2290TIP3    H128285   6.181   1.917   0.968 -0.0219  0.3020 -0.3443
 2290TIP3    H228286   6.039   1.867   0.983  0.3180 -0.3132  0.9288
 2291TIP3   OH228287   2.141   2.838   6.500 -0.1700 -0.6500  0.3811
 2291TIP3    H128288   2.112   2.747   6.495 -1.3454 -0.3995  2.2331
 2291TIP3    H228289   2.059   2.889   6.500  0.3065  0.1927  3.3624
 2292TIP3   OH228290   0.795   5.290  16.121  0.0566 -0.0751 -0.2145
 2292TIP3    H128291   0.762   5.319  16.206  1.0555 -0.0388  0.1596
 2292TIP3    H228292   0.886   5.320  16.119  0.2880 -0.8316 -0.9450
 2293TIP3   OH228293   3.748   5.547   2.773 -0.0599 -0.0236 -0.6350
 2293TIP3    H128294   3.703   5.464   2.752  0.8678 -0.6268 -0.2601
 2293TIP3    H228295   3.816   5.522   2.834  0.9061  0.8625 -1.3410
 2294TIP3   OH228296   0.759   5.321  16.469 -0.1084 -0.4919  0.0397
 2294TIP3    H128297   0.669   5.340  16.494  0.0313  2.1878 -1.3231
 2294TIP3    H228298   0.793   5.267  16.540 -1.9458  0.7795  1.9201
 2295TIP3   OH228299   6.701   2.585   0.363 -0.3040 -0.3351 -1.0739
 2295TIP3    H128300   6.770   2.604   0.299  1.0078  1.3174  0.7762
 2295TIP3    H228301   6.687   2.668   0.408 -2.0738 -1.1705 -0.0512
 2296TIP3   OH228302   0.325   5.199   3.789 -0.1433 -0.0126  0.4748
 2296TIP3    H128303   0.312   5.265   3.857  0.3631  1.4343 -0.7938
 2296TIP3    H228304   0.417   5.174   3.798 -0.1607 -0.0514  0.5417
 2297TIP3   OH228305   5.959   4.581  12.357 -0.1395 -0.3171  0.3582
 2297TIP3    H128306   5.961   4.485  12.367  0.1276 -0.4098 -0.5281
 2297TIP3    H228307   5.899   4.596  12.285  1.4343  0.0545 -0.9009
 2298TIP3   OH228308   5.744   4.593  13.833  0.3337 -0.1075 -0.6912
 2298TIP3    H128309   5.686   4.648  13.887 -0.1443  0.9153 -2.2263
 2298TIP3    H228310   5.689   4.522  13.803  0.5341 -0.5352 -0.0604
 2299TIP3   OH228311   4.372   5.451  16.650 -0.1106 -0.8708  0.3667
 2299TIP3    H128312   4.431   5.394  16.601 -1.7150 -1.3283 -1.0872
 2299TIP3    H228313   4.291   5.450  16.600 -0.3833  2.2154  0.6371
 2300TIP3   OH228314   6.666   5.255   6.122  0.1035 -0.0818  0.4467
 2300TIP3    H128315   6.581   5.294   6.144  0.2223  1.7959 -2.2268
 2300TIP3    H228316   6.731   5.319   6.149  0.4585  0.2185 -1.0624
 2301TIP3   OH228317   5.896   0.057  13.237 -0.2531 -0.0318  0.1612
 2301TIP3    H128318   5.916   0.125  13.173  0.7483 -0.8373 -0.3855
 2301TIP3    H228319   5.895  -0.024  13.187 -1.1758 -0.4703  0.8606
 2302TIP3   OH228320   6.163   4.145  15.363 -0.0589  0.6959  0.2244
 2302TIP3    H128321   6.201   4.176  15.281 -1.6340  1.1540 -0.3476
 2302TIP3    H228322   6.131   4.057  15.343 -0.0433  0.6298  0.4826
 2303TIP3   OH228323   5.665   6.470  17.215 -0.6212 -0.0716 -0.0081
 2303TIP3    H128324   5.663   6.523  17.295  1.2606 -0.7955  0.5512
 2303TIP3    H228325   5.728   6.401  17.234  0.1046 -0.0582 -2.2472
 2304TIP3   OH228326   2.853   2.294  15.420 -0.0571 -0.1914 -0.0145
 2304TIP3    H128327   2.901   2.371  15.449  1.5675 -0.7826 -1.0849
 2304TIP3    H228328   2.814   2.321  15.336 -0.6474 -0.1016  0.2807
 2305TIP3   OH228329   2.938   1.679   4.581 -0.2029 -0.4365  0.5291
 2305TIP3    H128330   2.915   1.598   4.628 -2.0221 -0.1941  0.0972
 2305TIP3    H228331   2.991   1.649   4.507 -0.6116 -1.2232  0.5454
 2306TIP3   OH228332   0.652   1.486  13.588  0.3855  0.4391  0.5793
 2306TIP3    H128333   0.591   1.441  13.529  1.6768 -2.8640  1.6161
 2306TIP3    H228334   0.598   1.517  13.660 -0.4605 -0.1085  0.1845
 2307TIP3   OH228335   1.417   0.965  13.430 -0.1807 -0.1276 -0.0759
 2307TIP3    H128336   1.350   1.031  13.447  0.3976  0.2131  0.9411
 2307TIP3    H228337   1.368   0.885  13.412 -0.9099  0.7962 -2.3636
 2308TIP3   OH228338   4.680   4.956  14.927 -0.0185 -0.0624 -0.0051
 2308TIP3    H128339   4.693   4.955  14.832 -0.9960 -1.4486 -0.1315
 2308TIP3    H228340   4.675   5.049  14.949  2.9602  0.3460 -0.9167
 2309TIP3   OH228341   1.026   0.418   3.585 -0.4082  0.6125 -0.4125
 2309TIP3    H128342   1.017   0.462   3.669  3.6537  1.4463 -0.3138
 2309TIP3    H228343   1.045   0.488   3.522  0.2628 -0.3662 -1.3327
 2310TIP3   OH228344   3.518   4.645   6.431  0.5801  0.2379  0.1490
 2310TIP3    H128345   3.579   4.576   6.458 -0.7355 -1.4092 -0.9531
 2310TIP3    H228346   3.436   4.623   6.474 -0.0755  0.6388 -0.8737
 2311TIP3   OH228347   0.318   5.590   0.370  0.1551  0.3029  0.3526
 2311TIP3    H128348   0.277   5.506   0.392  0.7033 -0.0114  0.1977
 2311TIP3    H228349   0.356   5.575   0.283  0.3321  0.6844  0.3662
 2312TIP3   OH228350   1.686   0.988  12.942  0.2666  0.1984 -0.3382
 2312TIP3    H128351   1.659   1.024  13.027  0.7664  0.6656 -0.3716
 2312TIP3    H228352   1.743   0.915  12.964  1.2328  0.9614 -0.2630
 2313TIP3   OH228353   2.090   3.178   0.734  0.4127 -0.0056  0.5348
 2313TIP3    H128354   2.132   3.250   0.780  0.9149 -0.5588  0.9541
 2313TIP3    H228355   2.018   3.150   0.791 -0.9437  1.3552 -0.4758
 2314TIP3   OH228356   3.252   4.673   1.001 -0.2458  0.1657  0.2923
 2314TIP3    H128357   3.274   4.759   0.964 -0.3761 -0.6834 -1.8235
 2314TIP3    H228358   3.156   4.672   1.003 -0.2408  0.7098  1.9391
 2315TIP3   OH228359   1.063   3.960  16.648 -0.2652 -0.1080 -0.3242
 2315TIP3    H128360   1.021   4.035  16.606 -0.4296  0.0075  0.0440
 2315TIP3    H228361   1.155   3.986  16.658 -0.4459  0.2933  0.3614
 2316TIP3   OH228362   3.873   4.442   3.672 -0.2320  0.2914 -0.8036
 2316TIP3    H128363   3.929   4.481   3.740 -1.8724  1.8954 -0.3069
 2316TIP3    H228364   3.883   4.500   3.597 -0.9094  0.3733 -0.8365
 2317TIP3   OH228365   2.989   5.025  15.443 -0.0506  0.4942  0.5186
 2317TIP3    H128366   3.065   5.053  15.493 -0.8924  2.8461  0.5518
 2317TIP3    H228367   2.990   4.929  15.448  3.2048  0.4620  0.0315
 2318TIP3   OH228368   3.292   6.471  13.253  0.2913  0.0899 -0.3103
 2318TIP3    H128369   3.345   6.404  13.296 -0.3081  0.0008  0.2888
 2318TIP3    H228370   3.204   6.434  13.249  0.2045  0.3598 -1.0444
 2319TIP3   OH228371   6.490   0.009  15.015 -0.0933  0.1846 -0.0524
 2319TIP3    H128372   6.570  -0.038  14.990  0.5334  0.5807  1.1684
 2319TIP3    H228373   6.521   0.079  15.073 -1.3438  0.2697  0.5218
 2320TIP3   OH228374   5.941   2.887   3.870  0.7981  0.0220  0.1182
 2320TIP3    H128375   5.989   2.961   3.834  0.1526 -0.3542 -1.5625
 2320TIP3    H228376   5.885   2.925   3.938  1.0932  0.9470 -0.1478
 2321TIP3   OH228377   2.787   3.287  17.154  0.2380  0.2877 -0.0120
 2321TIP3    H128378   2.699   3.325  17.150 -0.5031 -1.5365 -1.9404
 2321TIP3    H228379   2.843   3.351  17.109 -0.1926  1.1775  0.6954
 2322TIP3   OH228380   3.118   0.377   4.082 -0.0282  0.1203 -0.2689
 2322TIP3    H128381   3.063   0.332   4.017  0.2766 -0.1880 -0.3147
 2322TIP3    H228382   3.056   0.410   4.147 -0.0323 -3.1361  1.4985
 2323TIP3   OH228383   3.855   1.249   0.787 -0.0803  0.6653 -0.2213
 2323TIP3    H128384   3.907   1.329   0.792 -0.2426  0.8112 -0.9050
 2323TIP3    H228385   3.829   1.232   0.878  1.5523  0.3304  0.2004
 2324TIP3   OH228386   4.217   2.326   2.631 -0.2020 -0.0136 -0.7291
 2324TIP3    H128387   4.167   2.271   2.571 -1.1729  0.0702 -0.0133
 2324TIP3    H228388   4.240   2.404   2.579 -2.2873  0.7257 -0.5941
 2325TIP3   OH228389   5.360   0.071  12.527  0.4482  0.0208  0.6065
 2325TIP3    H128390   5.289   0.131  12.549  0.4488  0.1834  0.1607
 2325TIP3    H228391   5.439   0.114  12.559  0.4678  0.3320  0.1324
 2326TIP3   OH228392   4.840   1.891  12.255  0.2180 -0.1369 -0.0774
 2326TIP3    H128393   4.867   1.974  12.294 -0.7353 -0.6577  1.7538
 2326TIP3    H228394   4.755   1.873  12.294 -1.2852 -0.1530 -3.2779
 2327TIP3   OH228395   3.417   4.575  16.171  0.4707  0.0397 -0.0611
 2327TIP3    H128396   3.386   4.646  16.228  2.7355  2.0553 -1.2465
 2327TIP3    H228397   3.378   4.594  16.086  0.7547 -0.3980 -0.2900
 2328TIP3   OH228398   2.426   2.324  15.933 -0.5916  0.5143  0.2103
 2328TIP3    H128399   2.459   2.352  16.018 -1.3462 -0.9847  1.0096
 2328TIP3    H228400   2.365   2.393  15.907 -0.4136  0.9382  0.9147
 2329TIP3   OH228401   1.466   6.438  15.732  0.5173  0.0236  0.1194
 2329TIP3    H128402   1.496   6.398  15.813  0.5865 -0.8088 -0.3053
 2329TIP3    H228403   1.546   6.449  15.680  0.4381  0.3008  0.0543
 2330TIP3   OH228404   4.797   4.079   1.289  0.2033 -0.4986 -0.4857
 2330TIP3    H128405   4.884   4.118   1.303 -0.9503  2.6532 -1.6721
 2330TIP3    H228406   4.794   4.005   1.348  2.4567  1.3722  2.0790
 2331TIP3   OH228407   1.691   1.037  15.024  0.1445 -0.1391 -0.0304
 2331TIP3    H128408   1.664   1.129  15.023 -1.1863 -0.4832  1.7228
 2331TIP3    H228409   1.688   1.012  15.116  1.2049 -1.7401 -0.4178
 2332TIP3   OH228410   2.969   3.631   1.959  0.2437  0.1962  0.4008
 2332TIP3    H128411   2.907   3.702   1.945  0.7763  0.2930 -1.6153
 2332TIP3    H228412   3.034   3.667   2.019 -1.2980  0.2811  2.0677
 2333TIP3   OH228413   4.555   4.892  16.143  0.4375  0.0211  0.2744
 2333TIP3    H128414   4.493   4.897  16.216  0.0809  0.8917 -0.0873
 2333TIP3    H228415   4.560   4.799  16.123 -1.0675 -0.0230  0.0396
 2334TIP3   OH228416   1.774   5.535  11.529 -0.6005 -0.0799 -0.0337
 2334TIP3    H128417   1.706   5.486  11.574  0.5718 -1.0370  0.7438
 2334TIP3    H228418   1.774   5.621  11.570 -0.4254 -0.5193  0.8944
 2335TIP3   OH228419   3.270   2.497   4.441  0.2919  0.4937 -0.0425
 2335TIP3    H128420   3.342   2.515   4.381  1.0851 -0.9138  0.4506
 2335TIP3    H228421   3.258   2.402   4.436  0.0673  0.4143  1.6572
 2336TIP3   OH228422   6.323   3.039  17.011  0.3523  0.6656 -0.3043
 2336TIP3    H128423   6.333   3.096  17.087  2.7448 -1.3938  0.9457
 2336TIP3    H228424   6.268   2.967  17.042  0.4834  0.3390 -0.8316
 2337TIP3   OH228425   2.355   4.174  11.389  0.3596  0.4961 -0.1450
 2337TIP3    H128426   2.389   4.193  11.301 -2.4162  1.2115 -1.0941
 2337TIP3    H228427   2.373   4.254  11.438 -0.0675  0.9264 -0.6784
 2338TIP3   OH228428   1.636   3.778  12.163 -0.2043  0.8294 -0.1146
 2338TIP3    H128429   1.645   3.827  12.081  0.0857  0.4169 -0.3322
 2338TIP3    H228430   1.626   3.686  12.135  1.1825  0.5248  0.3392
 2339TIP3   OH228431   2.488   0.151  15.983  0.0636  0.2232  0.2919
 2339TIP3    H128432   2.505   0.245  15.976  0.7377 -0.0495 -2.5150
 2339TIP3    H228433   2.574   0.112  16.001 -0.1677  0.1044  1.1699
 2340TIP3   OH228434   1.582   3.222  11.341  0.1041 -0.3694  0.6000
 2340TIP3    H128435   1.678   3.227  11.347  0.0541  1.1672  0.2643
 2340TIP3    H228436   1.562   3.252  11.252 -0.7436  0.2947  1.0050
 2341TIP3   OH228437   6.177   1.669   3.109  0.1813 -0.8630 -0.2012
 2341TIP3    H128438   6.233   1.738   3.145 -0.4639  0.2851 -1.3652
 2341TIP3    H228439   6.124   1.640   3.183  0.0905  0.2596  0.1794
 2342TIP3   OH228440   1.478   3.338   1.103  0.2001  0.0993 -0.4453
 2342TIP3    H128441   1.483   3.296   1.189  0.9631 -1.7522 -1.3615
 2342TIP3    H228442   1.400   3.392   1.108 -1.1125 -1.8220  0.6347
 2343TIP3   OH228443   4.750   4.800   5.753  0.1147 -0.3004 -0.3758
 2343TIP3    H128444   4.778   4.749   5.829 -0.0218  0.4357  0.1657
 2343TIP3    H228445   4.763   4.741   5.679  1.7943 -0.4511  0.0288
 2344TIP3   OH228446   3.125   6.706  14.920 -0.8784 -0.4827 -0.1019
 2344TIP3    H128447   3.148   6.789  14.879 -1.1216  0.1065  0.9469
 2344TIP3    H228448   3.031   6.713  14.937 -1.1536 -1.4803 -1.1628
 2345TIP3   OH228449   6.392   1.667   4.925  0.3246 -1.1903 -0.4141
 2345TIP3    H128450   6.422   1.745   4.879  0.1623 -1.5031 -1.0676
 2345TIP3    H228451   6.300   1.659   4.900  0.4224 -1.7592 -0.6014
 2346TIP3   OH228452   3.139   4.237   1.212  0.2215  0.3200  0.1201
 2346TIP3    H128453   3.059   4.252   1.262  0.3579 -0.0368  0.4444
 2346TIP3    H228454   3.179   4.323   1.205  0.8842  0.1731  1.7829
 2347TIP3   OH228455   1.330   1.134   2.698  0.3548  0.0009 -0.4002
 2347TIP3    H128456   1.363   1.206   2.751  0.0028 -1.4061  1.8138
 2347TIP3    H228457   1.236   1.130   2.717  0.6129 -1.9166  0.6489
 2348TIP3   OH228458   5.747   1.537   3.149 -0.0169  0.3387  0.8388
 2348TIP3    H128459   5.725   1.629   3.161 -0.7457  0.0634  1.6828
 2348TIP3    H228460   5.797   1.514   3.228  1.6358  0.4413 -0.1437
 2349TIP3   OH228461   0.411   5.751  13.265 -0.8356  0.4528 -0.8875
 2349TIP3    H128462   0.376   5.825  13.315 -0.3982  0.5787 -0.7608
 2349TIP3    H228463   0.475   5.790  13.206  1.7516 -0.1379  1.3783
 2350TIP3   OH228464   6.083   0.049   3.836 -0.3174 -0.6406  0.1000
 2350TIP3    H128465   6.097   0.138   3.869 -0.7558 -0.6877  0.4163
 2350TIP3    H228466   6.158   0.033   3.778 -1.3079  0.7336 -1.6194
 2351TIP3   OH228467   6.666   0.650  16.442 -0.2324  0.0668  0.3142
 2351TIP3    H128468   6.745   0.684  16.401  0.4637  0.9237  2.3039
 2351TIP3    H228469   6.697   0.589  16.509 -1.2447  0.1630  0.8981
 2352TIP3   OH228470   6.581   4.517   6.045 -0.4218  0.5070  0.1900
 2352TIP3    H128471   6.512   4.560   5.995  0.9535 -0.5988 -2.7774
 2352TIP3    H228472   6.652   4.581   6.047  0.1898 -0.1175 -0.8816
 2353TIP3   OH228473   3.364   5.261  15.422  0.0130 -1.0700  0.0482
 2353TIP3    H128474   3.402   5.331  15.369  0.1286 -1.6868 -0.6938
 2353TIP3    H228475   3.439   5.217  15.462  0.0947 -2.2610 -1.3822
 2354TIP3   OH228476   1.545   5.150  14.922 -0.1862  0.7038 -0.2675
 2354TIP3    H128477   1.489   5.205  14.868 -0.0886 -0.6649 -1.7870
 2354TIP3    H228478   1.621   5.131  14.867 -0.4880 -1.4255  0.0035
 2355TIP3   OH228479   6.158   6.571  15.109 -0.6836 -0.3541  0.0895
 2355TIP3    H128480   6.063   6.582  15.104 -0.5644  0.6736 -0.0732
 2355TIP3    H228481   6.191   6.618  15.032  0.1214  1.4478  1.5147
 2356TIP3   OH228482   1.753   2.917  15.996 -0.1423  0.3590 -0.1257
 2356TIP3    H128483   1.834   2.879  15.962 -0.2250 -0.3450  0.4531
 2356TIP3    H228484   1.718   2.968  15.923  0.7263  0.5137 -0.4379
 2357TIP3   OH228485   4.094   5.655  12.843  0.1528 -0.0678 -0.0593
 2357TIP3    H128486   4.056   5.731  12.887 -0.3766 -1.1273  1.3605
 2357TIP3    H228487   4.148   5.613  12.910  0.6048 -0.8427 -0.8904
 2358TIP3   OH228488   6.091   6.257  14.599 -0.5957 -0.4163 -0.3868
 2358TIP3    H128489   6.038   6.179  14.581 -1.4282  0.2602 -0.9617
 2358TIP3    H228490   6.052   6.295  14.677  0.0813 -0.8072  0.1427
 2359TIP3   OH228491   4.211   3.798   3.074 -0.4160  0.4927  0.9173
 2359TIP3    H128492   4.303   3.817   3.089 -0.3266  0.5199  0.3171
 2359TIP3    H228493   4.168   3.883   3.075 -0.0914  0.7095 -1.2409
 2360TIP3   OH228494   1.930   0.341   2.505 -0.1663 -0.2378 -0.3706
 2360TIP3    H128495   1.987   0.318   2.432  2.5265 -0.5479  1.7555
 2360TIP3    H228496   1.871   0.265   2.514 -0.4975 -0.2172 -2.1271
 2361TIP3   OH228497   3.585   2.169   0.696 -0.4596 -0.1461  0.3876
 2361TIP3    H128498   3.594   2.249   0.748  0.1325 -0.6798  1.1298
 2361TIP3    H228499   3.675   2.149   0.668 -0.4434 -1.1554  1.1344
 2362TIP3   OH228500   4.714   6.589   3.330 -0.2105  0.4474  0.4685
 2362TIP3    H128501   4.678   6.602   3.417  0.8567 -0.5902  1.0756
 2362TIP3    H228502   4.684   6.666   3.280 -2.3685  0.1214  1.2078
 2363TIP3   OH228503   3.645   1.584   1.496  0.0613  0.0146  0.1860
 2363TIP3    H128504   3.561   1.549   1.467  0.1755 -0.7532  0.7690
 2363TIP3    H228505   3.679   1.632   1.420 -0.5407 -0.3219 -0.2995
 2364TIP3   OH228506   0.845   3.590   4.479 -0.2508 -0.5299 -0.2760
 2364TIP3    H128507   0.830   3.527   4.408  1.8085 -1.5168  0.1229
 2364TIP3    H228508   0.765   3.587   4.532 -0.8378 -1.5684 -1.1970
 2365TIP3   OH228509   0.079   4.452   4.292  0.5686  0.2002 -0.2185
 2365TIP3    H128510   0.055   4.525   4.350 -1.0852 -0.4923 -0.0017
 2365TIP3    H228511   0.001   4.439   4.237  1.8658  0.3846 -2.1294
 2366TIP3   OH228512   1.356   0.184  15.156 -0.3017 -0.2262  0.6020
 2366TIP3    H128513   1.412   0.229  15.219 -1.3336  0.0444  1.3336
 2366TIP3    H228514   1.381   0.092  15.163  0.9714  0.0562 -0.0320
 2367TIP3   OH228515   3.625   1.895  11.721 -0.2606 -0.4958 -0.1664
 2367TIP3    H128516   3.572   1.845  11.659 -0.9663 -0.5072  0.4395
 2367TIP3    H228517   3.584   1.982  11.723  0.2085 -0.2712 -0.2716
 2368TIP3   OH228518   2.844   1.615  13.901 -0.6697 -0.1610 -0.1112
 2368TIP3    H128519   2.751   1.614  13.880 -0.2561 -2.3558 -2.0110
 2368TIP3    H228520   2.855   1.543  13.964 -0.5042  1.1179  1.3503
 2369TIP3   OH228521   5.781   5.900   0.507  0.0663  0.5748 -0.1406
 2369TIP3    H128522   5.791   5.819   0.557  1.9034 -0.1402 -1.6226
 2369TIP3    H228523   5.690   5.927   0.524  0.3503 -0.1107  2.8177
 2370TIP3   OH228524   4.176   2.942  15.991 -0.4696 -0.5195 -0.0224
 2370TIP3    H128525   4.234   2.884  16.040 -0.9778 -0.9058  0.1317
 2370TIP3    H228526   4.103   2.886  15.964 -0.8422 -0.0100 -0.0901
 2371TIP3   OH228527   6.036   5.625  13.657  0.2407  0.0084 -0.1922
 2371TIP3    H128528   6.066   5.704  13.702  1.9997 -1.1616  0.7214
 2371TIP3    H228529   5.961   5.595  13.708  0.0629  0.6418 -0.0797
 2372TIP3   OH228530   6.633   3.627   5.561 -0.5590  0.4429  0.7482
 2372TIP3    H128531   6.594   3.640   5.648  0.7721  0.4766  1.3479
 2372TIP3    H228532   6.568   3.575   5.514 -0.4204 -1.3048  2.4071
 2373TIP3   OH228533   2.660   4.605   2.698  0.2944  0.2362  0.7475
 2373TIP3    H128534   2.580   4.572   2.656  0.5371  1.4882 -0.7881
 2373TIP3    H228535   2.630   4.644   2.780 -0.8559  1.5349 -0.2531
 2374TIP3   OH228536   1.045   1.259   4.811 -0.2790 -0.2505 -0.1734
 2374TIP3    H128537   1.058   1.334   4.752 -0.2535  0.5041  0.7723
 2374TIP3    H228538   1.122   1.204   4.798  0.3409  0.5504  0.0694
 2375TIP3   OH228539   5.722   3.873  15.442 -0.0680 -0.3668 -0.4877
 2375TIP3    H128540   5.734   3.908  15.354 -0.4344  0.1967 -0.3128
 2375TIP3    H228541   5.792   3.912  15.494 -0.2845 -0.1372 -0.3659
 2376TIP3   OH228542   1.204   6.537  15.199  0.0322 -0.2658 -0.0193
 2376TIP3    H128543   1.189   6.515  15.291  1.1330  0.0162  0.2358
 2376TIP3    H228544   1.117   6.533  15.159 -0.9633  2.7441  1.6889
 2377TIP3   OH228545   5.517   4.782   1.421  0.8402  0.8972 -0.1785
 2377TIP3    H128546   5.483   4.871   1.418  3.1419  1.8385  0.5713
 2377TIP3    H228547   5.502   4.753   1.511  0.0323  0.4838 -0.4395
 2378TIP3   OH228548   5.279   1.736   5.509 -0.4272 -0.3673  0.3632
 2378TIP3    H128549   5.236   1.784   5.579 -1.0830 -1.0526  0.4349
 2378TIP3    H228550   5.369   1.723   5.541  0.0507  1.6684 -0.0900
 2379TIP3   OH228551   5.441   2.786   2.133  0.4386 -0.3843  0.0170
 2379TIP3    H128552   5.462   2.714   2.074  2.2705  0.7076 -0.7141
 2379TIP3    H228553   5.449   2.865   2.079 -0.3697  0.4581  1.0867
 2380TIP3   OH228554   2.927   1.624  11.538 -0.1561 -0.5183 -0.0582
 2380TIP3    H128555   2.975   1.707  11.542 -2.8034  1.1392 -0.8375
 2380TIP3    H228556   2.929   1.599  11.446  1.9727 -2.1852  0.4149
 2381TIP3   OH228557   3.257   5.178  15.141  0.0471 -0.0027 -0.2743
 2381TIP3    H128558   3.250   5.089  15.177 -0.4438 -0.0811 -0.5587
 2381TIP3    H228559   3.268   5.233  15.218  0.9260 -0.3637 -0.1276
 2382TIP3   OH228560   1.093   3.036  16.919 -0.5564 -0.3625 -0.5955
 2382TIP3    H128561   1.138   3.083  16.989 -0.8252 -0.3470 -0.4333
 2382TIP3    H228562   1.032   3.099  16.881 -0.0788 -0.2342 -1.1530
 2383TIP3   OH228563   0.730   0.828  14.220  0.0547  0.4470 -0.1274
 2383TIP3    H128564   0.715   0.780  14.138  0.6406 -0.8154  0.4852
 2383TIP3    H228565   0.721   0.920  14.196  1.3458  0.1443 -1.8698
 2384TIP3   OH228566   0.773   3.855  10.795  0.3193  0.1481  0.1478
 2384TIP3    H128567   0.759   3.906  10.715  1.1626  1.6829  0.9647
 2384TIP3    H228568   0.706   3.785  10.790 -2.2564  2.5298  0.0051
 2385TIP3   OH228569   3.716   6.408  14.409 -0.4886  0.1703  0.3156
 2385TIP3    H128570   3.646   6.370  14.461 -0.5001  0.7837  0.7546
 2385TIP3    H228571   3.671   6.469  14.349 -0.4530 -0.3563 -0.2532
 2386TIP3   OH228572   1.025   1.833  14.558 -0.1969  0.2562 -0.0687
 2386TIP3    H128573   0.958   1.772  14.590 -0.5480  0.7418  0.1252
 2386TIP3    H228574   1.052   1.881  14.637 -0.3733  0.7872 -0.3285
 2387TIP3   OH228575   0.150   2.949   6.524 -0.1921  0.3693  0.0445
 2387TIP3    H128576   0.137   3.042   6.539  2.0503  0.7108 -0.1027
 2387TIP3    H228577   0.113   2.907   6.602 -0.6079  1.4066  0.4091
 2388TIP3   OH228578   0.596   5.762   1.019  0.2421  0.2054 -0.2459
 2388TIP3    H128579   0.637   5.821   1.082  0.0312  1.3470 -1.1452
 2388TIP3    H228580   0.669   5.724   0.971  0.4101 -0.7695  0.7647
 2389TIP3   OH228581   4.288   4.928   1.899  0.1759 -0.9576 -0.3629
 2389TIP3    H128582   4.232   4.865   1.852 -0.7326  0.9185 -1.8973
 2389TIP3    H228583   4.344   4.965   1.831 -0.9787  1.6239  0.0123
 2390TIP3   OH228584   4.470   6.162  13.307 -0.6559 -0.2822  0.2644
 2390TIP3    H128585   4.444   6.253  13.294  1.2604  0.1840 -0.5696
 2390TIP3    H228586   4.421   6.133  13.383 -1.7467  1.2673  0.1678
 2391TIP3   OH228587   5.367   3.671  11.450  0.2578 -0.1253  0.6676
 2391TIP3    H128588   5.293   3.731  11.442 -1.2289 -1.8970  0.8846
 2391TIP3    H228589   5.413   3.700  11.529 -0.3085  0.8420  0.6505
 2392TIP3   OH228590   2.649   2.393  16.722 -0.1062  0.7748  0.0629
 2392TIP3    H128591   2.717   2.334  16.691 -0.6076  0.3135 -0.1610
 2392TIP3    H228592   2.589   2.403  16.648 -0.4479  0.9256  0.3544
 2393TIP3   OH228593   6.287   5.708  15.314  0.4737  0.0746 -0.0464
 2393TIP3    H128594   6.350   5.724  15.384 -1.1975  3.9400  0.7315
 2393TIP3    H228595   6.327   5.747  15.236  0.4452 -0.3703 -0.2865
 2394TIP3   OH228596   2.473   0.408   3.075  0.4073  0.2170 -0.0074
 2394TIP3    H128597   2.440   0.464   3.145 -0.8238 -0.0933 -0.3195
 2394TIP3    H228598   2.419   0.430   3.000  1.3912  0.1869 -0.7332
 2395TIP3   OH228599   2.431   3.505   3.593  0.2131  0.4407  0.4965
 2395TIP3    H128600   2.521   3.521   3.622  0.3958 -0.1895  0.2679
 2395TIP3    H228601   2.436   3.506   3.498 -0.1776  1.2722  0.4805
 2396TIP3   OH228602   0.815   5.741   5.524  0.1096  0.3438  0.2791
 2396TIP3    H128603   0.811   5.743   5.620  0.3928 -1.3296  0.3423
 2396TIP3    H228604   0.732   5.701   5.498  0.3339  0.1460 -0.1354
 2397TIP3   OH228605   0.849   1.243   4.427 -0.0558 -0.0229  0.1066
 2397TIP3    H128606   0.855   1.336   4.404 -2.3101 -0.0128 -0.6049
 2397TIP3    H228607   0.777   1.238   4.490 -0.0716 -1.3080  0.0035
 2398TIP3   OH228608   3.959   2.048  15.266  0.5038  0.4090  0.3556
 2398TIP3    H128609   4.031   2.062  15.328  1.3867 -0.5421 -0.4386
 2398TIP3    H228610   3.888   2.013  15.320  1.2679 -0.4226  0.8367
 2399TIP3   OH228611   4.234   5.621  12.147  0.0732  0.6076  0.2596
 2399TIP3    H128612   4.283   5.701  12.161 -0.5292  0.7843  1.4789
 2399TIP3    H228613   4.148   5.650  12.117  0.4149  0.3380 -1.0094
 2400TIP3   OH228614   2.515   3.111  16.493  0.3927 -0.1653  0.6663
 2400TIP3    H128615   2.611   3.116  16.493  0.4242 -0.8133 -0.0232
 2400TIP3    H228616   2.487   3.182  16.436  0.3886  1.2034  2.3107
 2401TIP3   OH228617   1.409   2.324  17.052 -0.1791 -0.3946  0.0040
 2401TIP3    H128618   1.389   2.299  16.962 -0.7981  1.8143 -0.5074
 2401TIP3    H228619   1.490   2.376  17.045 -1.8313  2.3229  0.2885
 2402TIP3   OH228620   2.108   5.597   2.999 -0.5492  0.0540 -0.1196
 2402TIP3    H128621   2.030   5.647   3.026  0.0524 -0.6603  3.1794
 2402TIP3    H228622   2.176   5.663   2.987 -0.2547  0.2325  2.3587
 2403TIP3   OH228623   2.925   0.752   2.440  0.3777 -0.3349  0.4884
 2403TIP3    H128624   2.867   0.822   2.410  0.4240  0.0026  1.1914
 2403TIP3    H228625   2.883   0.717   2.518  0.7383 -0.5854  0.5731
 2404TIP3   OH228626   0.426   5.786  15.447  0.2202 -0.0650  0.0852
 2404TIP3    H128627   0.485   5.851  15.409  0.7169 -0.2785  0.4989
 2404TIP3    H228628   0.383   5.832  15.520  0.9743 -0.3679  0.7211
 2405TIP3   OH228629   4.841   1.618  10.999 -0.1581 -0.2454  0.0271
 2405TIP3    H128630   4.906   1.555  10.969  0.0663 -0.5765  1.1923
 2405TIP3    H228631   4.891   1.698  11.015 -0.2015 -0.2113 -0.0042
 2406TIP3   OH228632   0.340   2.005   2.302 -0.3764  0.5802  0.2632
 2406TIP3    H128633   0.327   2.053   2.384 -1.2359 -0.5809  0.8258
 2406TIP3    H228634   0.385   1.924   2.328 -0.7126  0.1734 -0.3984
 2407TIP3   OH228635   1.462   3.257  11.940  0.0107 -0.9883 -0.2630
 2407TIP3    H128636   1.529   3.242  11.873 -0.2230 -0.6961 -0.5619
 2407TIP3    H228637   1.412   3.176  11.942 -0.1295 -0.9152 -0.6157
 2408TIP3   OH228638   0.586   5.339   1.211 -0.1885  0.4752  0.2918
 2408TIP3    H128639   0.646   5.380   1.273  1.4206  0.6103 -1.3085
 2408TIP3    H228640   0.563   5.255   1.252  1.9049 -0.0354  0.5056
 2409TIP3   OH228641   5.131   6.764   5.162 -0.6159  0.0659 -0.0811
 2409TIP3    H128642   5.205   6.713   5.129 -1.2781 -1.0177  0.0881
 2409TIP3    H228643   5.167   6.813   5.236  0.3450  0.8656 -1.0453
 2410TIP3   OH228644   5.313   0.322   1.468 -0.1318 -0.6784 -0.0226
 2410TIP3    H128645   5.336   0.405   1.426 -1.9693 -0.4367 -0.6062
 2410TIP3    H228646   5.219   0.329   1.484  0.4809 -0.8534  3.9644
 2411TIP3   OH228647   1.923   4.511  15.080  0.0042  0.4273  0.0838
 2411TIP3    H128648   1.876   4.575  15.133  0.4984  1.0258 -0.1902
 2411TIP3    H228649   1.901   4.533  14.990  0.7982  0.7099 -0.0469
 2412TIP3   OH228650   2.761   4.390  14.501  0.6103  0.3747 -0.5643
 2412TIP3    H128651   2.833   4.344  14.545 -0.7679 -0.5511  0.7995
 2412TIP3    H228652   2.799   4.424  14.420  2.2226 -1.3241 -0.5427
 2413TIP3   OH228653   1.343   2.649   2.291  0.3678  0.4099 -0.1698
 2413TIP3    H128654   1.422   2.688   2.254 -0.1089  2.8843  1.2957
 2413TIP3    H228655   1.356   2.654   2.386 -0.3103 -1.8222  0.0601
 2414TIP3   OH228656   3.195   2.560   3.150  0.1430  0.3515  0.6614
 2414TIP3    H128657   3.289   2.558   3.132  0.2747 -0.2206  1.3964
 2414TIP3    H228658   3.185   2.629   3.216  0.1433 -0.0817  1.1163
 2415TIP3   OH228659   6.679   4.369   3.613 -0.4497  0.0955 -0.8674
 2415TIP3    H128660   6.663   4.414   3.696 -0.9169  0.2538 -1.0396
 2415TIP3    H228661   6.716   4.438   3.556 -3.1641  0.8338 -1.8040
 2416TIP3   OH228662   1.510   4.430  14.593 -0.4548 -0.1149  0.3155
 2416TIP3    H128663   1.482   4.356  14.646  0.1497 -0.7491 -0.2423
 2416TIP3    H228664   1.457   4.503  14.624 -0.8174 -0.7040  1.0976
 2417TIP3   OH228665   1.263   1.372   5.220  0.1427  0.3230 -0.1970
 2417TIP3    H128666   1.342   1.421   5.242 -0.6116  1.0043  1.0711
 2417TIP3    H228667   1.266   1.295   5.277  0.5566 -0.3355 -1.1002
 2418TIP3   OH228668   4.902   0.655   0.559 -0.1372 -0.1700 -0.0597
 2418TIP3    H128669   4.872   0.733   0.605 -1.9713 -0.2661 -1.0604
 2418TIP3    H228670   4.924   0.685   0.471 -0.2142 -0.6520 -0.2485
 2419TIP3   OH228671   2.844   4.816   3.572  0.1746  0.1002 -0.4310
 2419TIP3    H128672   2.894   4.799   3.652  2.3171  0.2107 -1.6873
 2419TIP3    H228673   2.837   4.911   3.568  1.1114  0.1581 -0.9556
 2420TIP3   OH228674   4.186   1.212   1.320  0.0836  0.1740 -1.2423
 2420TIP3    H128675   4.199   1.118   1.311 -1.1275 -0.5197  3.2331
 2420TIP3    H228676   4.098   1.228   1.286  0.0363 -0.4086 -1.3902
 2421TIP3   OH228677   1.855   5.775  11.645 -0.6862  0.2876 -0.3355
 2421TIP3    H128678   1.820   5.757  11.733 -0.5146 -1.9018 -0.6925
 2421TIP3    H228679   1.947   5.748  11.649 -0.2499  1.6650 -0.7478
 2422TIP3   OH228680   6.355   2.499  17.154 -0.7045  0.5441 -0.4799
 2422TIP3    H128681   6.401   2.419  17.127  1.2214  1.0511  1.1592
 2422TIP3    H228682   6.372   2.562  17.084  0.6780  0.5593 -0.1431
 2423TIP3   OH228683   6.408   6.166  15.191 -0.1449  0.2847  0.3192
 2423TIP3    H128684   6.398   6.252  15.233  1.4288 -0.0604  1.4328
 2423TIP3    H228685   6.502   6.154  15.184 -0.3315 -1.9081  1.2827
 2424TIP3   OH228686   3.135   5.736   3.617 -0.0279 -0.1913 -0.3625
 2424TIP3    H128687   3.044   5.719   3.592 -0.0739  1.7036 -1.5189
 2424TIP3    H228688   3.181   5.747   3.534  0.7449  1.4961  0.2832
 2425TIP3   OH228689   0.828   1.440   1.507  0.0813  0.0294 -0.2447
 2425TIP3    H128690   0.823   1.382   1.584  0.6161  1.3450  0.8030
 2425TIP3    H228691   0.737   1.452   1.481 -0.1577  0.1829  0.6483
 2426TIP3   OH228692   2.975   1.145  13.990  0.1696  0.5916 -0.0666
 2426TIP3    H128693   2.963   1.050  13.979  0.8204  0.6462 -1.3247
 2426TIP3    H228694   3.070   1.158  13.986 -0.0072  1.5165 -1.9395
 2427TIP3   OH228695   2.670   5.377   3.802 -0.4513  0.0183  0.5421
 2427TIP3    H128696   2.678   5.335   3.888  0.9437  1.5854  1.2093
 2427TIP3    H228697   2.608   5.322   3.754  0.7607 -2.3906  1.6359
 2428TIP3   OH228698   2.220   3.514  12.394  0.4419  0.8407  0.2695
 2428TIP3    H128699   2.196   3.423  12.414  0.1743  0.6714 -0.7724
 2428TIP3    H228700   2.248   3.511  12.303  0.9819  1.7088  0.4051
 2429TIP3   OH228701   0.241   5.623   5.880 -0.3505  0.1694  0.1852
 2429TIP3    H128702   0.238   5.557   5.950  0.9017 -0.8736 -0.7131
 2429TIP3    H228703   0.293   5.694   5.916 -2.0774  0.8821  1.3269
 2430TIP3   OH228704   0.412   2.263  14.514  0.0066  0.4400  0.6030
 2430TIP3    H128705   0.475   2.316  14.465 -0.2391  0.1075 -0.0759
 2430TIP3    H228706   0.429   2.173  14.485 -1.9612  0.5289 -0.9041
 2431TIP3   OH228707   1.203   2.323   0.768  0.2264 -0.3191  0.0636
 2431TIP3    H128708   1.206   2.418   0.757 -0.3453 -0.4268 -1.0865
 2431TIP3    H228709   1.110   2.301   0.763  0.4710 -1.1004 -1.0774
 2432TIP3   OH228710   0.942   6.312   4.609 -0.7510 -0.1317  0.1437
 2432TIP3    H128711   0.865   6.291   4.557 -1.3040  0.0653  0.8671
 2432TIP3    H228712   0.978   6.227   4.634 -1.9567 -0.2603  1.5638
 2433TIP3   OH228713   0.895   2.222   6.091 -0.2514 -0.7916 -0.5824
 2433TIP3    H128714   0.809   2.248   6.123  1.0315  0.7973  1.6916
 2433TIP3    H228715   0.898   2.127   6.102 -1.7701 -0.8795 -0.8749
 2434TIP3   OH228716   4.413   1.999   2.297 -0.6146 -0.4702 -0.1786
 2434TIP3    H128717   4.419   1.910   2.263  0.1964 -0.5876  0.2487
 2434TIP3    H228718   4.500   2.017   2.332 -0.7924  0.4695 -0.2021
 2435TIP3   OH228719   0.225   3.353  15.232  0.2173 -0.6105 -0.0820
 2435TIP3    H128720   0.203   3.346  15.325 -0.5117 -0.2574 -0.2190
 2435TIP3    H228721   0.225   3.263  15.200  1.5287 -0.8303  0.4864
 2436TIP3   OH228722   0.095   6.778   0.665  0.6797  0.2561 -0.1039
 2436TIP3    H128723   0.127   6.850   0.611 -0.3232  0.6361 -0.1942
 2436TIP3    H228724   0.065   6.820   0.746 -0.5228  0.0081 -0.4233
 2437TIP3   OH228725   2.074   2.776   3.313 -0.1599  0.3585  0.4045
 2437TIP3    H128726   2.004   2.743   3.370 -0.5282  0.7803  0.1954
 2437TIP3    H228727   2.032   2.844   3.260  0.7529  1.7213  1.3626
 2438TIP3   OH228728   3.239   2.860   0.440  0.3013  0.3033  0.6185
 2438TIP3    H128729   3.287   2.781   0.416 -1.8042 -0.4984 -1.1426
 2438TIP3    H228730   3.206   2.841   0.528  0.4891 -0.4662  0.5309
 2439TIP3   OH228731   5.972   2.472  14.810  0.7990  0.1986  0.1741
 2439TIP3    H128732   5.894   2.522  14.836  0.1336  0.0001 -1.4152
 2439TIP3    H228733   5.943   2.381  14.811  1.2050  0.0698  0.2003
 2440TIP3   OH228734   1.099   5.146   3.671  0.3434  0.4053 -0.5725
 2440TIP3    H128735   1.009   5.135   3.700  1.0082 -2.5688  0.5347
 2440TIP3    H228736   1.145   5.181   3.747  1.4095 -4.3215  1.1276
 2441TIP3   OH228737   5.973   0.132   0.886  0.0574 -0.0449 -0.1792
 2441TIP3    H128738   5.989   0.201   0.821  2.3672 -0.6227 -0.2807
 2441TIP3    H228739   5.881   0.141   0.909  0.3603  3.2123 -0.0297
 2442TIP3   OH228740   6.359   3.649  12.699  0.2469  0.2464 -0.0429
 2442TIP3    H128741   6.413   3.707  12.644  1.2199  1.2044  1.8676
 2442TIP3    H228742   6.406   3.646  12.782 -0.1966 -2.7295  0.1317
 2443TIP3   OH228743   5.687   5.342   4.704 -0.6148  0.0957  0.1959
 2443TIP3    H128744   5.610   5.301   4.665 -0.6257 -1.0858  1.4319
 2443TIP3    H228745   5.761   5.294   4.667 -0.4095  1.5784 -1.4078
 2444TIP3   OH228746   0.364   3.358  15.738  0.3295  0.3089 -0.2319
 2444TIP3    H128747   0.319   3.366  15.654  0.9197  2.0570 -0.3845
 2444TIP3    H228748   0.323   3.281  15.779  1.8429 -2.2117 -3.2123
 2445TIP3   OH228749   3.776   1.056  11.506 -0.5095 -0.1761  0.3517
 2445TIP3    H128750   3.847   1.113  11.533 -0.9110 -0.0661  1.2136
 2445TIP3    H228751   3.803   0.968  11.533 -0.2139 -0.2930 -0.3197
 2446TIP3   OH228752   0.600   3.849   0.115 -0.4084  0.3770 -0.0453
 2446TIP3    H128753   0.642   3.919   0.165  0.2352 -0.4077  0.5390
 2446TIP3    H228754   0.627   3.864   0.024  0.5600  0.3009  0.2217
 2447TIP3   OH228755   6.493   0.912   5.198 -0.6128  0.5180 -0.2205
 2447TIP3    H128756   6.546   0.940   5.272 -1.0254  2.9430 -0.8109
 2447TIP3    H228757   6.404   0.906   5.232 -0.5623  0.0785 -0.1533
 2448TIP3   OH228758   0.202   2.971  16.842 -0.5305  0.2792 -0.6487
 2448TIP3    H128759   0.156   2.927  16.914  0.8457 -2.8365 -1.6132
 2448TIP3    H228760   0.294   2.969  16.868 -0.2298  0.7859 -1.6516
 2449TIP3   OH228761   5.652   2.295  12.650 -0.8709  0.1058 -0.0398
 2449TIP3    H128762   5.612   2.239  12.717 -1.4497  0.6668  0.0946
 2449TIP3    H228763   5.730   2.248  12.622 -0.3475  0.0938  1.3888
 2450TIP3   OH228764   5.668   0.815  12.359 -0.4606  0.4725  0.5193
 2450TIP3    H128765   5.640   0.725  12.376 -0.3227  0.7571  2.3756
 2450TIP3    H228766   5.591   0.869  12.377 -0.9748  0.6396 -2.0016
 2451TIP3   OH228767   6.330   3.481  13.339 -0.4983  0.0615 -0.1433
 2451TIP3    H128768   6.313   3.507  13.248 -1.3209 -0.3622 -0.1057
 2451TIP3    H228769   6.368   3.393  13.332 -0.3177  0.1341 -0.0878
 2452TIP3   OH228770   2.736   3.505  11.387  0.4172  0.1874  0.6225
 2452TIP3    H128771   2.753   3.569  11.318  3.0940  1.9996  2.8404
 2452TIP3    H228772   2.642   3.487  11.381  0.0851  2.3985 -1.7038
 2453TIP3   OH228773   1.278   0.251   2.798 -0.2025  0.8937 -0.8929
 2453TIP3    H128774   1.349   0.237   2.735  0.2403  0.0885 -0.2180
 2453TIP3    H228775   1.199   0.222   2.753  0.5109 -2.6826  0.0209
 2454TIP3   OH228776   0.489   3.346   4.175 -0.6493 -0.5779 -0.3778
 2454TIP3    H128777   0.446   3.260   4.176  0.2661 -1.0514 -0.6112
 2454TIP3    H228778   0.561   3.335   4.113 -0.8287  0.5102 -0.7737
 2455TIP3   OH228779   1.920   0.660   6.010 -0.0554 -0.0126  0.1621
 2455TIP3    H128780   1.919   0.572   6.048 -0.7864  0.2386  0.7446
 2455TIP3    H228781   2.010   0.690   6.023  0.2710 -0.7685 -0.2808
 2456TIP3   OH228782   4.195   1.631   3.080 -0.5643  0.5160  0.3936
 2456TIP3    H128783   4.203   1.690   3.156  1.4349  0.0113  0.6033
 2456TIP3    H228784   4.271   1.653   3.026 -0.3668 -1.1791 -0.0197
 2457TIP3   OH228785   5.492   5.375   3.774  0.0812  0.2846  0.1864
 2457TIP3    H128786   5.459   5.420   3.695 -0.5516 -2.1924 -1.0010
 2457TIP3    H228787   5.414   5.335   3.813  0.7854 -0.6595  0.6403
 2458TIP3   OH228788   0.331   1.908   3.175  0.2052 -0.4963  0.2589
 2458TIP3    H128789   0.425   1.894   3.189  0.0789 -0.5375  1.1244
 2458TIP3    H228790   0.326   1.966   3.099  0.9415 -0.3550  0.3138
 2459TIP3   OH228791   6.746   6.040   3.972  0.3771  0.6699  0.0161
 2459TIP3    H128792   6.679   5.997   3.921 -0.7265  2.1534  0.1790
 2459TIP3    H228793   6.824   6.040   3.915 -0.3720  0.8629 -1.0175
 2460TIP3   OH228794   5.048   0.947  14.580 -0.2239  0.1545 -0.7700
 2460TIP3    H128795   5.060   1.041  14.566  1.6601 -0.0072 -0.4858
 2460TIP3    H228796   5.069   0.907  14.496  0.8631 -0.1251 -0.3763
 2461TIP3   OH228797   5.424   3.735   4.836  0.2381  0.8187  0.7499
 2461TIP3    H128798   5.460   3.670   4.896  1.5437 -0.1657 -1.0472
 2461TIP3    H228799   5.356   3.780   4.886 -1.8142 -2.9863  1.5503
 2462TIP3   OH228800   3.653   5.810   1.496  0.0841  0.3250  0.0379
 2462TIP3    H128801   3.591   5.750   1.453  1.2099 -0.4837 -0.4660
 2462TIP3    H228802   3.629   5.897   1.464 -1.5735  0.1684  0.7764
 2463TIP3   OH228803   4.214   1.772   4.520  0.2039 -0.4240  0.3109
 2463TIP3    H128804   4.267   1.833   4.468  0.7537 -1.3705 -0.2636
 2463TIP3    H228805   4.163   1.723   4.455 -0.9214  0.0596  0.8275
 2464TIP3   OH228806   5.768   4.301   5.181 -0.0600 -0.0428  0.1075
 2464TIP3    H128807   5.803   4.234   5.240 -0.2664 -2.2938 -2.2689
 2464TIP3    H228808   5.831   4.306   5.109 -0.4698  1.7567 -0.1529
 2465TIP3   OH228809   4.106   4.412   2.063  0.1445 -0.0868  0.0993
 2465TIP3    H128810   4.012   4.403   2.074  0.1849 -0.7251 -0.1012
 2465TIP3    H228811   4.122   4.506   2.072 -0.4203 -0.0600  0.8232
 2466TIP3   OH228812   0.418   6.462   2.898 -0.1491 -0.3246  0.8054
 2466TIP3    H128813   0.428   6.401   2.971 -1.0558  0.0056  1.2106
 2466TIP3    H228814   0.350   6.423   2.843  0.6337 -0.6449  0.0611
 2467TIP3   OH228815   0.026   0.895  12.556  0.2220  0.2726  0.9175
 2467TIP3    H128816  -0.002   0.840  12.482 -0.9844 -0.4559  1.9070
 2467TIP3    H228817  -0.043   0.961  12.564  0.4784  0.5023  1.2285
 2468TIP3   OH228818   2.022   4.092  16.632  0.3088  0.1779  0.2727
 2468TIP3    H128819   1.969   4.039  16.572 -0.2295  1.4938 -0.4384
 2468TIP3    H228820   2.113   4.066  16.613  0.2172  1.2261 -1.7945
 2469TIP3   OH228821   4.970   5.833   1.025  0.3239  0.4136 -0.3676
 2469TIP3    H128822   4.888   5.870   1.058  0.7659  0.8407  0.2803
 2469TIP3    H228823   4.973   5.745   1.062 -0.0437  0.2472 -0.7341
 2470TIP3   OH228824   1.112   4.363   2.511 -0.2280 -0.1387 -0.2515
 2470TIP3    H128825   1.176   4.292   2.520  1.0302  0.7943 -1.6223
 2470TIP3    H228826   1.115   4.386   2.418  0.2281  2.5000  0.3743
 2471TIP3   OH228827   6.283   1.893   2.588 -0.1275 -0.0532 -0.2989
 2471TIP3    H128828   6.345   1.887   2.515  0.1885  0.0946 -0.0424
 2471TIP3    H228829   6.288   1.984   2.617  0.1807 -0.2503  0.2823
 2472TIP3   OH228830   6.125   3.490  12.583  0.2814  0.2830  0.6437
 2472TIP3    H128831   6.180   3.531  12.649  2.5457 -1.2011 -0.2511
 2472TIP3    H228832   6.179   3.492  12.503 -0.5112 -2.2136  0.0191
 2473TIP3   OH228833   3.186   2.918   0.971  0.4736 -0.4727 -0.3245
 2473TIP3    H128834   3.221   2.974   1.041  0.2449 -0.4978 -0.1901
 2473TIP3    H228835   3.175   2.978   0.897 -0.2923 -0.2227 -0.0105
 2474TIP3   OH228836   6.454   0.414   4.520  0.4324  0.0788 -0.0491
 2474TIP3    H128837   6.519   0.469   4.477  1.1702 -0.4629  0.3583
 2474TIP3    H228838   6.490   0.396   4.606 -0.6336  0.4341  0.4871
 2475TIP3   OH228839   2.441   1.381   5.424 -0.1904  0.3126 -0.8170
 2475TIP3    H128840   2.370   1.412   5.369 -1.9911 -1.0837  0.6568
 2475TIP3    H228841   2.405   1.381   5.513  2.0663  0.8122  0.1640
 2476TIP3   OH228842   5.589   2.162  16.626  0.3204  0.3114 -0.3385
 2476TIP3    H128843   5.642   2.093  16.585 -0.5184 -0.7729  0.3692
 2476TIP3    H228844   5.641   2.190  16.702 -0.3761 -1.1949  0.7193
 2477TIP3   OH228845   0.841   2.028  12.493  0.4381 -0.2930  0.0799
 2477TIP3    H128846   0.800   2.106  12.532 -1.0369 -0.7200 -0.5629
 2477TIP3    H228847   0.793   2.015  12.411  1.9472 -0.7707 -0.7307
 2478TIP3   OH228848   2.995   1.523   0.097  0.2571 -0.0988  0.2029
 2478TIP3    H128849   3.040   1.460   0.154  0.4295  0.3053  0.5125
 2478TIP3    H228850   2.934   1.568   0.155 -0.2137 -0.3120 -0.1181
 2479TIP3   OH228851   6.537   0.907  13.018 -0.6063 -0.3848  0.6664
 2479TIP3    H128852   6.468   0.881  12.956  0.4001  0.1518 -0.6970
 2479TIP3    H228853   6.503   0.881  13.104 -2.3090 -0.5317 -0.0380
 2480TIP3   OH228854   1.886   5.707  10.618  0.4684 -0.1517 -0.2434
 2480TIP3    H128855   1.826   5.762  10.667  0.4972  0.1597 -0.5616
 2480TIP3    H228856   1.862   5.617  10.643  0.1158 -0.0150 -0.0943
 2481TIP3   OH228857   0.739   4.271   6.452 -0.0730 -0.0764 -0.4140
 2481TIP3    H128858   0.735   4.258   6.547 -0.6429 -2.8831 -0.7723
 2481TIP3    H228859   0.817   4.324   6.438  0.7173 -0.6702  1.5377
 2482TIP3   OH228860   5.443   5.220   2.889 -0.5850  0.0308 -0.4158
 2482TIP3    H128861   5.442   5.256   2.800 -2.8578  0.6064 -0.1700
 2482TIP3    H228862   5.369   5.159   2.892 -0.8959  0.4630  1.2750
 2483TIP3   OH228863   3.065   3.029  11.970 -0.1461  0.0759  0.1285
 2483TIP3    H128864   3.057   3.029  12.065  0.4392 -1.6754  0.1914
 2483TIP3    H228865   3.058   3.121  11.945 -2.3527  0.3755  1.6885
 2484TIP3   OH228866   5.147   4.578  14.926  0.1518 -0.3736  0.5007
 2484TIP3    H128867   5.170   4.485  14.928 -0.5672 -0.5387  1.5628
 2484TIP3    H228868   5.081   4.585  14.857  0.4680 -0.5864  0.1761
 2485TIP3   OH228869   2.995   2.732   6.389 -0.0282  0.2387  0.4826
 2485TIP3    H128870   2.932   2.786   6.342 -2.1486 -1.3353  1.4384
 2485TIP3    H228871   2.971   2.742   6.481 -0.1081 -1.8918  0.7040
 2486TIP3   OH228872   4.623   5.168   2.971 -0.0554 -0.8522 -0.2014
 2486TIP3    H128873   4.604   5.088   3.020 -0.8627 -0.6411 -0.1526
 2486TIP3    H228874   4.716   5.163   2.951  0.3524 -0.8095  1.6046
 2487TIP3   OH228875   0.965   4.912   1.905 -0.6888 -0.2362  0.7653
 2487TIP3    H128876   1.001   4.880   1.988 -1.6709  0.5586  1.5092
 2487TIP3    H228877   1.014   4.991   1.886 -0.2356 -0.5990  0.4082
 2488TIP3   OH228878   6.268   6.170   5.999 -0.8784  0.3077  0.2440
 2488TIP3    H128879   6.264   6.228   6.075  0.1080  0.4736  0.1748
 2488TIP3    H228880   6.195   6.109   6.011 -0.7292  0.3396  1.3165
 2489TIP3   OH228881   1.487   2.338  14.238  0.2446 -0.9108  0.3637
 2489TIP3    H128882   1.406   2.381  14.211 -0.0437 -1.5380  0.2225
 2489TIP3    H228883   1.497   2.266  14.176 -0.0283 -1.9058  1.4704
 2490TIP3   OH228884   6.412   5.696  12.150 -0.9457  0.0516 -0.0577
 2490TIP3    H128885   6.321   5.723  12.142 -0.0404  2.7266 -2.0772
 2490TIP3    H228886   6.443   5.691  12.059  1.2428  0.4284  0.6508
 2491TIP3   OH228887   5.337   6.063   2.163 -0.3018  0.9003  0.5987
 2491TIP3    H128888   5.307   6.105   2.082 -2.1869  0.7135  1.1635
 2491TIP3    H228889   5.281   6.100   2.231  2.1867  2.1055  2.0720
 2492TIP3   OH228890   3.742   1.841   2.514 -0.6971 -0.2314 -0.0973
 2492TIP3    H128891   3.775   1.930   2.524 -0.1095 -0.3968 -0.5262
 2492TIP3    H228892   3.704   1.820   2.599 -1.5621  0.7201 -0.2362
 2493TIP3   OH228893   5.552   2.591  12.287 -0.0364  0.0022  0.0389
 2493TIP3    H128894   5.533   2.640  12.367  1.9146 -1.0201  1.1717
 2493TIP3    H228895   5.562   2.501  12.316  1.1910 -0.3039 -1.2775
 2494TIP3   OH228896   3.511   1.724   4.007 -0.4439  0.2310 -0.6523
 2494TIP3    H128897   3.554   1.648   3.968 -1.7798  0.5514 -2.8518
 2494TIP3    H228898   3.570   1.797   3.989 -0.1227  0.0521 -0.3292
 2495TIP3   OH228899   3.123   3.947  13.762 -0.0111 -0.1346 -0.0591
 2495TIP3    H128900   3.189   4.011  13.791  0.4976  0.0933 -1.6282
 2495TIP3    H228901   3.061   3.999  13.711 -0.7054 -0.5633  0.3523
 2496TIP3   OH228902   1.275   3.486   3.193 -0.0944  0.1888 -0.1967
 2496TIP3    H128903   1.243   3.516   3.279  0.1775  1.3119 -0.4753
 2496TIP3    H228904   1.293   3.393   3.206 -2.1165 -0.1663  0.3638
 2497TIP3   OH228905   5.669   4.698  11.338  0.1269 -0.5733 -0.2679
 2497TIP3    H128906   5.623   4.726  11.259 -0.7768 -0.5397  0.2657
 2497TIP3    H228907   5.610   4.634  11.379  0.3500 -0.2057  0.6453
 2498TIP3   OH228908   1.404   6.069  13.492  0.1358  0.2926  0.8390
 2498TIP3    H128909   1.308   6.075  13.496  0.0478 -0.9322  0.7861
 2498TIP3    H228910   1.422   6.048  13.400  0.3267 -1.3409  1.2261
 2499TIP3   OH228911   3.262   1.711   2.197 -0.2331  0.7553 -0.3029
 2499TIP3    H128912   3.273   1.769   2.272  0.6385 -1.9260  1.7134
 2499TIP3    H228913   3.350   1.678   2.179 -1.2541 -2.8831  1.0637
 2500TIP3   OH228914   6.388   5.110   5.833 -0.2461  0.3051  0.6858
 2500TIP3    H128915   6.400   5.030   5.885  0.6144  1.1837  1.8574
 2500TIP3    H228916   6.440   5.096   5.754 -0.1347 -0.3111  0.8655
 2501TIP3   OH228917   4.440   6.388   5.719 -0.0002 -0.0294 -0.0349
 2501TIP3    H128918   4.437   6.420   5.809  0.2929 -1.2248  0.4111
 2501TIP3    H228919   4.349   6.377   5.694 -0.1115  1.2559 -0.2459
 2502TIP3   OH228920   3.909   5.754   0.483  0.4677 -0.2969 -0.3491
 2502TIP3    H128921   3.969   5.680   0.489  1.2034  0.3404  0.2636
 2502TIP3    H228922   3.961   5.829   0.512 -0.0970  0.5523 -1.5000
 2503TIP3   OH228923   5.534   3.353  15.608  0.3779  0.3038  0.3944
 2503TIP3    H128924   5.554   3.327  15.698  2.3689  0.7708  0.1007
 2503TIP3    H228925   5.608   3.322  15.556 -1.5175 -1.4176 -1.3851
 2504TIP3   OH228926   2.667   5.486   2.161 -0.2389  0.4469 -0.5814
 2504TIP3    H128927   2.736   5.421   2.171 -0.7626 -0.2373 -1.3661
 2504TIP3    H228928   2.601   5.443   2.106 -1.0995  1.2320 -0.1840
 2505TIP3   OH228929   3.345   3.346  11.503  0.3116  0.3797 -0.2650
 2505TIP3    H128930   3.343   3.274  11.440  1.4906  0.3418 -0.2783
 2505TIP3    H228931   3.438   3.355  11.525 -0.0828  0.4955  1.3621
 2506TIP3   OH228932   3.933   2.663  11.763  0.0164 -0.0524  0.7660
 2506TIP3    H128933   3.889   2.742  11.795 -1.3493 -0.9126  1.0865
 2506TIP3    H228934   4.024   2.689  11.751 -0.1545  1.2309  2.0871
 2507TIP3   OH228935   5.611   0.034   3.983  0.0253 -0.3621 -0.0658
 2507TIP3    H128936   5.534  -0.019   4.001 -0.2298  0.3361  0.9288
 2507TIP3    H228937   5.670   0.016   4.056 -0.6862  1.8952  1.0904
 2508TIP3   OH228938   6.661   4.084   2.903  0.1120 -0.1633  0.3013
 2508TIP3    H128939   6.684   4.168   2.943 -0.1970 -0.1074  0.3580
 2508TIP3    H228940   6.636   4.106   2.814 -0.3524 -0.1494  0.4355
 2509TIP3   OH228941   1.647   0.198   5.575  0.8143  0.2286 -0.5795
 2509TIP3    H128942   1.676   0.192   5.484  2.2835 -1.0866 -0.0496
 2509TIP3    H228943   1.724   0.227   5.623 -0.1628  1.6624  0.1531
 2510TIP3   OH228944   3.493   1.016  10.622  0.0694 -0.1727  0.3738
 2510TIP3    H128945   3.554   1.043  10.691 -0.0050 -0.1588  0.4345
 2510TIP3    H228946   3.538   0.945  10.577 -0.2755 -0.8208  1.0403
 2511TIP3   OH228947   4.998   3.907   0.878 -0.3608 -0.0451  0.5091
 2511TIP3    H128948   5.054   3.932   0.952  0.9481  0.1105 -0.5137
 2511TIP3    H228949   4.909   3.925   0.908  0.2336  1.1592  1.5992
 2512TIP3   OH228950   1.888   1.549  12.285 -0.0512 -0.2538 -0.3568
 2512TIP3    H128951   1.938   1.626  12.310 -1.7418  0.7978 -0.0883
 2512TIP3    H228952   1.899   1.488  12.358 -1.4344  1.0926  1.0205
 2513TIP3   OH228953   1.905   0.956  12.740  0.3768  0.1011 -0.6169
 2513TIP3    H128954   1.813   0.981  12.744  0.9504  2.1100  0.8078
 2513TIP3    H228955   1.933   0.982  12.652 -0.0961  0.6994 -0.5938
 2514TIP3   OH228956   1.572   6.165   1.180 -0.3147  0.6002 -0.2980
 2514TIP3    H128957   1.543   6.248   1.219 -3.1252 -0.2932 -0.4035
 2514TIP3    H228958   1.492   6.114   1.169  1.2060 -1.6098 -1.5248
 2515TIP3   OH228959   1.449   1.762   5.086 -0.6727  0.2092  0.4898
 2515TIP3    H128960   1.442   1.857   5.101  1.1928  1.0324 -3.2092
 2515TIP3    H228961   1.540   1.741   5.108 -0.6995 -0.4503 -0.0195
 2516TIP3   OH228962   3.673   0.412   2.594 -0.5364 -0.5434  0.4988
 2516TIP3    H128963   3.722   0.335   2.623 -0.9453 -0.1767  2.2073
 2516TIP3    H228964   3.668   0.468   2.671  1.4474  2.1273 -1.2569
 2517TIP3   OH228965   2.109   4.022  11.350  0.0526  0.2868 -0.4547
 2517TIP3    H128966   2.091   4.038  11.258  1.0982 -0.9423 -0.8876
 2517TIP3    H228967   2.195   4.061  11.365  0.9690 -1.6357 -0.6096
 2518TIP3   OH228968   3.316   2.397   3.393 -0.0453 -0.0717  0.0159
 2518TIP3    H128969   3.346   2.355   3.313  0.1828  1.6274 -0.8251
 2518TIP3    H228970   3.221   2.393   3.388 -0.0209 -0.9087  0.1814
 2519TIP3   OH228971   6.428   3.418  13.760 -0.0118  0.5152  0.2200
 2519TIP3    H128972   6.441   3.501  13.805  0.2632  0.8499 -0.4579
 2519TIP3    H228973   6.504   3.365  13.782  0.0217  0.6039  0.3138
 2520TIP3   OH228974   1.497   2.987   2.748  0.4685  0.2312 -0.2591
 2520TIP3    H128975   1.560   2.915   2.751 -0.4841 -0.5742  2.4853
 2520TIP3    H228976   1.439   2.966   2.675  0.9574 -1.1664 -0.2603
 2521TIP3   OH228977   3.967   1.351   4.438  0.2484 -0.0360 -0.2220
 2521TIP3    H128978   3.894   1.341   4.499  1.0115 -3.4679  0.2260
 2521TIP3    H228979   4.044   1.323   4.487  1.8660  3.0246 -0.8630
 2522TIP3   OH228980   5.121   6.523  16.013 -0.0519 -0.3105 -0.1745
 2522TIP3    H128981   5.191   6.526  16.078  1.4960 -1.2687 -1.7504
 2522TIP3    H228982   5.059   6.590  16.041  2.0745  1.3792  0.6042
 2523TIP3   OH228983   2.607   4.228   4.444  0.5055 -0.2115  0.6198
 2523TIP3    H128984   2.617   4.164   4.515 -2.2413 -0.8182  0.5023
 2523TIP3    H228985   2.546   4.293   4.479  1.3201  1.0100 -0.1897
 2524TIP3   OH228986   6.119   2.400   3.420  0.7783 -0.4635 -0.5095
 2524TIP3    H128987   6.188   2.371   3.480 -1.6170 -0.0903  2.5992
 2524TIP3    H228988   6.097   2.323   3.369  0.6399 -1.7414  1.4164
 2525TIP3   OH228989   6.047   1.754   1.851 -0.2796  0.6560  0.0716
 2525TIP3    H128990   6.015   1.757   1.761  0.1911  1.5465 -0.0732
 2525TIP3    H228991   6.140   1.774   1.844  0.2612 -1.5342  0.5162
 2526TIP3   OH228992   2.247   5.469  10.414 -0.0440  0.5213  0.1711
 2526TIP3    H128993   2.282   5.497  10.329 -0.9585  0.9032 -0.0896
 2526TIP3    H228994   2.303   5.512  10.478  1.7849 -1.2069 -0.2275
 2527TIP3   OH228995   2.407   5.842   4.376  0.3473  0.0397 -0.8687
 2527TIP3    H128996   2.327   5.791   4.366  0.1060  0.4865 -1.2744
 2527TIP3    H228997   2.380   5.921   4.423  0.5496  0.1820 -0.9873
 2528TIP3   OH228998   2.752   3.784  17.018 -0.0113 -0.3777 -0.0843
 2528TIP3    H128999   2.752   3.787  17.113  2.7656  0.1065 -0.0622
 2528TIP3    H229000   2.818   3.849  16.992 -0.0985 -1.1315 -2.3094
 2529TIP3   OH229001   0.428   0.518   6.555  0.1822  0.3172  0.3037
 2529TIP3    H129002   0.486   0.513   6.632 -1.1356 -1.0904  1.2408
 2529TIP3    H229003   0.341   0.500   6.590 -0.1872 -2.3172 -1.8204
 2530TIP3   OH229004   0.285   2.087  11.413 -0.0615  0.3971 -0.3805
 2530TIP3    H129005   0.230   2.071  11.336  0.2293  1.8098 -0.9051
 2530TIP3    H229006   0.366   2.039  11.396 -1.7321 -3.1546  1.1852
 2531TIP3   OH229007   0.344   2.231   3.410  0.7421  0.0503 -0.4857
 2531TIP3    H129008   0.373   2.170   3.342 -0.5869 -0.2370 -0.8036
 2531TIP3    H229009   0.313   2.176   3.481  0.9367  0.3609 -0.1554
 2532TIP3   OH229010   3.027   1.924  13.447 -0.4149 -0.5898  0.2250
 2532TIP3    H129011   3.117   1.915  13.416 -0.6408 -1.3488 -0.2465
 2532TIP3    H229012   2.993   2.002  13.403 -0.3518 -0.9741 -0.5155
 2533TIP3   OH229013   5.856   6.493   3.695  0.1893  0.0157  0.3009
 2533TIP3    H129014   5.885   6.556   3.628  1.0094 -0.4042  0.2590
 2533TIP3    H229015   5.783   6.446   3.654  2.3824 -2.0734 -1.3063
 2534TIP3   OH229016   4.953   2.319  12.014  0.2201  0.1601  0.1433
 2534TIP3    H129017   4.985   2.402  11.978 -1.0595  0.4822 -0.2848
 2534TIP3    H229018   4.973   2.254  11.947  1.9483 -0.0371  0.8139
 2535TIP3   OH229019   5.960   0.534   0.011  0.2666  0.3670 -0.0633
 2535TIP3    H129020   5.902   0.554  -0.063  0.0904 -0.2416 -0.0951
 2535TIP3    H229021   5.954   0.439   0.021 -3.1097  0.8269  3.4955
 2536TIP3   OH229022   5.464   1.036  11.965 -0.0376  0.3917 -0.6197
 2536TIP3    H129023   5.487   1.111  12.020 -0.9840  1.0864 -1.1461
 2536TIP3    H229024   5.548   1.003  11.933  0.5701 -0.5847  1.9488
 2537TIP3   OH229025   0.108   6.531   4.709  0.1882  0.0551 -0.1951
 2537TIP3    H129026   0.170   6.567   4.645 -0.0818  0.2391 -0.3563
 2537TIP3    H229027   0.146   6.447   4.735  1.6138  1.1618  1.3645
 2538TIP3   OH229028   5.768   5.934   3.255 -0.0743  0.1372 -0.1407
 2538TIP3    H129029   5.796   6.025   3.252  1.0353 -0.1117  1.8441
 2538TIP3    H229030   5.673   5.938   3.247 -0.1569  1.5717  1.3656
 2539TIP3   OH229031   0.507   2.237  17.147 -0.4548  0.2840  0.6465
 2539TIP3    H129032   0.515   2.318  17.198 -0.3822  0.0213  1.0563
 2539TIP3    H229033   0.415   2.236  17.120 -0.5850  0.2507  1.0770
 2540TIP3   OH229034   3.048   2.360   3.526 -0.3197  0.0927  0.9499
 2540TIP3    H129035   3.098   2.408   3.592  0.5050 -0.5853  0.8317
 2540TIP3    H229036   3.045   2.270   3.558 -2.1864  0.2775  1.3554
 2541TIP3   OH229037   6.373   4.008   5.690  0.2364 -0.0949  0.2594
 2541TIP3    H129038   6.468   4.008   5.699  0.1738  1.8140  1.0637
 2541TIP3    H229039   6.340   4.032   5.776 -0.9358  0.4217 -0.3187
 2542TIP3   OH229040   4.105   3.058  16.743 -0.1343  0.0048 -0.1470
 2542TIP3    H129041   4.145   3.000  16.808 -0.4639  1.4951  1.4500
 2542TIP3    H229042   4.177   3.083  16.686 -0.0267 -2.0883 -0.9644
 2543TIP3   OH229043   3.864   4.946   4.869 -0.5724 -0.0380  0.2050
 2543TIP3    H129044   3.917   4.925   4.946 -1.9521 -1.8262  0.7279
 2543TIP3    H229045   3.794   5.003   4.903  0.4003  1.4638 -0.2801
 2544TIP3   OH229046   3.835   5.096   4.200  0.0189  0.2799  0.3259
 2544TIP3    H129047   3.891   5.040   4.146  0.8109  0.2891  1.1319
 2544TIP3    H229048   3.893   5.163   4.235 -0.3914  0.0235  1.5339
 2545TIP3   OH229049   4.675   4.104   6.578  0.3387 -0.8210  0.6994
 2545TIP3    H129050   4.729   4.050   6.521  2.3140  2.5657 -0.8086
 2545TIP3    H229051   4.598   4.051   6.596  1.3347 -3.3844 -2.1848
 2546TIP3   OH229052   4.544   5.994   4.306 -0.2435 -0.1167 -0.0789
 2546TIP3    H129053   4.619   6.044   4.338  0.8289 -1.6240 -0.1953
 2546TIP3    H229054   4.472   6.020   4.365  0.0651  2.1306 -0.6310
 2547TIP3   OH229055   6.093   5.529   4.093 -0.9065 -0.2262  0.5622
 2547TIP3    H129056   6.055   5.617   4.088  0.8590  0.4712 -0.9243
 2547TIP3    H229057   6.173   5.541   4.144 -0.0521 -0.7468 -0.6393
 2548TIP3   OH229058   5.024   3.412  10.597  0.3879  0.1926  0.3666
 2548TIP3    H129059   5.097   3.474  10.587 -0.6354  1.1891 -1.2400
 2548TIP3    H229060   4.949   3.467  10.620 -0.0280 -0.7379  1.2446
 2549TIP3   OH229061   2.443   0.090  13.806 -0.1677 -0.4684  0.3469
 2549TIP3    H129062   2.526   0.044  13.810  0.5327  0.8043  0.5812
 2549TIP3    H229063   2.449   0.147  13.730 -1.1973 -1.0716 -0.2029
 2550TIP3   OH229064   1.270   5.903  12.102 -0.0249  0.0229  0.1208
 2550TIP3    H129065   1.231   5.862  12.024 -2.5862  0.3430  1.1674
 2550TIP3    H229066   1.353   5.940  12.071 -0.7481 -0.3076 -2.3415
 2551TIP3   OH229067   3.353   3.361   2.845  0.3419 -0.6684  0.6166
 2551TIP3    H129068   3.271   3.381   2.800  0.9168 -0.4284 -0.3397
 2551TIP3    H229069   3.343   3.400   2.932  0.4956  1.6830 -0.3981
 2552TIP3   OH229070   0.968   1.926   0.636 -0.1092 -0.0410  0.1140
 2552TIP3    H129071   0.955   1.966   0.550  0.7083 -1.5280 -0.7247
 2552TIP3    H229072   0.889   1.873   0.651  0.5016 -1.1578 -0.5186
 2553TIP3   OH229073   0.176   2.631  13.699  0.4636 -0.1190 -0.3241
 2553TIP3    H129074   0.168   2.627  13.794  0.4934  0.9601 -0.2708
 2553TIP3    H229075   0.236   2.704  13.683  0.0577  0.0294 -1.1955
 2554TIP3   OH229076   1.388   3.313   0.784 -0.6463 -0.4117 -0.1615
 2554TIP3    H129077   1.337   3.394   0.795 -1.8752 -1.4396  1.9678
 2554TIP3    H229078   1.379   3.268   0.868  1.6106 -1.8662 -0.6839
 2555TIP3   OH229079   2.584   0.726  16.589  0.0269  0.3396 -0.1661
 2555TIP3    H129080   2.679   0.720  16.602  0.0570 -0.3433 -0.7081
 2555TIP3    H229081   2.556   0.795  16.649  0.8650  0.5232  0.0137
 2556TIP3   OH229082   6.398   4.766  12.396 -0.5724 -0.1293  0.0713
 2556TIP3    H129083   6.326   4.748  12.456  0.6888 -1.2836  1.2567
 2556TIP3    H229084   6.417   4.681  12.355 -0.6776  0.4195 -1.1572
 2557TIP3   OH229085   4.791   2.687  11.348  0.0079 -0.1516 -0.0039
 2557TIP3    H129086   4.743   2.768  11.330 -0.4864 -0.1700  1.1591
 2557TIP3    H229087   4.738   2.618  11.308 -0.9671 -0.1723  1.2708
 2558TIP3   OH229088   5.286   3.962  11.029 -0.1691  0.4052  0.3867
 2558TIP3    H129089   5.327   4.045  11.054  1.6443 -0.2454 -0.3719
 2558TIP3    H229090   5.302   3.955  10.935 -2.5052  0.3805 -0.0339
 2559TIP3   OH229091   4.290   5.447   6.354  0.2742 -0.6667 -0.4098
 2559TIP3    H129092   4.300   5.352   6.346  0.7854 -0.7696  1.2527
 2559TIP3    H229093   4.198   5.463   6.334  0.2497 -1.4722 -0.9841
 2560TIP3   OH229094   2.328   0.777   5.893 -0.4397 -0.0184  0.0552
 2560TIP3    H129095   2.263   0.832   5.849 -1.2227 -0.2108  0.9694
 2560TIP3    H229096   2.280   0.699   5.921  0.6832 -1.2579 -1.3352
 2561TIP3   OH229097   1.118   6.612   6.364 -0.1013  0.0538 -0.0909
 2561TIP3    H129098   1.171   6.683   6.401 -0.1142  1.6737 -3.0444
 2561TIP3    H229099   1.182   6.552   6.327 -0.2021  0.0346 -0.2309
 2562TIP3   OH229100   2.340   5.177  16.067 -0.1520 -0.0577 -0.2172
 2562TIP3    H129101   2.436   5.181  16.060  0.0006 -1.7721  0.5212
 2562TIP3    H229102   2.316   5.256  16.115  0.9818 -0.0173  0.2973
 2563TIP3   OH229103   2.380   0.806  11.540  0.6527  0.2419  0.0178
 2563TIP3    H129104   2.468   0.785  11.573 -0.2596 -1.7213  1.2540
 2563TIP3    H229105   2.344   0.866  11.606  1.3513  1.7682 -0.9397
 2564TIP3   OH229106   4.837   6.077   5.967  0.2373 -0.1307  0.1296
 2564TIP3    H129107   4.893   6.143   5.927  0.5791 -0.8180 -0.5511
 2564TIP3    H229108   4.895   6.032   6.029 -0.1833  0.6678  1.1128
 2565TIP3   OH229109   6.672   6.428  11.203 -0.1522  0.8271 -0.5136
 2565TIP3    H129110   6.613   6.376  11.256 -0.5373  0.4068 -1.3400
 2565TIP3    H229111   6.651   6.404  11.113  1.6700  0.2225 -0.8008
 2566TIP3   OH229112   4.171   0.953  15.880  0.1202  0.3354  0.4079
 2566TIP3    H129113   4.160   0.937  15.786  1.6924  1.1662  0.0535
 2566TIP3    H229114   4.084   0.976  15.911 -0.3571  0.3938 -0.9285
 2567TIP3   OH229115   5.264   0.225   1.796  0.1360 -1.0919 -0.0801
 2567TIP3    H129116   5.320   0.159   1.757 -1.3826 -1.4325 -1.7541
 2567TIP3    H229117   5.175   0.200   1.770 -0.8311 -0.6817  2.6830
 2568TIP3   OH229118   3.271   5.682  16.695  0.0945  0.0677  1.0767
 2568TIP3    H129119   3.176   5.677  16.699  0.0671  0.5865  1.0523
 2568TIP3    H229120   3.301   5.622  16.763 -0.2446 -0.1810  1.0079
 2569TIP3   OH229121   5.942   4.062  12.500 -0.1376 -0.0209 -0.0285
 2569TIP3    H129122   5.975   4.123  12.566 -0.6992  0.0632  0.1780
 2569TIP3    H229123   5.899   3.993  12.551 -0.7251  0.1348 -0.3144
 2570TIP3   OH229124   4.291   0.959  12.033 -0.4655  0.1830 -0.8003
 2570TIP3    H129125   4.195   0.952  12.035 -0.4259 -0.2426 -0.2834
 2570TIP3    H229126   4.310   1.039  12.082 -0.5263 -0.0355 -0.4188
 2571TIP3   OH229127   1.659   4.807  13.851  0.0806 -0.0467  0.0556
 2571TIP3    H129128   1.730   4.861  13.888  0.6533  0.3975 -1.6460
 2571TIP3    H229129   1.705   4.733  13.811 -0.4831 -0.1828 -0.3358
 2572TIP3   OH229130   5.728   1.242  13.187  0.5935 -0.1731  0.2873
 2572TIP3    H129131   5.697   1.212  13.101  0.3139 -1.6839  0.8998
 2572TIP3    H229132   5.791   1.175  13.214  0.5314  0.1959  1.3550
 2573TIP3   OH229133   2.516   2.487  12.066  0.6206  0.2222 -0.3695
 2573TIP3    H129134   2.423   2.510  12.076  0.5753  0.3174 -1.0436
 2573TIP3    H229135   2.550   2.550  12.003  0.9823 -0.2636 -0.6614
 2574TIP3   OH229136   0.165   0.112   1.630 -0.1224  0.2379 -0.3008
 2574TIP3    H129137   0.181   0.179   1.564  1.0997 -0.1948 -0.4465
 2574TIP3    H229138   0.070   0.113   1.643 -0.2991  0.7446 -1.6167
 2575TIP3   OH229139   0.003   5.556   5.038  0.1099  0.0256  0.3114
 2575TIP3    H129140   0.097   5.573   5.048 -0.1562  1.0349  1.1326
 2575TIP3    H229141  -0.028   5.541   5.128 -0.5228 -0.3032  0.0388
 2576TIP3   OH229142   6.351   4.298   2.533 -0.3248  0.2456 -0.7709
 2576TIP3    H129143   6.419   4.290   2.600 -1.0508  0.1407 -0.0492
 2576TIP3    H229144   6.396   4.339   2.459  0.8094 -0.8939 -0.7239
 2577TIP3   OH229145   5.684   4.238  14.470 -0.2730 -0.0742  0.0971
 2577TIP3    H129146   5.740   4.281  14.405  0.4481  0.2005  0.8868
 2577TIP3    H229147   5.610   4.298  14.481  0.6617  0.9080  1.0893
 2578TIP3   OH229148   3.848   2.409   0.527  0.3074 -0.2484 -0.3611
 2578TIP3    H129149   3.884   2.322   0.508  2.2691  0.4070  0.2077
 2578TIP3    H229150   3.907   2.469   0.482  0.9698  0.9551  2.0346
 2579TIP3   OH229151   4.742   1.030   0.898 -0.1474  0.5608 -0.2538
 2579TIP3    H129152   4.826   1.065   0.870 -0.0359  1.1346  0.7955
 2579TIP3    H229153   4.723   0.961   0.834  1.6834 -0.3937  0.1970
 2580TIP3   OH229154   1.068   6.331   5.454 -0.2074 -0.2459  0.0547
 2580TIP3    H129155   1.108   6.371   5.377  0.3707 -2.0049 -0.5724
 2580TIP3    H229156   1.080   6.396   5.524  0.9978  0.5354 -0.8645
 2581TIP3   OH229157   5.002   0.129   1.758  0.5441 -0.2055  0.4282
 2581TIP3    H129158   5.037   0.042   1.776 -1.9665 -1.1822  0.8166
 2581TIP3    H229159   4.952   0.151   1.837 -0.4952  0.7195 -0.4727
 2582TIP3   OH229160   2.167   5.311  14.730  0.2407 -0.1378  0.3160
 2582TIP3    H129161   2.144   5.237  14.786 -1.1134  0.4781  0.6070
 2582TIP3    H229162   2.209   5.373  14.790  0.8431 -0.4296  0.1932
 2583TIP3   OH229163   4.570   2.886   2.519 -0.4561  0.1774 -0.2085
 2583TIP3    H129164   4.495   2.883   2.578 -0.1236  0.9076  0.2582
 2583TIP3    H229165   4.635   2.829   2.560 -1.0803 -1.1805 -1.0792
 2584TIP3   OH229166   5.583   2.203  10.881 -0.6891 -0.1996 -0.8339
 2584TIP3    H129167   5.500   2.224  10.839 -0.8366 -0.5973 -0.7354
 2584TIP3    H229168   5.561   2.139  10.948 -0.0924 -1.3949 -1.7660
 2585TIP3   OH229169   0.712   2.765   2.499 -0.1283 -0.4945 -0.1674
 2585TIP3    H129170   0.654   2.764   2.575 -0.1013  1.0007 -0.1150
 2585TIP3    H229171   0.698   2.680   2.457 -2.1875 -0.2423 -0.0212
 2586TIP3   OH229172   3.059   1.005  12.011 -0.2933  0.1836 -0.3304
 2586TIP3    H129173   3.149   1.013  12.043 -0.7522  0.9170  0.7937
 2586TIP3    H229174   3.063   0.934  11.946  1.1579  0.4364 -0.5381
 2587TIP3   OH229175   4.582   3.529   3.359  0.7209 -0.0078  0.0377
 2587TIP3    H129176   4.501   3.560   3.399  1.0177 -0.2914  0.8782
 2587TIP3    H229177   4.648   3.592   3.388  1.4016 -1.5915  2.0625
 2588TIP3   OH229178   4.951   5.338   1.712  0.1197 -0.4613  0.6884
 2588TIP3    H129179   4.959   5.301   1.624  1.1031 -0.6211  0.8425
 2588TIP3    H229180   4.917   5.426   1.697  0.1743 -0.5259  0.1482
 2589TIP3   OH229181   0.036   2.139   2.919  0.3896 -0.9777  0.2599
 2589TIP3    H129182   0.005   2.198   2.988 -0.4287 -1.4753  0.3299
 2589TIP3    H229183  -0.044   2.098   2.886  0.6521 -0.0299 -1.6513
 2590TIP3   OH229184   4.283   3.774  10.924  0.0583  0.3464  0.1141
 2590TIP3    H129185   4.224   3.793  10.998  0.3498  1.0410  0.1711
 2590TIP3    H229186   4.333   3.855  10.912  0.8633 -0.1732 -0.0661
 2591TIP3   OH229187   5.691   3.315   0.598  0.1067  0.0994 -0.3060
 2591TIP3    H129188   5.598   3.336   0.602 -0.5531 -2.8429  0.7341
 2591TIP3    H229189   5.730   3.364   0.671 -0.9084 -0.0140  0.3152
 2592TIP3   OH229190   4.337   3.660   6.331 -0.2522 -0.1427 -0.2892
 2592TIP3    H129191   4.289   3.741   6.351 -1.4705 -1.1653  1.0472
 2592TIP3    H229192   4.427   3.679   6.358 -0.3423  1.0452 -0.7660
 2593TIP3   OH229193   2.671   4.264   3.312 -0.0874 -0.6521  0.0232
 2593TIP3    H129194   2.763   4.282   3.328  0.0224  1.0085 -2.3584
 2593TIP3    H229195   2.652   4.303   3.227 -3.0024 -0.9186  0.4755
 2594TIP3   OH229196   2.362   6.359  13.845 -0.8217 -0.0254  0.2933
 2594TIP3    H129197   2.410   6.320  13.918 -1.8119 -0.7625  0.5541
 2594TIP3    H229198   2.409   6.440  13.827  0.5173 -0.7331  0.5519
 2595TIP3   OH229199   2.264   1.570  14.501  0.2401  0.4522 -0.2001
 2595TIP3    H129200   2.342   1.623  14.484  0.3896  1.0237  2.2181
 2595TIP3    H229201   2.293   1.480  14.486  0.7091  0.8159 -1.6043
 2596TIP3   OH229202   4.201   0.724   1.032  0.1043  0.0335 -0.0142
 2596TIP3    H129203   4.160   0.648   0.991  1.5289 -0.8473  0.1809
 2596TIP3    H229204   4.250   0.767   0.962  0.1754  0.1706  0.1160
 2597TIP3   OH229205   4.679   0.903   4.489 -1.3154  0.4049  0.5603
 2597TIP3    H129206   4.742   0.840   4.524 -0.2135  1.3388  0.2789
 2597TIP3    H229207   4.598   0.885   4.538 -1.1681 -1.5649  0.1002
 2598TIP3   OH229208   0.940   2.556   0.634 -0.0667 -0.0650 -0.1271
 2598TIP3    H129209   0.889   2.494   0.687  1.3334 -1.0845  0.0693
 2598TIP3    H229210   0.973   2.619   0.698  0.0321 -0.1837 -0.0606
 2599TIP3   OH229211   3.682   0.214  12.307 -0.0704 -0.2280  0.6774
 2599TIP3    H129212   3.686   0.261  12.390 -0.6162 -0.2220  0.7069
 2599TIP3    H229213   3.662   0.282  12.243  1.4745 -0.0549  0.3712
 2600TIP3   OH229214   0.892   2.398  13.879 -0.3218 -0.7195  0.5083
 2600TIP3    H129215   0.878   2.390  13.784 -1.7515 -1.0472  0.7382
 2600TIP3    H229216   0.955   2.469  13.888  0.8294 -1.5469 -0.7619
 2601TIP3   OH229217   1.575   2.259  15.366  0.5449  0.1661 -0.6157
 2601TIP3    H129218   1.529   2.297  15.292  0.4708 -1.5922 -1.4805
 2601TIP3    H229219   1.652   2.217  15.328  0.7403 -0.3631  0.3437
 2602TIP3   OH229220   0.812   5.739   6.051 -0.1659  1.0521  0.0717
 2602TIP3    H129221   0.776   5.789   6.124  0.7488  0.1324  1.1728
 2602TIP3    H229222   0.894   5.784   6.029  0.8864 -0.2041  1.3615
 2603TIP3   OH229223   1.134   0.321  15.002 -0.0383  0.7588 -0.1694
 2603TIP3    H129224   1.087   0.369  15.070  1.0815  1.1850  0.3067
 2603TIP3    H229225   1.196   0.266  15.050  0.2496  0.5140 -0.8187
 2604TIP3   OH229226   2.654   0.777   0.898  0.0938  0.5520 -0.3117
 2604TIP3    H129227   2.678   0.864   0.929  0.0453  0.8393 -1.0913
 2604TIP3    H229228   2.619   0.733   0.976  0.7753  0.9829  0.2432
 2605TIP3   OH229229   3.417   2.309  10.417 -0.0764  0.6720 -0.0338
 2605TIP3    H129230   3.496   2.342  10.461 -0.0122  0.1806  0.2228
 2605TIP3    H229231   3.384   2.242  10.476 -0.7641  0.9662 -0.0822
 2606TIP3   OH229232   5.600   5.877   1.128  0.5038  0.2068  0.4324
 2606TIP3    H129233   5.555   5.959   1.111 -0.8384 -0.4204  0.8690
 2606TIP3    H229234   5.639   5.853   1.044  0.6996  1.1598  0.2482
 2607TIP3   OH229235   0.521   3.566  12.332 -0.9474  0.1239 -0.5129
 2607TIP3    H129236   0.476   3.494  12.377 -0.3803  0.7829  1.1477
 2607TIP3    H229237   0.499   3.644  12.383 -0.3062  0.8990 -1.3987
 2608TIP3   OH229238   5.406   6.786  15.303 -0.2333  0.4564 -0.1469
 2608TIP3    H129239   5.330   6.820  15.350 -1.2649 -0.3387 -1.2134
 2608TIP3    H229240   5.383   6.796  15.211  0.7023 -0.3903 -0.4732
 2609TIP3   OH229241   1.395   0.677   5.807 -0.3512 -0.2371  1.0714
 2609TIP3    H129242   1.340   0.739   5.854 -0.0744 -0.1192  1.2407
 2609TIP3    H229243   1.403   0.602   5.866 -0.7327 -0.4579  0.8418
 2610TIP3   OH229244   5.392   6.292   0.236 -0.0714  0.9345  0.1687
 2610TIP3    H129245   5.471   6.259   0.279  0.6668  1.8325 -0.4828
 2610TIP3    H229246   5.323   6.233   0.265  0.6831  0.6614  1.4340
 2611TIP3   OH229247   0.627   4.909   0.041  0.3193  0.4021 -0.2516
 2611TIP3    H129248   0.613   4.815   0.050 -1.1757  0.6628  0.3191
 2611TIP3    H229249   0.583   4.931  -0.042 -2.8874  1.2353  1.5680
 2612TIP3   OH229250   6.048   5.927  11.028 -0.5259 -0.8250 -0.1314
 2612TIP3    H129251   6.064   5.959  10.939  0.9685  1.1321  0.7930
 2612TIP3    H229252   5.987   5.991  11.066 -2.0659 -2.2863 -0.1170
 2613TIP3   OH229253   0.862   3.764   3.477 -0.4547  0.4082 -0.1672
 2613TIP3    H129254   0.874   3.843   3.530 -2.3606 -0.7561  2.0592
 2613TIP3    H229255   0.935   3.707   3.502 -0.6341  0.3695  0.2701
 2614TIP3   OH229256   5.202   6.627   2.947 -0.5200 -0.4141 -0.1571
 2614TIP3    H129257   5.119   6.653   2.987 -0.1313 -0.7441  0.8823
 2614TIP3    H229258   5.261   6.616   3.021  0.5418  0.1322 -0.9153
 2615TIP3   OH229259   6.327   3.854   0.411 -0.3942  0.7202 -0.2258
 2615TIP3    H129260   6.316   3.916   0.339 -1.4523 -1.5791 -2.0906
 2615TIP3    H229261   6.244   3.859   0.459 -0.4623  0.7615 -0.3475
 2616TIP3   OH229262   5.583   0.605   3.978 -0.5110 -0.5668  0.1991
 2616TIP3    H129263   5.522   0.613   3.905 -0.3327  2.8619  0.3495
 2616TIP3    H229264   5.528   0.615   4.056  0.1527  2.2698  0.3409
 2617TIP3   OH229265   6.688   1.239   1.246  0.1033  0.5025 -0.2615
 2617TIP3    H129266   6.645   1.162   1.210  0.6321  0.7525 -1.4385
 2617TIP3    H229267   6.682   1.228   1.341 -0.2280 -0.7509 -0.4285
 2618TIP3   OH229268   4.364   2.584   4.542  0.0951  0.0375  0.1151
 2618TIP3    H129269   4.306   2.635   4.599 -0.8917  2.0214 -2.5160
 2618TIP3    H229270   4.419   2.650   4.500  3.2765 -1.6887  1.3949
 2619TIP3   OH229271   3.149   3.976  14.149  0.5307  0.3106  0.6264
 2619TIP3    H129272   3.243   3.994  14.147  0.4461  0.6697 -0.8108
 2619TIP3    H229273   3.140   3.889  14.110  0.2120  0.4930  0.2964
 2620TIP3   OH229274   4.712   4.720  15.877 -0.2723 -0.0090  0.1806
 2620TIP3    H129275   4.686   4.768  15.799  0.3972 -0.3881 -0.2735
 2620TIP3    H229276   4.762   4.783  15.929  1.3878 -0.4726 -0.8346
 2621TIP3   OH229277   4.142   5.106   5.504  0.3421 -0.3163  0.0808
 2621TIP3    H129278   4.156   5.081   5.596  1.7357 -0.0677 -0.0593
 2621TIP3    H229279   4.058   5.066   5.481 -0.5843  0.5644  1.8063
 2622TIP3   OH229280   2.629   0.844   2.011 -0.2999  0.4878  0.1018
 2622TIP3    H129281   2.685   0.771   2.038 -0.0717  0.6283  0.0032
 2622TIP3    H229282   2.667   0.921   2.052 -0.2631  0.6211 -0.1786
 2623TIP3   OH229283   3.060   3.733   2.514 -0.0490 -0.5528 -0.0583
 2623TIP3    H129284   3.133   3.771   2.562 -1.6281  0.5944  1.4970
 2623TIP3    H229285   2.982   3.761   2.562 -1.7127  0.7746 -3.3423
 2624TIP3   OH229286   0.845   0.296   6.247 -0.2462  0.2091  0.2962
 2624TIP3    H129287   0.768   0.309   6.302  0.0303 -0.2544  0.7853
 2624TIP3    H229288   0.919   0.305   6.307  0.0074 -2.0770  0.3467
 2625TIP3   OH229289   0.535   1.535   2.157 -0.1429 -0.0256  0.0813
 2625TIP3    H129290   0.502   1.457   2.112  0.0600  0.4786 -0.9442
 2625TIP3    H229291   0.628   1.517   2.171 -0.4848 -0.7571  1.5284
 2626TIP3   OH229292   3.455   3.549  12.345 -0.1197 -0.3145 -0.0691
 2626TIP3    H129293   3.433   3.614  12.278 -1.7993  0.5075  1.2673
 2626TIP3    H229294   3.435   3.465  12.304 -1.7437  0.2175 -0.3903
 2627TIP3   OH229295   2.570   3.513   6.557  0.1883  0.2964  0.1299
 2627TIP3    H129296   2.563   3.465   6.475  0.3888  1.0540 -0.3444
 2627TIP3    H229297   2.592   3.603   6.530 -2.2605  1.1609  0.8562
 2628TIP3   OH229298   3.783   1.454  16.845 -0.1678  0.1717 -0.0701
 2628TIP3    H129299   3.831   1.371  16.844 -1.0040 -0.3167 -0.6053
 2628TIP3    H229300   3.702   1.434  16.893 -0.9173  0.3579 -1.2407
 2629TIP3   OH229301   3.943   3.163  12.367  0.1103  0.5344 -0.0880
 2629TIP3    H129302   3.960   3.069  12.371  1.6209  0.8073  0.2844
 2629TIP3    H229303   3.859   3.175  12.413 -0.8488 -0.7939 -1.4566
 2630TIP3   OH229304   3.627   0.618   5.599 -0.3260  0.6972  0.4743
 2630TIP3    H129305   3.668   0.695   5.637  1.8323 -0.2565  0.1396
 2630TIP3    H229306   3.680   0.598   5.522 -2.2360  0.2247 -0.7624
 2631TIP3   OH229307   3.816   6.787  16.695  0.3426  0.1702 -0.3781
 2631TIP3    H129308   3.753   6.822  16.759 -0.1122  0.5557 -1.0354
 2631TIP3    H229309   3.761   6.750  16.626  0.8340  1.7382 -1.6228
 2632TIP3   OH229310   0.037   6.313  11.837 -0.2122  0.6255 -0.7312
 2632TIP3    H129311   0.003   6.241  11.890  0.7585  2.1816  2.1117
 2632TIP3    H229312  -0.037   6.339  11.781 -2.3112  1.0038  2.1258
 2633TIP3   OH229313   0.705   2.788  12.802  0.0897  0.0735  0.1864
 2633TIP3    H129314   0.661   2.834  12.874  2.7842  3.8979 -0.4985
 2633TIP3    H229315   0.784   2.752  12.842  1.0349  1.2723 -0.5662
 2634TIP3   OH229316   1.872   0.535   6.267  0.1852 -0.6179 -0.0983
 2634TIP3    H129317   1.960   0.572   6.280  0.3704 -0.4223 -1.8228
 2634TIP3    H229318   1.887   0.455   6.216 -0.7584  0.1964 -1.6919
 2635TIP3   OH229319   6.284   6.017  12.976 -0.5592  0.8558  0.0025
 2635TIP3    H129320   6.200   6.033  12.933 -0.4970  0.7605 -0.1541
 2635TIP3    H229321   6.310   6.102  13.011 -0.4564  0.9935 -0.4167
 2636TIP3   OH229322   3.043   4.990  14.617 -0.8175  0.4309  0.1878
 2636TIP3    H129323   3.023   4.920  14.679 -1.0691  0.7632  0.4799
 2636TIP3    H229324   2.977   5.057  14.633  0.9485  1.8613  1.6586
 2637TIP3   OH229325   3.759   1.997   2.258  0.0651 -0.1474 -0.4809
 2637TIP3    H129326   3.770   1.927   2.322  1.9016 -0.1001 -0.7213
 2637TIP3    H229327   3.763   2.077   2.310  2.9665 -0.0521 -0.7803
 2638TIP3   OH229328   1.363   1.973   0.182 -0.5649 -0.4003  0.4341
 2638TIP3    H129329   1.368   2.067   0.199 -0.0990 -0.2126 -0.6739
 2638TIP3    H229330   1.285   1.945   0.228 -1.4604  0.7841 -0.3224
 2639TIP3   OH229331   2.498   2.891  12.678 -0.3523 -0.3735  1.0354
 2639TIP3    H129332   2.453   2.901  12.594 -0.4292 -1.5613  0.9308
 2639TIP3    H229333   2.587   2.862  12.654 -0.5187 -1.1759  1.3789
 2640TIP3   OH229334   5.616   2.252   2.223  0.1306  0.2618  0.2292
 2640TIP3    H129335   5.630   2.298   2.306  0.4983  0.0699  0.2710
 2640TIP3    H229336   5.564   2.313   2.171 -0.2767  0.3037  0.6755
 2641TIP3   OH229337   5.581   3.765   4.402  0.1200  0.1042 -0.0493
 2641TIP3    H129338   5.653   3.803   4.352  0.1541 -1.8662 -1.5605
 2641TIP3    H229339   5.562   3.829   4.470  0.8005  2.3480 -1.9289
 2642TIP3   OH229340   5.716   3.634   3.835  0.2261  0.0519  0.3167
 2642TIP3    H129341   5.786   3.645   3.771 -1.4148 -0.9296 -1.7188
 2642TIP3    H229342   5.661   3.712   3.824 -2.7172 -2.3227 -2.9876
 2643TIP3   OH229343   1.545   3.029  13.902  0.4228 -0.0011  0.4237
 2643TIP3    H129344   1.479   3.093  13.927 -0.4905 -2.0422  3.5628
 2643TIP3    H229345   1.622   3.051  13.955  0.5209 -0.7650  0.6056
 2644TIP3   OH229346   5.565   5.579   5.493  0.5616  0.1640 -0.4200
 2644TIP3    H129347   5.626   5.517   5.453 -0.3447 -0.5720 -0.6732
 2644TIP3    H229348   5.478   5.547   5.469 -0.0055 -0.0644  1.7577
 2645TIP3   OH229349   3.940   4.188  11.618 -0.0698  0.3159  0.0246
 2645TIP3    H129350   3.985   4.242  11.682 -0.1854 -0.0024  0.3779
 2645TIP3    H229351   3.892   4.250  11.563  2.2609  0.8195 -1.5350
 2646TIP3   OH229352   1.745   4.655   5.287  0.7637 -0.1420  0.8337
 2646TIP3    H129353   1.786   4.631   5.204  0.6612 -1.9178  1.2786
 2646TIP3    H229354   1.713   4.572   5.322 -0.8417  0.8566  1.7633
 2647TIP3   OH229355   4.122   5.901  14.213  0.3023 -0.2687 -0.1894
 2647TIP3    H129356   4.115   5.994  14.195  2.1526 -0.1836 -0.5925
 2647TIP3    H229357   4.034   5.867  14.201 -0.3996  1.4350  0.0240
 2648TIP3   OH229358   3.152   2.343   2.979 -0.4477  0.2198 -0.2516
 2648TIP3    H129359   3.167   2.416   3.040 -1.3963 -0.2643  0.5902
 2648TIP3    H229360   3.160   2.382   2.892  0.4390  1.0314  0.1849
 2649TIP3   OH229361   6.516   1.652  12.661  0.4978  0.2240  0.3379
 2649TIP3    H129362   6.475   1.616  12.582  0.4142 -0.6351  0.7647
 2649TIP3    H229363   6.609   1.656  12.639  0.4532  0.1541  0.1314
 2650TIP3   OH229364   4.789   3.180   5.570 -0.2808 -0.0308 -0.1002
 2650TIP3    H129365   4.787   3.245   5.499 -1.6903 -1.4797 -1.4297
 2650TIP3    H229366   4.846   3.111   5.537  0.5692  0.1476  0.9842
 2651TIP3   OH229367   0.956   1.735   1.063 -0.0744  0.6867  0.1986
 2651TIP3    H129368   0.873   1.696   1.091 -1.0970  0.3652 -3.1161
 2651TIP3    H229369   1.018   1.662   1.062 -0.1833  0.5817  0.9822
 2652TIP3   OH229370   6.755   1.587  10.835  0.6374  0.7321 -0.5389
 2652TIP3    H129371   6.824   1.652  10.839  0.0336  1.5170 -2.2682
 2652TIP3    H229372   6.681   1.627  10.881  0.5169  0.9415 -0.9150
 2653TIP3   OH229373   5.757   0.969   3.316 -0.2294 -0.1740 -0.7532
 2653TIP3    H129374   5.753   0.916   3.237 -0.3112 -0.6851 -0.4076
 2653TIP3    H229375   5.792   1.053   3.287 -0.5353 -0.2636 -1.3800
 2654TIP3   OH229376   4.892   4.071   1.682  0.3166 -0.5167  0.4365
 2654TIP3    H129377   4.861   4.106   1.598 -1.0427 -1.1745  0.6496
 2654TIP3    H229378   4.885   4.145   1.743 -1.3914 -0.8117  0.6094
 2655TIP3   OH229379   1.127   3.712   5.340 -0.0528  0.6679 -0.4250
 2655TIP3    H129380   1.204   3.723   5.285 -0.9718 -1.6825 -2.2627
 2655TIP3    H229381   1.069   3.784   5.316  1.4351  2.3230  0.8123
 2656TIP3   OH229382   0.623   5.683   4.367 -0.4710 -0.2058 -0.5266
 2656TIP3    H129383   0.652   5.773   4.378  0.2892 -0.4288 -0.6469
 2656TIP3    H229384   0.704   5.633   4.359 -0.7446 -1.3167  2.6643
 2657TIP3   OH229385   5.628   2.273  13.687 -1.0053 -0.1738  0.5021
 2657TIP3    H129386   5.671   2.194  13.655 -1.1471 -0.2719  0.5553
 2657TIP3    H229387   5.569   2.298  13.616 -1.5936 -0.5998  0.8423
 2658TIP3   OH229388   1.065   3.426  13.669 -0.1810  0.1676  0.6122
 2658TIP3    H129389   1.085   3.482  13.595 -0.2132  2.0600  1.9839
 2658TIP3    H229390   1.143   3.430  13.725 -0.8143  0.1838  1.5207
 2659TIP3   OH229391   4.080   0.507  15.462  0.1529 -0.6987  0.1447
 2659TIP3    H129392   4.096   0.471  15.549 -0.6894 -1.8583 -0.1805
 2659TIP3    H229393   4.009   0.570  15.475  2.2424  1.6071  0.8827
 2660TIP3   OH229394   6.635   4.984   1.137 -0.2230 -0.0464 -0.0703
 2660TIP3    H129395   6.656   4.996   1.230 -1.0968  0.5847  0.0517
 2660TIP3    H229396   6.540   4.995   1.132  0.0106  1.6520 -1.2919
 2661TIP3   OH229397   3.562   3.906  15.372 -0.6606  0.3351  0.1004
 2661TIP3    H129398   3.530   3.934  15.458 -1.4626 -3.0057  0.9451
 2661TIP3    H229399   3.484   3.906  15.316 -0.3346  1.4454 -0.3768
 2662TIP3   OH229400   1.245   2.796  17.129  0.2802 -0.0479  0.1260
 2662TIP3    H129401   1.296   2.739  17.072  0.0203  0.7222 -0.9057
 2662TIP3    H229402   1.214   2.866  17.071 -1.2081 -0.0308  0.9161
 2663TIP3   OH229403   6.447   5.722   4.014  0.2312 -0.2275 -0.5552
 2663TIP3    H129404   6.416   5.730   3.924 -0.0872 -2.4377 -0.6856
 2663TIP3    H229405   6.538   5.751   4.011  0.0046  0.3939 -1.4450
 2664TIP3   OH229406   4.162   3.416  12.800 -1.0330  0.0787  0.0852
 2664TIP3    H129407   4.124   3.372  12.877  0.8043  0.7380  1.4084
 2664TIP3    H229408   4.149   3.354  12.728  0.5791 -2.2187  1.6975
 2665TIP3   OH229409   4.559   0.630   3.320 -0.5988 -0.1693 -0.2640
 2665TIP3    H129410   4.590   0.571   3.389  0.5466  1.3610  0.5507
 2665TIP3    H229411   4.475   0.663   3.352 -1.3023 -1.4079 -0.7757
 2666TIP3   OH229412   0.099   5.985   2.639  0.1481 -0.4207  0.2582
 2666TIP3    H129413   0.018   6.009   2.683 -0.0276  1.2130 -0.9133
 2666TIP3    H229414   0.138   6.068   2.612  1.0609 -1.2995 -1.2315
 2667TIP3   OH229415   0.890   5.447  17.070 -0.3508 -0.4955  0.1603
 2667TIP3    H129416   0.941   5.383  17.120  1.4286  1.0923  0.4545
 2667TIP3    H229417   0.926   5.441  16.981 -1.9141 -1.6619 -0.4184
 2668TIP3   OH229418   4.583   5.852   2.066 -0.0738 -0.1288  0.1124
 2668TIP3    H129419   4.645   5.894   2.007 -0.3597 -2.0471 -1.5957
 2668TIP3    H229420   4.632   5.779   2.104 -1.1633 -1.4694 -1.0180
 2669TIP3   OH229421   1.455   0.170  12.579  0.8732 -0.4972  0.0192
 2669TIP3    H129422   1.367   0.133  12.588  0.4446  0.9511  2.1969
 2669TIP3    H229423   1.447   0.260  12.609  2.6797  0.2971 -1.7417
 2670TIP3   OH229424   5.629   3.281  13.630  0.6534  0.3785 -0.0459
 2670TIP3    H129425   5.545   3.276  13.584 -0.1065 -0.4085  1.4007
 2670TIP3    H229426   5.688   3.228  13.577 -0.1199 -0.2062 -0.3334
 2671TIP3   OH229427   4.593   2.833   3.947 -0.1637  0.0709  0.1525
 2671TIP3    H129428   4.520   2.886   3.978 -0.7697 -0.0776 -1.0272
 2671TIP3    H229429   4.670   2.890   3.956 -0.3961  0.1951  1.4603
 2672TIP3   OH229430   3.762   0.664   2.403  0.2833  0.1527 -0.3551
 2672TIP3    H129431   3.731   0.703   2.484  1.2589 -0.4365  0.3114
 2672TIP3    H229432   3.845   0.709   2.385  0.8703 -0.8293 -0.1560
 2673TIP3   OH229433   0.884   1.362  12.586  0.7037  0.2698 -0.5682
 2673TIP3    H129434   0.799   1.375  12.543  1.0748  2.1230 -0.7970
 2673TIP3    H229435   0.940   1.430  12.548  2.1133 -0.5333  0.0550
 2674TIP3   OH229436   3.212   5.030   3.227  0.0100  0.0760  0.5177
 2674TIP3    H129437   3.124   4.994   3.240 -0.2039  1.0633  1.9471
 2674TIP3    H229438   3.248   5.037   3.316  1.2070  0.4864  0.0063
 2675TIP3   OH229439   2.328   3.944  12.862 -0.0294  0.1077  0.0151
 2675TIP3    H129440   2.411   3.956  12.907  0.4625  1.6755 -1.2416
 2675TIP3    H229441   2.352   3.903  12.779 -0.5344  0.3573 -0.2572
 2676TIP3   OH229442   4.649   5.147  16.368  0.0126  0.6545 -0.1141
 2676TIP3    H129443   4.725   5.107  16.327 -2.1271 -3.8469  0.0668
 2676TIP3    H229444   4.650   5.114  16.458 -2.5088 -0.0545 -0.2994
 2677TIP3   OH229445   0.744   6.786  16.664  0.0119 -0.3402  0.3717
 2677TIP3    H129446   0.787   6.732  16.599  0.0320  0.3324 -0.1772
 2677TIP3    H229447   0.664   6.739  16.686 -0.3899 -0.1858 -0.7269
 2678TIP3   OH229448   2.663   0.228   2.976  0.3390 -0.2471 -0.4043
 2678TIP3    H129449   2.591   0.278   3.014  1.6974  1.4762 -0.0541
 2678TIP3    H229450   2.623   0.145   2.949 -1.8023  0.7518 -0.3791
 2679TIP3   OH229451   1.143   3.833   0.426  0.2638  0.2455 -0.4791
 2679TIP3    H129452   1.200   3.877   0.364  0.2662  0.8048 -0.0767
 2679TIP3    H229453   1.182   3.746   0.436  1.6251  0.9700  0.5770
 2680TIP3   OH229454   2.164   0.306   1.124  0.5667 -0.3238  0.3017
 2680TIP3    H129455   2.074   0.308   1.089  0.3035 -0.4825  0.9560
 2680TIP3    H229456   2.210   0.244   1.067  0.9557  1.6968 -1.6432
 2681TIP3   OH229457   6.104   2.731  14.777  0.4634 -0.2996 -0.0132
 2681TIP3    H129458   6.052   2.760  14.702  0.7870  0.9569  0.2424
 2681TIP3    H229459   6.123   2.639  14.758 -0.2840 -0.2581 -1.0014
 2682TIP3   OH229460   3.771   0.917  10.818 -0.5071 -0.5317 -0.1416
 2682TIP3    H129461   3.718   0.987  10.856  0.4193  0.2975 -0.3545
 2682TIP3    H229462   3.774   0.936  10.724  0.8870 -0.0575 -0.0205
 2683TIP3   OH229463   2.052   0.976   2.277  0.5878  0.1444 -0.3594
 2683TIP3    H129464   1.992   1.051   2.274 -0.5061 -0.7414 -1.4235
 2683TIP3    H229465   2.000   0.903   2.243  2.3209 -0.6260 -1.4225
 2684TIP3   OH229466   0.258   4.153  11.682  0.0944 -0.4166 -0.2977
 2684TIP3    H129467   0.241   4.093  11.754 -0.5771 -0.8992 -0.8520
 2684TIP3    H229468   0.273   4.238  11.724 -1.8993 -0.3590  0.3200
 2685TIP3   OH229469   1.844   1.355  14.364 -0.1197  0.1328 -0.3493
 2685TIP3    H129470   1.860   1.294  14.435  0.5135 -0.7868 -1.2718
 2685TIP3    H229471   1.749   1.364  14.360 -0.1473  0.4355  0.8005
 2686TIP3   OH229472   2.040   6.303  16.403  0.5593 -0.0173  0.7552
 2686TIP3    H129473   2.022   6.396  16.416  0.0506  0.1100 -0.7392
 2686TIP3    H229474   2.100   6.280  16.474  0.7196  1.4509  1.1154
 2687TIP3   OH229475   5.719   2.585   1.767  0.2087 -0.1227 -0.4796
 2687TIP3    H129476   5.674   2.586   1.683  1.7028  0.4818 -1.2857
 2687TIP3    H229477   5.756   2.497   1.774  2.6770  0.7473 -1.8909
 2688TIP3   OH229478   2.172   6.146  15.949 -0.0101  0.8947  0.0900
 2688TIP3    H129479   2.162   6.089  16.025  0.9447  1.1826  0.4289
 2688TIP3    H229480   2.114   6.220  15.967 -0.6928  0.3876 -0.0131
 2689TIP3   OH229481   5.545   1.659  13.143  0.6269 -0.0415  0.2343
 2689TIP3    H129482   5.578   1.593  13.081  0.1865 -0.7272  0.7251
 2689TIP3    H229483   5.616   1.723  13.150  0.9884 -0.3677 -0.3812
 2690TIP3   OH229484   3.331   2.565   0.416  0.0088 -0.0084  0.3756
 2690TIP3    H129485   3.420   2.597   0.433  0.0620  0.6241 -1.0174
 2690TIP3    H229486   3.342   2.472   0.397  0.3761  0.0519  0.2767
 2691TIP3   OH229487   2.957   3.057  14.898  0.2210  0.3104  0.0406
 2691TIP3    H129488   3.003   3.127  14.851  0.2340  1.0271  1.0921
 2691TIP3    H229489   2.974   2.978  14.847  0.3295  1.0517 -1.0863
 2692TIP3   OH229490   3.881   1.883  13.184  0.2020  0.5348 -0.0060
 2692TIP3    H129491   3.925   1.823  13.245 -1.3013 -0.9470 -0.3721
 2692TIP3    H229492   3.918   1.862  13.099  0.3477  0.7709 -0.0014
 2693TIP3   OH229493   3.429   2.685  14.440 -0.1132  0.3832  0.1978
 2693TIP3    H129494   3.522   2.671  14.459 -0.1548  0.8771  0.7709
 2693TIP3    H229495   3.384   2.658  14.520 -0.4276  0.6456  0.1099
 2694TIP3   OH229496   5.899   5.534   4.746 -0.2377 -0.0577  0.7243
 2694TIP3    H129497   5.831   5.468   4.766  0.4561 -1.8690 -2.5840
 2694TIP3    H229498   5.974   5.506   4.798  0.7347 -3.2251 -2.1956
 2695TIP3   OH229499   1.658   0.004  15.093  0.3520  0.2444 -0.8629
 2695TIP3    H129500   1.726  -0.061  15.111  0.8096  1.0695  0.4608
 2695TIP3    H229501   1.653   0.008  14.997  0.5920 -1.4450 -0.9576
 2696TIP3   OH229502   4.511   5.147   0.606  0.0527 -0.1259 -0.4295
 2696TIP3    H129503   4.605   5.162   0.617  0.3935 -1.7084 -0.9955
 2696TIP3    H229504   4.502   5.126   0.513 -0.8447 -0.0880 -0.3485
 2697TIP3   OH229505   2.003   5.204  17.008  0.5529 -0.0751  0.1839
 2697TIP3    H129506   1.958   5.195  17.092  0.5533 -0.2974  0.1614
 2697TIP3    H229507   2.095   5.211  17.031  0.7858 -2.4433  0.0825
 2698TIP3   OH229508   4.250   1.362   1.734  0.5949  0.1928  0.3397
 2698TIP3    H129509   4.342   1.340   1.716  0.5841  0.7882 -0.4444
 2698TIP3    H229510   4.202   1.283   1.709  1.1182 -1.0924  3.1889
 2699TIP3   OH229511   5.580   5.278   0.719  0.2795 -0.5230 -0.1794
 2699TIP3    H129512   5.586   5.185   0.740 -1.5988 -0.6870 -0.2468
 2699TIP3    H229513   5.540   5.281   0.632  3.0780  0.2938 -1.4898
 2700TIP3   OH229514   1.592   2.348   4.625 -0.5201  0.6860 -0.1593
 2700TIP3    H129515   1.515   2.402   4.647 -0.0236  0.9949  0.8613
 2700TIP3    H229516   1.664   2.389   4.673  0.1706  0.0448 -0.6414
 2701TIP3   OH229517   2.196   3.312   3.655  0.7122 -0.2432  0.4895
 2701TIP3    H129518   2.146   3.373   3.600  2.6209 -0.2456 -1.3325
 2701TIP3    H229519   2.239   3.368   3.719  0.9848  0.1418 -0.0223
 2702TIP3   OH229520   6.111   4.003  11.310 -0.6977  0.4486 -0.4915
 2702TIP3    H129521   6.016   4.001  11.322 -0.4721 -1.6760  1.2344
 2702TIP3    H229522   6.123   4.032  11.220 -3.0654 -1.4019 -1.4727
 2703TIP3   OH229523   1.348   3.892  14.178  0.3003  0.5406  0.0262
 2703TIP3    H129524   1.364   3.972  14.229  1.8301  0.4934 -0.3345
 2703TIP3    H229525   1.434   3.870  14.142 -0.3978 -0.4928 -1.0205
 2704TIP3   OH229526   0.841   6.051  11.995  0.3475 -0.1719 -0.3323
 2704TIP3    H129527   0.785   6.078  11.922 -0.1972  2.0332  0.8635
 2704TIP3    H229528   0.783   6.004  12.054  0.0994  0.7829  0.1807
 2705TIP3   OH229529   0.877   0.789   0.947 -0.1980  0.2148 -0.2268
 2705TIP3    H129530   0.891   0.874   0.904 -2.7236  0.4507 -0.6558
 2705TIP3    H229531   0.915   0.799   1.034 -0.1027  1.6235 -0.4270
 2706TIP3   OH229532   5.781   6.429  15.680  0.0274 -0.2530 -0.1711
 2706TIP3    H129533   5.741   6.443  15.766 -0.7348 -0.1488 -0.5401
 2706TIP3    H229534   5.726   6.478  15.619  1.9027  1.6562 -0.4321
 2707TIP3   OH229535   4.837   0.065   1.539 -0.5050 -0.3196 -0.0288
 2707TIP3    H129536   4.870   0.077   1.628  0.1277 -2.4493  0.0692
 2707TIP3    H229537   4.916   0.058   1.485 -0.8842  0.6913 -0.7215
 2708TIP3   OH229538   0.087   4.444   3.991  0.3886  0.3157  0.5730
 2708TIP3    H129539   0.142   4.365   3.985  0.4181  0.3877 -0.1811
 2708TIP3    H229540  -0.002   4.412   3.980  0.5153  0.5702 -1.4178
 2709TIP3   OH229541   4.335   0.242   0.569  0.2887  0.0030  0.3148
 2709TIP3    H129542   4.335   0.337   0.578  2.0473  0.2218 -1.4996
 2709TIP3    H229543   4.425   0.216   0.587  0.0704 -1.1835 -0.2544
 2710TIP3   OH229544   4.802   3.983  11.107  0.3715 -0.5430  0.3040
 2710TIP3    H129545   4.891   3.992  11.141  0.6940  2.0873 -1.1328
 2710TIP3    H229546   4.807   4.014  11.017 -1.8938 -0.9570 -0.0050
 2711TIP3   OH229547   5.940   4.434   2.772 -0.0098  0.5706 -0.3051
 2711TIP3    H129548   5.927   4.490   2.696  0.0706 -2.1694 -2.4058
 2711TIP3    H229549   5.852   4.423   2.809 -0.2774  0.6909 -0.9033
 2712TIP3   OH229550   0.259   1.530  14.967 -0.3238  0.5428 -0.7995
 2712TIP3    H129551   0.232   1.613  15.007 -1.4561 -0.3942  0.4191
 2712TIP3    H229552   0.347   1.514  15.002 -1.4810 -0.5037  1.7642
 2713TIP3   OH229553   3.395   5.882   1.668  0.6567 -0.0929 -0.0809
 2713TIP3    H129554   3.344   5.916   1.594 -1.5027 -1.5116  0.7195
 2713TIP3    H229555   3.399   5.788   1.652 -0.0387 -0.4400  1.7216
 2714TIP3   OH229556   0.229   6.109   3.865  0.2844  0.5049 -0.0782
 2714TIP3    H129557   0.285   6.151   3.800  0.3343 -1.2080 -1.1619
 2714TIP3    H229558   0.249   6.154   3.947  3.0030  0.1089 -0.5050
 2715TIP3   OH229559   6.781   4.423  12.237 -0.0322 -0.0943 -0.1059
 2715TIP3    H129560   6.699   4.383  12.209 -0.0707 -1.0405  1.3401
 2715TIP3    H229561   6.783   4.507  12.191 -1.2643 -0.5441 -1.0194
 2716TIP3   OH229562   3.752   0.343   5.547 -0.6845 -0.5921 -0.4477
 2716TIP3    H129563   3.740   0.260   5.502  0.1997 -0.4015 -1.0350
 2716TIP3    H229564   3.670   0.357   5.594 -0.6027 -2.1103  0.1700
 2717TIP3   OH229565   0.199   2.064  15.562 -0.1986 -0.2855  0.1933
 2717TIP3    H129566   0.287   2.092  15.541  0.3073 -0.5156  1.9697
 2717TIP3    H229567   0.149   2.145  15.573 -0.1532 -0.1545 -0.5588
 2718TIP3   OH229568   5.962   4.253  15.030 -0.3117 -0.2770  0.0609
 2718TIP3    H129569   5.977   4.332  14.977  0.8609  0.0319  0.8313
 2718TIP3    H229570   5.912   4.284  15.105  0.0552 -0.2850  0.3083
 2719TIP3   OH229571   2.160   6.780  11.559  0.2898 -0.5727  0.1143
 2719TIP3    H129572   2.091   6.733  11.513 -0.1142 -1.2447  1.3920
 2719TIP3    H229573   2.114   6.837  11.620  0.8628 -1.3740  1.3184
 2720TIP3   OH229574   5.158   6.618  15.436  0.1321 -0.1868 -0.2754
 2720TIP3    H129575   5.170   6.713  15.439  2.5895 -0.4244 -0.9611
 2720TIP3    H229576   5.117   6.596  15.519 -2.6681  1.7262 -1.0843
 2721TIP3   OH229577   0.950   4.895  17.046 -0.5588  0.0261  0.6149
 2721TIP3    H129578   1.035   4.854  17.056 -0.9175 -1.3024 -1.4734
 2721TIP3    H229579   0.940   4.949  17.124  2.1160  0.0994  0.9488
 2722TIP3   OH229580   1.803   1.752  15.199  0.5996 -0.6235 -0.1225
 2722TIP3    H129581   1.744   1.719  15.266 -0.9384  0.0581 -1.1096
 2722TIP3    H229582   1.790   1.847  15.201 -0.0537 -0.6584 -1.9013
 2723TIP3   OH229583   1.860   3.321  13.571 -0.2530 -0.4335 -0.9900
 2723TIP3    H129584   1.889   3.411  13.579 -1.7771 -0.0597  0.5807
 2723TIP3    H229585   1.873   3.300  13.478  1.9127  0.7364 -0.9729
 2724TIP3   OH229586   1.509   2.304  16.680  0.1773 -0.0749  0.1138
 2724TIP3    H129587   1.478   2.296  16.590  2.2017  1.7553 -0.8181
 2724TIP3    H229588   1.447   2.254  16.732 -0.7722 -1.5607 -2.3614
 2725TIP3   OH229589   0.978   2.723  12.900  0.4513  0.0702  0.2422
 2725TIP3    H129590   1.064   2.749  12.865 -0.2230  0.9969 -0.7447
 2725TIP3    H229591   0.952   2.649  12.845  0.1412  0.4595 -0.1319
 2726TIP3   OH229592   0.042   0.938  12.846 -0.0528  0.3375  0.3312
 2726TIP3    H129593   0.075   0.925  12.756 -1.7097 -1.6226 -0.0135
 2726TIP3    H229594  -0.052   0.927  12.839 -0.1376 -0.4731  2.4396
 2727TIP3   OH229595   2.980   3.848  11.675 -0.3101 -0.4411 -0.3984
 2727TIP3    H129596   2.944   3.823  11.590  0.2873 -3.6648  0.2394
 2727TIP3    H229597   2.941   3.786  11.737 -0.1157  1.3536  1.5854
 2728TIP3   OH229598   5.667   3.499  13.801 -0.2861 -0.6890  0.4670
 2728TIP3    H129599   5.667   3.416  13.754 -1.0694  0.8099 -2.3203
 2728TIP3    H229600   5.648   3.475  13.892 -0.6113 -3.5345 -0.2958
 2729TIP3   OH229601   6.343   4.949   3.191  0.2629  0.2694  0.2129
 2729TIP3    H129602   6.309   4.895   3.261  0.9843 -0.7271 -0.2027
 2729TIP3    H229603   6.283   4.934   3.118 -1.0736  2.0696  0.8911
 2730TIP3   OH229604   5.278   4.277  16.842  0.5334 -0.3465  0.0754
 2730TIP3    H129605   5.296   4.361  16.885 -2.3934 -0.1382  1.0101
 2730TIP3    H229606   5.257   4.301  16.751  0.2713 -0.1107  0.1964
 2731TIP3   OH229607   1.617   0.322  14.981  0.0216 -0.0716  0.3228
 2731TIP3    H129608   1.569   0.242  15.002 -0.8927  0.4479  0.2249
 2731TIP3    H229609   1.679   0.296  14.912 -0.0776 -0.7503  0.4893
 2732TIP3   OH229610   3.972   3.068  14.049  0.7791 -0.2434 -0.6067
 2732TIP3    H129611   4.005   3.156  14.071  0.9855 -0.1710 -1.2069
 2732TIP3    H229612   4.038   3.009  14.085  1.4414 -0.1050 -1.5664
 2733TIP3   OH229613   1.298   0.316  16.122  0.1295 -0.3125 -0.0141
 2733TIP3    H129614   1.276   0.288  16.033  1.0504 -1.3002  0.0605
 2733TIP3    H229615   1.385   0.280  16.138 -0.7535 -1.6693  1.9277
 2734TIP3   OH229616   4.407   2.261  11.135  0.5840  0.1061  0.0873
 2734TIP3    H129617   4.433   2.184  11.085  2.3846  0.1022  0.9844
 2734TIP3    H229618   4.446   2.334  11.089  1.7399  0.1567  1.1345
 2735TIP3   OH229619   3.420   0.691  15.340  0.0050 -0.6903 -0.5585
 2735TIP3    H129620   3.449   0.656  15.256  0.3629 -0.1758 -0.6510
 2735TIP3    H229621   3.485   0.659  15.403  0.4291 -0.0447 -0.6700
 2736TIP3   OH229622   2.299   6.774  12.069  0.4851  0.1613 -0.1512
 2736TIP3    H129623   2.283   6.681  12.052 -1.2022  0.2496  0.8786
 2736TIP3    H229624   2.281   6.785  12.162 -0.8735  1.8243 -0.5985
 2737TIP3   OH229625   0.429   4.713  16.435  0.4617 -0.4957  0.0342
 2737TIP3    H129626   0.364   4.691  16.369 -0.7330  2.0954  0.2620
 2737TIP3    H229627   0.513   4.704  16.390 -0.2975  0.6333 -1.6775
 2738TIP3   OH229628   1.371   5.248  14.766 -0.0138  0.1418 -0.1672
 2738TIP3    H129629   1.306   5.318  14.756 -2.6991 -2.1952  0.4906
 2738TIP3    H229630   1.373   5.205  14.681  0.4713  0.0206 -0.0950
 2739TIP3   OH229631   1.266   3.639   4.878 -0.3368  0.1564 -0.4016
 2739TIP3    H129632   1.307   3.719   4.909 -2.3065  0.7936  0.6637
 2739TIP3    H229633   1.308   3.621   4.794  2.2696  0.6150  0.7319
 2740TIP3   OH229634   1.897   5.577  13.636  0.1700 -0.8925 -0.2954
 2740TIP3    H129635   1.850   5.586  13.720  0.5775  0.5406 -0.2030
 2740TIP3    H229636   1.901   5.483  13.621 -2.9526 -1.0652 -0.4262
 2741TIP3   OH229637   6.566   0.612   2.047 -0.5227  0.5170  0.4277
 2741TIP3    H129638   6.603   0.534   2.006  1.2947  0.9843  1.1224
 2741TIP3    H229639   6.530   0.663   1.974  0.7347  0.3136 -0.3412
 2742TIP3   OH229640   1.613   3.092   4.522 -0.0739 -0.4123 -0.3011
 2742TIP3    H129641   1.684   3.102   4.586  1.2437  0.6240 -1.8817
 2742TIP3    H229642   1.632   3.157   4.455 -1.3925 -1.5179 -1.7859
 2743TIP3   OH229643   0.253   4.821   2.928  0.1879 -0.0334  0.7165
 2743TIP3    H129644   0.170   4.774   2.923  0.6280 -0.6179 -1.5285
 2743TIP3    H229645   0.317   4.760   2.891  1.2051  1.3673  0.1391
 2744TIP3   OH229646   4.985   2.083  17.175  0.3318  0.2041  0.2757
 2744TIP3    H129647   4.946   2.035  17.102  1.4885 -0.3746  0.0230
 2744TIP3    H229648   4.914   2.091  17.239 -0.7190  0.8256 -0.9484
 2745TIP3   OH229649   0.783   0.280  13.599  0.2448  0.3134  0.2172
 2745TIP3    H129650   0.771   0.350  13.534 -1.9900 -0.3557 -0.1456
 2745TIP3    H229651   0.748   0.318  13.680  0.1744  0.0695  0.3009
 2746TIP3   OH229652   1.753   4.510   3.297  0.6575 -0.4831 -0.1974
 2746TIP3    H129653   1.690   4.496   3.368  0.6696  1.3697  0.2033
 2746TIP3    H229654   1.728   4.446   3.230  1.2346 -2.9108  1.8278
 2747TIP3   OH229655   4.064   6.146  11.399 -0.5387 -0.5783  0.3125
 2747TIP3    H129656   4.143   6.109  11.437 -1.3477 -0.8245  1.8161
 2747TIP3    H229657   4.090   6.174  11.311  0.7408 -2.3287  0.0951
 2748TIP3   OH229658   0.988   4.839  15.715  0.6242  0.7536 -0.4227
 2748TIP3    H129659   0.983   4.899  15.640 -0.1122  1.2241  0.0015
 2748TIP3    H229660   0.948   4.757  15.683 -2.8254  1.9940  0.4633
 2749TIP3   OH229661   1.457   2.553  10.938 -0.1337 -0.3249  0.2768
 2749TIP3    H129662   1.419   2.467  10.923  1.6902 -0.9468 -1.0597
 2749TIP3    H229663   1.416   2.610  10.873 -0.8413 -0.3317  0.7131
 2750TIP3   OH229664   1.912   2.040   3.339 -0.2893  0.1761 -0.4058
 2750TIP3    H129665   1.948   2.034   3.428 -1.8679  3.8526  0.5969
 2750TIP3    H229666   1.986   2.062   3.284  0.2584  0.5219  0.4612
 2751TIP3   OH229667   2.219   0.829  16.891  0.0817 -0.2817  0.0593
 2751TIP3    H129668   2.214   0.887  16.967 -0.9739 -0.2044 -0.0636
 2751TIP3    H229669   2.300   0.855  16.847 -0.3372  1.0320  0.0488
 2752TIP3   OH229670   2.090   1.758   2.134 -0.1654 -0.3282  0.4426
 2752TIP3    H129671   1.995   1.746   2.128 -0.1744  0.3018 -0.7669
 2752TIP3    H229672   2.116   1.707   2.211 -1.3287 -1.4345  0.1231
 2753TIP3   OH229673   1.816   5.109   0.837 -0.0480 -0.7008 -0.1533
 2753TIP3    H129674   1.771   5.035   0.796 -0.2718  0.3680 -1.9142
 2753TIP3    H229675   1.909   5.089   0.827 -0.0846 -0.1678 -1.8134
 2754TIP3   OH229676   4.472   5.264  14.041 -0.0140  0.2729  0.3455
 2754TIP3    H129677   4.554   5.255  13.993 -0.7462  2.0159 -1.2864
 2754TIP3    H229678   4.473   5.355  14.073 -1.7103  0.5862 -0.4561
 2755TIP3   OH229679   2.503   3.752   5.828 -0.0909  0.1724 -0.0514
 2755TIP3    H129680   2.500   3.721   5.919 -0.1856 -1.2616 -0.5403
 2755TIP3    H229681   2.434   3.702   5.784 -0.3616  1.2123 -0.8127
 2756TIP3   OH229682   6.192   2.484  11.623 -0.3200  0.5994  0.0987
 2756TIP3    H129683   6.258   2.535  11.577  0.8061  0.4146  1.4839
 2756TIP3    H229684   6.151   2.547  11.683 -0.5016  0.4058  0.1794
 2757TIP3   OH229685   1.631   0.537   5.703  0.0658 -0.8271 -0.0626
 2757TIP3    H129686   1.648   0.472   5.771 -1.0978  0.5068  1.5619
 2757TIP3    H229687   1.644   0.621   5.747 -0.8923  0.0688 -1.4561
 2758TIP3   OH229688   0.794   4.219  11.114 -0.3561  0.2229  0.3999
 2758TIP3    H129689   0.814   4.249  11.202  2.2305  2.7710 -0.9763
 2758TIP3    H229690   0.852   4.143  11.101  1.9806  2.0771 -0.3506
 2759TIP3   OH229691   5.066   0.064  15.121  0.3175  0.2162 -0.5157
 2759TIP3    H129692   5.105  -0.021  15.100 -0.8906 -0.5522  0.3085
 2759TIP3    H229693   4.979   0.062  15.080  0.7789  1.5936 -1.6347
 2760TIP3   OH229694   1.996   5.445   6.181  0.5732  0.1360  0.1190
 2760TIP3    H129695   2.074   5.438   6.237 -0.8164 -1.4812  1.9334
 2760TIP3    H229696   1.926   5.473   6.240 -0.9569 -1.7143 -0.7585
 2761TIP3   OH229697   5.965   1.915   5.268  0.1662 -1.0842 -0.1364
 2761TIP3    H129698   5.900   1.976   5.303  0.1655 -0.6634 -0.8406
 2761TIP3    H229699   5.913   1.850   5.221  0.3129  0.1457 -2.0615
 2762TIP3   OH229700   3.280   4.918   4.818  0.2121 -0.4341 -0.3985
 2762TIP3    H129701   3.274   4.921   4.723 -1.4666 -1.4804 -0.3458
 2762TIP3    H229702   3.273   4.825   4.840 -0.6395 -0.1018  0.8040
 2763TIP3   OH229703   1.778   4.376   0.084  0.0446  0.1507  0.0872
 2763TIP3    H129704   1.873   4.366   0.072  0.0235  1.4591 -1.2457
 2763TIP3    H229705   1.769   4.415   0.171  0.7362  0.0192  0.2208
 2764TIP3   OH229706   1.858   2.658  14.952  0.2094 -0.1363  0.7301
 2764TIP3    H129707   1.922   2.647  14.881 -0.6770 -1.5219  0.1120
 2764TIP3    H229708   1.908   2.642  15.031  1.1760  1.2585  0.4192
 2765TIP3   OH229709   1.657   3.812   6.399 -0.0541  0.5896  0.2557
 2765TIP3    H129710   1.651   3.766   6.483  1.8053  0.3084  0.2490
 2765TIP3    H229711   1.671   3.742   6.335 -0.7925  0.8681 -0.2138
 2766TIP3   OH229712   5.633   0.018  13.335  0.5144  0.3062  0.3447
 2766TIP3    H129713   5.617   0.111  13.351  1.4822  0.3013  1.3898
 2766TIP3    H229714   5.729   0.010  13.333  0.5007 -1.0449  2.6502
 2767TIP3   OH229715   2.413   1.173   2.558  0.0413  0.2480  0.0207
 2767TIP3    H129716   2.348   1.107   2.534 -0.6186  1.2308 -0.9461
 2767TIP3    H229717   2.483   1.163   2.494 -1.0828  1.9501 -1.5063
 2768TIP3   OH229718   4.639   6.561   0.897 -0.0918 -0.1856  0.1887
 2768TIP3    H129719   4.722   6.594   0.933  0.7916 -3.1024  0.9080
 2768TIP3    H229720   4.637   6.596   0.808  2.8709 -1.6419 -0.5113
 2769TIP3   OH229721   3.056   4.002  12.149  0.0184 -0.2022 -0.1196
 2769TIP3    H129722   2.998   4.064  12.104  0.1353 -0.0698 -0.0896
 2769TIP3    H229723   3.007   3.975  12.226  0.5953  1.0676  0.7181
 2770TIP3   OH229724   6.391   1.109   2.163 -0.1614 -0.3976  0.5411
 2770TIP3    H129725   6.351   1.025   2.143 -2.7290  0.6386  1.0681
 2770TIP3    H229726   6.439   1.095   2.244 -0.2302 -1.4564  0.3975
 2771TIP3   OH229727   5.050   2.224   4.830 -0.8238  0.8171 -0.1626
 2771TIP3    H129728   5.035   2.304   4.879 -2.4534 -0.0700  0.8271
 2771TIP3    H229729   5.093   2.165   4.893  1.1269  1.1619 -1.1195
 2772TIP3   OH229730   4.345   2.948   2.677  0.2454 -0.4948 -0.2446
 2772TIP3    H129731   4.325   3.001   2.600 -1.2922  0.4543  0.7775
 2772TIP3    H229732   4.267   2.955   2.732  0.6830 -2.4498  0.6887
 2773TIP3   OH229733   3.954   6.095   5.369 -0.4397  0.1297  0.4350
 2773TIP3    H129734   3.872   6.047   5.356 -0.9281  1.0366  0.1922
 2773TIP3    H229735   4.022   6.027   5.366 -1.0986 -0.5037 -0.2651
 2774TIP3   OH229736   2.551   0.492  14.079  0.1067  0.1003  0.3571
 2774TIP3    H129737   2.615   0.476  14.148  1.6333  4.2643  0.0866
 2774TIP3    H229738   2.481   0.540  14.122 -0.6674 -0.4818 -0.2505
 2775TIP3   OH229739   4.438   4.939   3.395  0.3504 -0.1373  0.6985
 2775TIP3    H129740   4.494   4.977   3.463  1.3063 -1.6734  0.7814
 2775TIP3    H229741   4.443   4.844   3.409 -0.1877 -0.4280 -0.9400
 2776TIP3   OH229742   2.237   4.136   2.481 -0.0655 -0.3710  0.2224
 2776TIP3    H129743   2.272   4.198   2.544  0.5334  0.1486 -0.6112
 2776TIP3    H229744   2.164   4.094   2.526 -1.2576  1.7933  0.3847
 2777TIP3   OH229745   4.568   2.700  15.835 -0.3826 -0.6355  0.3720
 2777TIP3    H129746   4.549   2.775  15.891 -4.2448 -1.6015  0.4612
 2777TIP3    H229747   4.538   2.726  15.748 -0.0168 -1.3785  0.0205
 2778TIP3   OH229748   4.125   5.505   0.822 -0.1171 -0.0631 -0.0278
 2778TIP3    H129749   4.200   5.447   0.833 -1.0764 -1.1036  1.2400
 2778TIP3    H229750   4.130   5.565   0.896  0.5322  1.1180 -1.0064
 2779TIP3   OH229751   1.972   4.484   3.543  0.1925  0.0851 -0.3604
 2779TIP3    H129752   1.911   4.414   3.519 -1.4678  0.7849  1.5988
 2779TIP3    H229753   2.030   4.494   3.468 -1.5186 -1.2888 -1.8833
 2780TIP3   OH229754   4.503   5.319  15.555  0.3539 -0.2344  0.3320
 2780TIP3    H129755   4.565   5.305  15.483 -0.9803 -0.8126 -0.7207
 2780TIP3    H229756   4.489   5.231  15.591  2.6134  0.3161  2.6727
 2781TIP3   OH229757   0.861   5.067   5.991  0.7402  0.6545  0.3363
 2781TIP3    H129758   0.891   5.056   6.081 -0.2592  1.5235  0.7818
 2781TIP3    H229759   0.795   5.136   5.996 -0.9344 -0.8205 -0.7036
 2782TIP3   OH229760   5.235   5.868   3.906  0.7779 -0.5905 -0.0775
 2782TIP3    H129761   5.314   5.834   3.947  1.1153 -1.0332 -1.0850
 2782TIP3    H229762   5.251   5.860   3.812  0.3716  1.2154 -0.3273
 2783TIP3   OH229763   6.511   0.638   3.204 -0.2497  0.4517 -0.8978
 2783TIP3    H129764   6.600   0.651   3.172 -0.5520  0.9043 -1.5816
 2783TIP3    H229765   6.485   0.723   3.240 -0.1304  0.1089 -0.0157
 2784TIP3   OH229766   6.400   3.025  15.328 -0.1430 -0.0443  0.2708
 2784TIP3    H129767   6.396   3.106  15.379  0.0603 -0.1877  0.5125
 2784TIP3    H229768   6.399   3.055  15.237 -2.4961  0.1284  0.3236
 2785TIP3   OH229769   4.278   2.476  12.433 -0.9582  0.2293 -0.1810
 2785TIP3    H129770   4.266   2.402  12.375 -1.0854  0.1010  0.0100
 2785TIP3    H229771   4.241   2.448  12.517 -0.2387  0.1963  0.1274
 2786TIP3   OH229772   1.184   4.972   5.108 -0.3907 -0.2623  0.2011
 2786TIP3    H129773   1.211   4.898   5.163  1.4423 -0.1163 -0.4853
 2786TIP3    H229774   1.242   5.044   5.133 -1.9041  0.8662  0.5893
 2787TIP3   OH229775   1.633   2.327   6.113  0.4809  0.0939 -0.1404
 2787TIP3    H129776   1.629   2.348   6.019 -2.3314 -0.1026 -0.1177
 2787TIP3    H229777   1.541   2.318   6.139  1.2874 -1.7324  2.2229
 2788TIP3   OH229778   2.979   5.538   0.869  0.5365 -0.0315  0.0961
 2788TIP3    H129779   2.969   5.565   0.960  3.3914  1.7075 -0.0437
 2788TIP3    H229780   3.014   5.449   0.873  1.6656  0.4382  0.7147
 2789TIP3   OH229781   0.838   5.832  14.480  0.0117  0.1268 -0.8161
 2789TIP3    H129782   0.799   5.916  14.503 -1.5086  0.0542 -3.0164
 2789TIP3    H229783   0.853   5.789  14.564 -0.9286  1.8083  0.2456
 2790TIP3   OH229784   1.100   3.133   5.168  0.0953  0.4898  0.1269
 2790TIP3    H129785   1.114   3.155   5.260 -0.6131 -0.3199  0.4333
 2790TIP3    H229786   1.022   3.182   5.143 -0.2001  0.0579  0.1955
 2791TIP3   OH229787   1.549   1.524  12.389 -0.5992 -0.4556 -0.2282
 2791TIP3    H129788   1.574   1.496  12.477  1.4715  0.8076 -0.3789
 2791TIP3    H229789   1.574   1.616  12.385 -2.9141  0.1758 -1.3424
 2792TIP3   OH229790   0.962   6.232   5.187  0.0027 -0.4034 -0.1279
 2792TIP3    H129791   0.954   6.220   5.282 -0.2699 -2.3319 -0.3781
 2792TIP3    H229792   0.878   6.271   5.161 -0.4993 -1.2249  0.2245
 2793TIP3   OH229793   2.471   4.379   0.036 -0.3787  0.4355  0.5742
 2793TIP3    H129794   2.439   4.353  -0.051  2.5039 -0.4644 -0.2921
 2793TIP3    H229795   2.504   4.468   0.023  1.3987 -0.2413  0.3596
 2794TIP3   OH229796   1.330   4.543   3.380  0.1764 -0.3450 -0.2431
 2794TIP3    H129797   1.281   4.479   3.329  0.2381 -0.6205  0.0435
 2794TIP3    H229798   1.415   4.502   3.395  1.4786  1.1956 -2.9977
 2795TIP3   OH229799   2.822   3.980  14.858 -0.3647 -0.4693  0.2058
 2795TIP3    H129800   2.830   3.909  14.921  2.3134 -0.8643 -0.5187
 2795TIP3    H229801   2.815   3.936  14.773 -0.6971  0.1008 -0.0631
 2796TIP3   OH229802   6.265   5.956   5.644  0.2767 -0.0669 -0.0197
 2796TIP3    H129803   6.178   5.933   5.675  0.1168  1.5942  0.8344
 2796TIP3    H229804   6.325   5.911   5.704 -0.0223  0.6890  0.8641
 2797TIP3   OH229805   4.921   6.168   3.164 -0.2837 -0.1803 -0.6951
 2797TIP3    H129806   4.997   6.162   3.106 -0.7070 -0.0731 -1.2644
 2797TIP3    H229807   4.884   6.254   3.148 -0.6611 -0.3194 -0.5855
 2798TIP3   OH229808   4.043   3.100  14.393 -0.3920  0.4862 -0.2298
 2798TIP3    H129809   4.094   3.091  14.312 -1.5290  0.1614 -0.9125
 2798TIP3    H229810   3.999   3.016  14.403  0.2452  0.2935  1.0872
 2799TIP3   OH229811   5.193   6.568  12.616 -0.2436 -0.3853  0.1016
 2799TIP3    H129812   5.106   6.605  12.601  0.9974  2.4831 -0.1614
 2799TIP3    H229813   5.216   6.528  12.532 -0.5556  0.4324 -0.3789
 2800TIP3   OH229814   5.017   2.232   5.762 -0.1113 -0.8248 -0.0860
 2800TIP3    H129815   5.018   2.137   5.751  0.1936 -0.9699  1.0609
 2800TIP3    H229816   5.079   2.248   5.834  1.0264  0.3912 -1.3284
 2801TIP3   OH229817   6.363   6.409   3.664 -0.0010 -0.7176  0.3845
 2801TIP3    H129818   6.406   6.383   3.746 -1.7814 -0.9705  1.2730
 2801TIP3    H229819   6.327   6.328   3.628 -0.8872 -0.3242  0.3642
 2802TIP3   OH229820   0.907   5.923   4.533  0.4189 -0.0123  0.5700
 2802TIP3    H129821   0.928   5.862   4.462 -0.6638 -1.3005  1.3447
 2802TIP3    H229822   0.814   5.943   4.521  0.8831  1.9589 -0.0179
 2803TIP3   OH229823   4.017   0.504  14.894  0.3092 -0.0556 -0.0368
 2803TIP3    H129824   3.953   0.576  14.895  0.5841  0.1905  1.3515
 2803TIP3    H229825   4.020   0.476  14.803 -0.9349  0.6915 -0.3283
 2804TIP3   OH229826   5.462   3.463  15.198  0.0588  0.3213  0.0530
 2804TIP3    H129827   5.547   3.421  15.213 -1.2417 -3.2584 -1.8236
 2804TIP3    H229828   5.408   3.434  15.271 -0.8891 -1.4584 -1.3230
 2805TIP3   OH229829   0.132   3.426   2.018 -0.1037  0.3132  0.2675
 2805TIP3    H129830   0.076   3.450   1.944  1.0343 -1.0778 -1.0923
 2805TIP3    H229831   0.141   3.331   2.011  1.6297  0.4005  1.0270
 2806TIP3   OH229832   6.703   5.018  15.522 -0.3892  0.7803  0.2435
 2806TIP3    H129833   6.758   4.954  15.566 -1.0835  1.2063  1.7697
 2806TIP3    H229834   6.738   5.023  15.433 -0.5993 -2.0230 -0.0350
 2807TIP3   OH229835   1.711   1.417   2.900 -0.1838 -0.0190  0.4917
 2807TIP3    H129836   1.799   1.437   2.867 -0.6364 -0.1627 -0.8566
 2807TIP3    H229837   1.691   1.490   2.959  1.8680 -1.3209  2.8876
 2808TIP3   OH229838   4.825   2.143   0.163 -0.3732  0.0086  0.7443
 2808TIP3    H129839   4.799   2.220   0.113 -0.9474 -0.2862  0.5816
 2808TIP3    H229840   4.816   2.168   0.254 -0.1426  0.2757  0.6927
 2809TIP3   OH229841   1.852   6.014  12.632  0.0149 -0.1945 -0.6694
 2809TIP3    H129842   1.945   6.037  12.638 -0.2331  0.7813 -0.4751
 2809TIP3    H229843   1.834   6.011  12.538  0.0846  0.2777 -0.6985
 2810TIP3   OH229844   1.138   6.457  11.938  0.2841  0.1856  0.4568
 2810TIP3    H129845   1.146   6.515  12.014  1.8679 -0.0707  0.5039
 2810TIP3    H229846   1.171   6.373  11.968 -4.4622 -1.5561  1.1956
 2811TIP3   OH229847   5.839   4.928   0.074  0.7303 -0.2193  0.2447
 2811TIP3    H129848   5.783   5.006   0.075  1.0473  0.0349 -1.0204
 2811TIP3    H229849   5.891   4.935   0.154  0.2971  0.5315  0.4714
 2812TIP3   OH229850   6.134   5.493  15.250  0.4215  0.3667 -0.0178
 2812TIP3    H129851   6.206   5.433  15.233 -0.5782 -0.2136 -2.3748
 2812TIP3    H229852   6.176   5.573  15.281  1.8099 -1.2610  2.4432
 2813TIP3   OH229853   6.317   4.254  15.169 -0.1606  0.2404 -0.0320
 2813TIP3    H129854   6.387   4.319  15.174  0.1507 -0.1452  0.8024
 2813TIP3    H229855   6.293   4.251  15.076  0.5738  0.7522 -0.2413
 2814TIP3   OH229856   3.554   3.796   3.122 -0.5920 -0.0031  0.0071
 2814TIP3    H129857   3.560   3.732   3.051 -1.9501 -0.3008  0.1407
 2814TIP3    H229858   3.580   3.748   3.201 -1.7485 -0.4393  0.1289
 2815TIP3   OH229859   2.889   0.011  11.572  0.4529 -0.5769 -0.0598
 2815TIP3    H129860   2.906  -0.011  11.663  0.8145  0.4103  0.1267
 2815TIP3    H229861   2.794   0.011  11.564  0.4114 -0.3750  0.4013
 2816TIP3   OH229862   1.106   0.996  16.946  0.4719 -0.3395 -0.3220
 2816TIP3    H129863   1.022   0.991  16.992  0.1206  0.4379 -0.8556
 2816TIP3    H229864   1.088   0.960  16.859  0.9729 -1.2132 -0.0650
 2817TIP3   OH229865   6.412   4.436  15.803  0.0099 -0.2466  0.1659
 2817TIP3    H129866   6.316   4.430  15.809  0.0498 -0.5596  0.5442
 2817TIP3    H229867   6.441   4.345  15.794  0.2329 -0.1025 -0.6371
 2818TIP3   OH229868   5.412   4.378  15.733  0.1865  0.1568  0.3798
 2818TIP3    H129869   5.483   4.320  15.704 -0.1810  0.2765 -0.7537
 2818TIP3    H229870   5.402   4.358  15.826  0.3911 -1.2690  0.1071
 2819TIP3   OH229871   5.724   3.655  13.556  0.2767  0.1436 -0.3550
 2819TIP3    H129872   5.813   3.676  13.585 -0.3434  1.5891  0.5132
 2819TIP3    H229873   5.689   3.599  13.625  0.1255  0.4848 -0.1542
 2820TIP3   OH229874   2.086   5.341   4.455 -0.3554 -0.6588 -0.0357
 2820TIP3    H129875   1.995   5.336   4.485 -0.1100 -0.6199  0.7479
 2820TIP3    H229876   2.132   5.385   4.526  0.0347  0.5273 -1.0145
 2821TIP3   OH229877   2.297   0.157  16.892  0.1659 -0.4532  0.3639
 2821TIP3    H129878   2.239   0.197  16.827  1.6746  2.3075  0.6443
 2821TIP3    H229879   2.365   0.222  16.906 -0.2995 -0.8202  5.0090
 2822TIP3   OH229880   1.411   4.600   1.252  0.1090 -0.3030 -0.0229
 2822TIP3    H129881   1.468   4.675   1.269  0.0135 -0.1843 -0.2164
 2822TIP3    H229882   1.466   4.523   1.269  0.1923 -0.1884  0.2217
 2823TIP3   OH229883   0.470   0.537   2.400 -0.4720 -0.5899 -0.0343
 2823TIP3    H129884   0.480   0.466   2.463 -0.3857  1.2557  2.0820
 2823TIP3    H229885   0.475   0.617   2.452 -2.0083  0.9584 -2.1676
 2824TIP3   OH229886   1.664   1.303  12.946 -0.3304 -0.0501  0.0428
 2824TIP3    H129887   1.606   1.348  13.007  0.4647  0.5239  0.3842
 2824TIP3    H229888   1.616   1.223  12.921 -0.1772 -0.8949  2.3186
 2825TIP3   OH229889   6.704   0.637  13.836 -0.9462  0.3086 -0.1294
 2825TIP3    H129890   6.787   0.593  13.855 -0.3890  1.2997 -0.2250
 2825TIP3    H229891   6.651   0.571  13.791 -0.3061 -0.4067  0.1583
 2826TIP3   OH229892   0.953   6.637  15.388  0.0949  0.5515 -0.1649
 2826TIP3    H129893   0.884   6.572  15.396 -1.6975  2.0996 -2.2964
 2826TIP3    H229894   0.931   6.703  15.453  0.9009 -0.0817  0.7592
 2827TIP3   OH229895   4.085   6.286  11.658 -1.0119  0.5418  0.1997
 2827TIP3    H129896   4.000   6.242  11.668 -0.3814 -0.7106  0.2222
 2827TIP3    H229897   4.098   6.293  11.564 -1.7490  1.9656  0.1948
 2828TIP3   OH229898   6.094   2.364  11.259 -0.1712  0.0322 -0.0805
 2828TIP3    H129899   6.141   2.433  11.213 -0.2156  0.1731  0.0852
 2828TIP3    H229900   6.078   2.297  11.192  0.6464 -0.2144 -0.0298
 2829TIP3   OH229901   3.505   0.198   5.608  0.8365 -0.3108  0.0623
 2829TIP3    H129902   3.517   0.194   5.513  1.5152 -1.9645  0.1994
 2829TIP3    H229903   3.420   0.155   5.623  0.3967  0.5819  0.1466
 2830TIP3   OH229904   2.690   4.134  16.327  0.3324 -0.2141  0.4250
 2830TIP3    H129905   2.694   4.208  16.387  1.1734  0.3896 -0.3599
 2830TIP3    H229906   2.683   4.174  16.240  1.4916 -1.0358 -0.0523
 2831TIP3   OH229907   2.343   6.423  11.211 -0.0222 -0.3962 -0.2568
 2831TIP3    H129908   2.428   6.377  11.207  0.0263 -0.3070 -0.2492
 2831TIP3    H229909   2.366   6.515  11.205 -0.1718 -0.4062 -1.0321
 2832TIP3   OH229910   2.853   3.945   0.890  0.1232 -0.4676  0.1823
 2832TIP3    H129911   2.838   4.014   0.956  0.2634  0.4702 -0.7516
 2832TIP3    H229912   2.813   3.980   0.810 -0.2760 -1.7193 -0.1618
 2833TIP3   OH229913   5.816   5.818  12.598  0.1190  0.5973 -0.1397
 2833TIP3    H129914   5.802   5.731  12.558 -1.8052  0.4883  0.6969
 2833TIP3    H229915   5.909   5.835  12.586 -0.1550  0.0454 -3.6501
 2834TIP3   OH229916   0.701   3.646  16.066 -0.2224  0.2364  0.6618
 2834TIP3    H129917   0.627   3.588  16.049  0.3140 -0.2103 -0.1748
 2834TIP3    H229918   0.715   3.639  16.160  0.2509 -1.5134  0.4843
 2835TIP3   OH229919   0.733   5.844   5.085 -0.0988 -0.3073  0.4631
 2835TIP3    H129920   0.790   5.859   5.160 -1.1958 -2.5225  1.7999
 2835TIP3    H229921   0.758   5.758   5.052 -1.9037 -0.8307  0.3971
 2836TIP3   OH229922   2.129   1.403   5.940  0.5571 -0.2405 -0.1971
 2836TIP3    H129923   2.179   1.456   6.002 -0.1642  0.1671  0.0425
 2836TIP3    H229924   2.116   1.460   5.864  0.5912 -0.3995 -0.3242
 2837TIP3   OH229925   4.910   4.543   4.297 -0.8014 -0.3168  0.1102
 2837TIP3    H129926   5.003   4.551   4.277 -0.7037  0.2518  0.7646
 2837TIP3    H229927   4.866   4.580   4.220 -0.5032 -1.2302 -0.5020
 2838TIP3   OH229928   4.891   6.761  15.808  0.0079  0.9437 -0.0511
 2838TIP3    H129929   4.964   6.816  15.837 -0.7655  2.2738 -0.5405
 2838TIP3    H229930   4.900   6.759  15.713  1.2476 -1.5557  0.0797
 2839TIP3   OH229931   6.679   0.142   1.661  0.1367 -0.6372  0.1851
 2839TIP3    H129932   6.635   0.114   1.581 -0.3283 -0.9007  0.5312
 2839TIP3    H229933   6.639   0.227   1.681 -0.3050 -0.9291  0.5621
 2840TIP3   OH229934   5.936   6.312   5.442  0.2272 -0.4642  0.6147
 2840TIP3    H129935   5.980   6.275   5.518 -0.8509 -2.2374  0.3838
 2840TIP3    H229936   5.844   6.289   5.452 -0.2490  0.9420 -0.2583
 2841TIP3   OH229937   2.558   6.684   0.736 -0.7432 -0.3045 -0.2511
 2841TIP3    H129938   2.555   6.650   0.646 -1.3901  0.4281 -0.5077
 2841TIP3    H229939   2.483   6.744   0.742 -0.8823 -0.5802  0.8714
 2842TIP3   OH229940   4.551   4.359   1.970 -0.3213 -0.0731  0.5056
 2842TIP3    H129941   4.604   4.360   1.890  0.6177 -0.1967  1.1229
 2842TIP3    H229942   4.569   4.443   2.012 -2.6079  1.0085 -0.5492
 2843TIP3   OH229943   0.650   4.143   3.353 -0.4179 -0.5284  0.1861
 2843TIP3    H129944   0.669   4.227   3.312 -0.0884 -0.1259  1.1659
 2843TIP3    H229945   0.647   4.081   3.280  1.1727  0.0063 -0.3499
 2844TIP3   OH229946   1.170   0.648  15.463 -0.4243  0.8177 -0.7234
 2844TIP3    H129947   1.181   0.649  15.368  0.2436 -0.0237 -0.6615
 2844TIP3    H229948   1.097   0.589  15.478  1.5981 -1.7250 -0.5355
 2845TIP3   OH229949   3.803   0.797   1.062 -0.7737  1.1013  0.1259
 2845TIP3    H129950   3.822   0.703   1.061 -0.3650  1.1822  0.1774
 2845TIP3    H229951   3.755   0.810   1.144  1.1153  1.3027  1.2471
 2846TIP3   OH229952   0.690   3.723  14.854  0.3110 -0.3058  0.1751
 2846TIP3    H129953   0.716   3.632  14.840 -0.1773 -0.6140  1.2422
 2846TIP3    H229954   0.681   3.760  14.766  2.5813 -0.7003 -0.2535
 2847TIP3   OH229955   4.597   1.039   0.472  0.0238  0.4203  0.5208
 2847TIP3    H129956   4.686   1.043   0.437 -0.1954  0.1250 -0.0852
 2847TIP3    H229957   4.579   1.128   0.502  0.5350  0.4718  0.6813
 2848TIP3   OH229958   5.234   5.585   4.941  0.0917 -0.2775 -0.5027
 2848TIP3    H129959   5.283   5.536   5.008  1.8543  1.3863 -0.5459
 2848TIP3    H229960   5.212   5.519   4.875  0.0320 -1.5556  0.7624
 2849TIP3   OH229961   1.453   4.363   1.585  0.8389 -0.1130  0.2090
 2849TIP3    H129962   1.510   4.302   1.632 -1.5856 -2.7226 -0.0780
 2849TIP3    H229963   1.372   4.365   1.636 -0.7893 -0.7519 -2.2616
 2850TIP3   OH229964   1.786   5.457   3.715 -1.1102 -0.1064  0.1907
 2850TIP3    H129965   1.696   5.428   3.704 -0.9988 -0.5455  0.3975
 2850TIP3    H229966   1.837   5.376   3.711 -0.5761  0.2766 -1.5024
 2851TIP3   OH229967   5.213   3.210   2.523  0.0789 -0.7613 -0.1836
 2851TIP3    H129968   5.293   3.160   2.506  0.6209  0.0337 -0.0102
 2851TIP3    H229969   5.154   3.187   2.451  0.4853 -1.3081 -0.3442
 2852TIP3   OH229970   2.662   2.188   0.600  0.1551 -0.4546 -0.5884
 2852TIP3    H129971   2.695   2.109   0.643 -0.1975  0.6007  1.6996
 2852TIP3    H229972   2.738   2.225   0.556  1.1122 -0.2560  1.1946
 2853TIP3   OH229973   2.718   6.327  14.256 -1.1832  0.1200 -0.1631
 2853TIP3    H129974   2.693   6.240  14.224  4.8005 -1.6567 -0.5571
 2853TIP3    H229975   2.704   6.322  14.350  1.0959 -2.1278  0.1167
 2854TIP3   OH229976   5.013   2.241   1.954  0.1435  0.6230 -0.3239
 2854TIP3    H129977   5.080   2.306   1.933  1.7231 -1.4162 -1.8484
 2854TIP3    H229978   5.015   2.180   1.880  0.2650 -2.3773  2.0247
 2855TIP3   OH229979   1.383   0.616  14.152 -0.2044  0.5487 -0.3602
 2855TIP3    H129980   1.404   0.554  14.222  1.6961  1.4165 -0.1427
 2855TIP3    H229981   1.360   0.697  14.197 -0.5172  0.6639 -0.7196
 2856TIP3   OH229982   2.520   2.415  12.353  0.0920 -0.4002  0.0382
 2856TIP3    H129983   2.527   2.470  12.275 -0.5818  0.6080  0.6880
 2856TIP3    H229984   2.431   2.380  12.350  0.1997 -0.6915  0.1494
 2857TIP3   OH229985   2.901   5.764   1.418  0.5858  0.2483 -0.0988
 2857TIP3    H129986   2.961   5.712   1.472  1.3896  1.5830  0.3065
 2857TIP3    H229987   2.815   5.727   1.436  1.1649 -1.0873  0.0170
 2858TIP3   OH229988   5.684   3.814  14.870  0.4163  0.3315 -0.0796
 2858TIP3    H129989   5.704   3.905  14.891 -0.3014  0.9459 -1.9797
 2858TIP3    H229990   5.768   3.774  14.849  0.6075  0.8225 -0.2419
 2859TIP3   OH229991   5.807   4.936   0.971 -0.0197  0.2768  0.2045
 2859TIP3    H129992   5.865   4.999   0.927 -0.2734  1.4753  1.5417
 2859TIP3    H229993   5.766   4.986   1.042  1.8766 -2.0468  3.0805
 2860TIP3   OH229994   6.046   2.648   6.324  0.3126  0.2884 -0.6886
 2860TIP3    H129995   5.956   2.618   6.332  0.1888  0.3598 -1.7396
 2860TIP3    H229996   6.099   2.576   6.359 -0.2216  1.0116  1.6807
 2861TIP3   OH229997   3.736   5.356  14.748  0.1448  0.6685  0.5912
 2861TIP3    H129998   3.669   5.392  14.690 -1.0042  0.3094  1.6710
 2861TIP3    H229999   3.722   5.401  14.831  0.0722 -0.7217  1.3435
 2862TIP3   OH230000   6.745   5.364  12.655 -0.2955 -0.4582 -0.7099
 2862TIP3    H130001   6.790   5.286  12.688 -0.7070  0.1350  1.3540
 2862TIP3    H230002   6.815   5.422  12.625  0.3529  0.3357  2.1828
 2863TIP3   OH230003   0.430   3.566   4.325  0.6639  0.2793  0.4698
 2863TIP3    H130004   0.475   3.495   4.280 -0.3846 -0.0125 -0.1263
 2863TIP3    H230005   0.360   3.591   4.266 -0.1859  0.4876  1.5578
 2864TIP3   OH230006   6.215   1.272   6.397  0.1391  0.9422 -0.1921
 2864TIP3    H130007   6.268   1.196   6.372  1.3252  1.5842  0.3005
 2864TIP3    H230008   6.204   1.264   6.491 -0.7712  0.7437 -0.3106
 2865TIP3   OH230009   5.422   5.519  11.756 -1.3976 -0.4020  0.3749
 2865TIP3    H130010   5.356   5.526  11.825 -0.4104  2.3289  1.1182
 2865TIP3    H230011   5.499   5.562  11.794  0.1921 -1.8280 -1.2012
 2866TIP3   OH230012   1.819   4.294   3.814  0.0337 -0.3658  0.2010
 2866TIP3    H130013   1.783   4.260   3.732  2.9110 -2.0377 -0.4296
 2866TIP3    H230014   1.830   4.217   3.869  0.4842  0.4287  1.2408
 2867TIP3   OH230015   6.201   2.737   2.920 -0.0770 -0.6842 -0.8133
 2867TIP3    H130016   6.226   2.645   2.908 -1.8078 -1.4340  1.1138
 2867TIP3    H230017   6.241   2.762   3.003 -2.7743 -0.8719  0.5851
 2868TIP3   OH230018   6.761   3.276  11.230  0.2838  0.2574  0.4310
 2868TIP3    H130019   6.672   3.311  11.235  0.1295  0.2620 -1.7916
 2868TIP3    H230020   6.802   3.326  11.159  1.1724 -1.6847 -0.4397
 2869TIP3   OH230021   4.476   6.665   4.009 -0.2220 -0.0395 -0.2084
 2869TIP3    H130022   4.405   6.693   4.067 -1.0812  0.7274 -1.5970
 2869TIP3    H230023   4.436   6.596   3.955  0.1779  0.1708 -0.7772
 2870TIP3   OH230024   3.424   3.822  13.916  0.7651 -0.4558  0.2405
 2870TIP3    H130025   3.485   3.750  13.931 -0.0797 -1.1056  0.5659
 2870TIP3    H230026   3.438   3.846  13.824  1.4775 -0.6256  0.2981
 2871TIP3   OH230027   0.928   2.521  12.676  1.2279 -0.1910  0.1830
 2871TIP3    H130028   1.022   2.506  12.682  1.2931 -1.3651 -2.5530
 2871TIP3    H230029   0.890   2.434  12.684  0.5558 -0.0157 -0.9538
 2872TIP3   OH230030   3.012   1.990   1.706 -0.4900  0.4956 -0.5756
 2872TIP3    H130031   2.966   2.066   1.741 -1.8324 -0.0371 -1.1510
 2872TIP3    H230032   2.944   1.938   1.663  0.4561 -0.8866 -0.4412
 2873TIP3   OH230033   2.289   4.001  16.600 -0.2072  0.2335 -0.1231
 2873TIP3    H130034   2.364   3.948  16.626 -0.4020  0.0576  0.0759
 2873TIP3    H230035   2.327   4.071  16.546  0.3319  1.2370  1.5418
 2874TIP3   OH230036   4.155   5.355   4.125 -0.2109  0.0466 -0.2582
 2874TIP3    H130037   4.170   5.275   4.074 -0.4051  0.0035 -0.2489
 2874TIP3    H230038   4.223   5.415   4.096  0.9172 -0.6674  0.8601
 2875TIP3   OH230039   2.687   1.965  12.428  0.2542  0.3499 -0.2937
 2875TIP3    H130040   2.755   2.033  12.428 -0.9925  1.6221  0.5026
 2875TIP3    H230041   2.697   1.921  12.512 -1.0958  1.7711  0.6298
 2876TIP3   OH230042   5.175   2.861   2.075 -0.1604  0.1459 -0.4320
 2876TIP3    H130043   5.265   2.837   2.098 -0.6543 -1.1052  0.2935
 2876TIP3    H230044   5.121   2.793   2.117 -1.4037  0.5694 -1.3130
 2877TIP3   OH230045   5.294   3.445  13.634  0.5131  0.0791  0.2909
 2877TIP3    H130046   5.328   3.399  13.711  2.2702 -0.1144 -0.5833
 2877TIP3    H230047   5.294   3.380  13.565  1.6088  0.9857 -0.5829
 2878TIP3   OH230048   2.767   2.965  17.092  0.0319 -0.8355  0.4726
 2878TIP3    H130049   2.817   2.992  17.169  2.7569  1.1616 -1.8974
 2878TIP3    H230050   2.694   3.027  17.089  1.1602  0.5046  0.2132
 2879TIP3   OH230051   2.299   6.503  15.358 -0.3763  0.3869  0.1807
 2879TIP3    H130052   2.315   6.552  15.277  0.2964 -1.3077 -0.7496
 2879TIP3    H230053   2.206   6.520  15.377 -0.0318  2.3915  0.1720
 2880TIP3   OH230054   1.373   5.113   0.795  0.6318  1.0239 -0.6544
 2880TIP3    H130055   1.462   5.099   0.828  0.1702  1.1272  0.6515
 2880TIP3    H230056   1.319   5.051   0.844  0.1315  0.2596 -2.1682
 2881TIP3   OH230057   4.390   3.848  13.306 -0.4813  0.0930  0.1494
 2881TIP3    H130058   4.455   3.792  13.263 -0.2710  1.2144 -1.0001
 2881TIP3    H230059   4.382   3.811  13.394  2.9313  0.8851  0.8515
 2882TIP3   OH230060   1.694   2.835   5.799  0.3975  0.0559 -0.1477
 2882TIP3    H130061   1.630   2.859   5.732  1.5256  1.0241 -0.9029
 2882TIP3    H230062   1.777   2.827   5.751  0.7880 -1.5455  0.7468
 2883TIP3   OH230063   1.296   5.152   5.988  0.0510 -0.3342  0.1425
 2883TIP3    H130064   1.349   5.227   5.959 -0.2553 -0.9832 -2.2765
 2883TIP3    H230065   1.242   5.187   6.059 -0.4818  1.9179 -1.2940
 2884TIP3   OH230066   4.053   2.837   4.422  0.3750 -0.2276 -0.4330
 2884TIP3    H130067   4.076   2.922   4.384 -0.0833  0.9425  1.8128
 2884TIP3    H230068   4.113   2.827   4.496 -0.1846 -1.4471 -0.1370
 2885TIP3   OH230069   3.758   3.306  11.356 -0.3932 -0.0985 -0.3708
 2885TIP3    H130070   3.837   3.320  11.304 -1.3032 -0.0684 -1.7990
 2885TIP3    H230071   3.702   3.251  11.300 -1.2295 -0.4231  0.7604
 2886TIP3   OH230072   3.041   6.247  10.960  0.4497  0.0041  0.3968
 2886TIP3    H130073   2.955   6.206  10.965 -0.2395  1.4076  0.2981
 2886TIP3    H230074   3.042   6.291  10.875  0.2825  2.1336  1.4810
 2887TIP3   OH230075   5.052   2.725   2.366  0.2725 -0.3770 -0.0913
 2887TIP3    H130076   5.039   2.652   2.305  1.6993 -0.8750  0.1794
 2887TIP3    H230077   5.144   2.720   2.391 -0.4145 -0.5934  2.6311
 2888TIP3   OH230078   0.478   6.563   0.210  0.2666  0.8463 -0.2113
 2888TIP3    H130079   0.410   6.605   0.157 -0.1214 -0.5654 -0.8458
 2888TIP3    H230080   0.546   6.630   0.218 -0.0047  1.3468 -1.8560
 2889TIP3   OH230081   6.238   2.472   4.031 -0.3614  0.1133  0.2713
 2889TIP3    H130082   6.151   2.511   4.020 -0.8344 -0.7175  1.0048
 2889TIP3    H230083   6.272   2.464   3.942 -1.0138  0.5082 -0.0182
 2890TIP3   OH230084   5.365   1.255  16.165  0.2358 -0.3861  0.3013
 2890TIP3    H130085   5.309   1.216  16.232 -2.1288  1.1960 -0.7135
 2890TIP3    H230086   5.449   1.268  16.209 -0.8033 -0.7953  2.4846
 2891TIP3   OH230087   2.126   2.165   3.796  0.1023  0.4160 -0.8157
 2891TIP3    H130088   2.119   2.078   3.835 -1.5252  0.3975 -1.1168
 2891TIP3    H230089   2.141   2.223   3.871 -1.3806  0.1787 -0.3081
 2892TIP3   OH230090   0.199   3.074   0.671 -0.7619  0.0191 -0.5142
 2892TIP3    H130091   0.199   2.991   0.623 -1.0655  0.9099 -2.0906
 2892TIP3    H230092   0.278   3.071   0.725 -0.1756 -0.8163 -1.4145
 2893TIP3   OH230093   0.009   4.026  15.294  0.0796 -0.1613  0.0284
 2893TIP3    H130094  -0.021   4.080  15.367 -3.3327 -0.4580 -1.0626
 2893TIP3    H230095   0.065   4.084  15.243  1.1876  0.5476  1.9974
 2894TIP3   OH230096   0.863   6.076  12.785 -0.3921 -0.8280  0.6082
 2894TIP3    H130097   0.881   6.099  12.694 -0.3551  3.0645  1.5256
 2894TIP3    H230098   0.949   6.056  12.822 -0.1106 -0.0423  0.3865
 2895TIP3   OH230099   1.663   0.267  11.563 -0.2431 -0.0186 -0.3003
 2895TIP3    H130100   1.643   0.312  11.481 -2.0760 -1.4284 -0.6816
 2895TIP3    H230101   1.579   0.264  11.609 -0.3143 -3.4012 -0.4992
 2896TIP3   OH230102   1.534   4.316  10.981 -0.5135 -0.2523 -0.0971
 2896TIP3    H130103   1.497   4.400  11.007  0.1685 -0.1408  0.5518
 2896TIP3    H230104   1.622   4.316  11.019 -0.3410 -1.0633 -0.4793
 2897TIP3   OH230105   5.407   4.819   2.488  0.0134  0.7309  0.1357
 2897TIP3    H130106   5.376   4.847   2.402 -0.2311  0.6457  0.1962
 2897TIP3    H230107   5.493   4.861   2.497  0.7072 -0.4541 -0.7830
 2898TIP3   OH230108   4.693   5.623   2.850 -0.5487  0.3336  0.2457
 2898TIP3    H130109   4.767   5.577   2.810 -1.4794  0.6687 -1.9565
 2898TIP3    H230110   4.679   5.578   2.933  2.4589  0.6141  0.9820
 2899TIP3   OH230111   0.781   3.377   3.394 -0.2861 -0.3093 -0.0298
 2899TIP3    H130112   0.789   3.418   3.308 -1.6927 -1.7614 -0.8778
 2899TIP3    H230113   0.713   3.427   3.439  1.2473  1.1682  0.6916
 2900TIP3   OH230114   3.183   1.828   3.529  0.1475 -0.2685 -0.3803
 2900TIP3    H130115   3.219   1.742   3.507  0.9645  0.1495 -0.6877
 2900TIP3    H230116   3.089   1.813   3.536  0.1880 -1.0222 -1.2647
 2901TIP3   OH230117   4.726   5.884   5.778 -0.6758 -0.5501 -0.8068
 2901TIP3    H130118   4.706   5.918   5.691 -1.4979  0.9134 -0.0628
 2901TIP3    H230119   4.741   5.962   5.832 -0.1216 -1.4367  0.3623
 2902TIP3   OH230120   2.840   0.594   2.082  0.3544  0.3287 -0.0647
 2902TIP3    H130121   2.879   0.668   2.034 -1.1238 -0.1694 -2.0915
 2902TIP3    H230122   2.799   0.541   2.014 -1.0610 -0.8641  1.6968
 2903TIP3   OH230123   0.607   4.122   2.652 -0.0985  0.3959  0.6931
 2903TIP3    H130124   0.585   4.047   2.598 -0.5853  0.7998  0.3287
 2903TIP3    H230125   0.700   4.111   2.671  0.0657  0.2227 -0.1780
 2904TIP3   OH230126   2.789   2.914   1.291 -0.2008  0.6732 -0.1147
 2904TIP3    H130127   2.790   2.819   1.276 -0.5425  0.5282  0.7357
 2904TIP3    H230128   2.845   2.950   1.223 -2.1600  0.0946 -2.0879
 2905TIP3   OH230129   4.991   0.396   6.368  0.3461 -0.2940  0.0436
 2905TIP3    H130130   4.896   0.405   6.375  0.4389 -0.0514  1.1951
 2905TIP3    H230131   5.010   0.313   6.412  0.6822 -0.2423 -0.0036
 2906TIP3   OH230132   1.755   1.697  12.591  0.1014 -0.1387 -0.0369
 2906TIP3    H130133   1.832   1.753  12.602  1.2456 -2.0323  1.8323
 2906TIP3    H230134   1.760   1.634  12.663 -2.2929 -1.3388 -0.8733
 2907TIP3   OH230135   0.834   0.497  16.534  0.2540  0.0331 -0.5927
 2907TIP3    H130136   0.874   0.584  16.541 -0.1639  0.2367 -0.7478
 2907TIP3    H230137   0.907   0.439  16.514  0.4872  0.3941 -0.7975
 2908TIP3   OH230138   6.024   5.145  13.633  0.1051  0.1631  0.4741
 2908TIP3    H130139   6.024   5.079  13.702  0.2103 -0.8737 -0.5073
 2908TIP3    H230140   5.970   5.107  13.564  1.1594  0.5712 -0.5919
 2909TIP3   OH230141   2.264   6.313  15.713  0.3004 -0.5190 -0.3950
 2909TIP3    H130142   2.274   6.232  15.763 -0.1193 -0.1328  0.3055
 2909TIP3    H230143   2.354   6.336  15.689  0.5738 -0.2875  0.8320
 2910TIP3   OH230144   2.295   2.905   2.915  0.0737  0.2033  0.1002
 2910TIP3    H130145   2.322   2.997   2.915 -2.1467  0.8653 -0.2705
 2910TIP3    H230146   2.378   2.857   2.922  1.1753  2.2344  1.8879
 2911TIP3   OH230147   3.683   2.871   4.295  0.4307 -0.5546  0.5133
 2911TIP3    H130148   3.707   2.841   4.207  0.2272 -0.9694  0.5973
 2911TIP3    H230149   3.593   2.901   4.286  0.8224  0.5573  0.3042
 2912TIP3   OH230150   5.803   0.176  11.806 -0.0683  0.3431  0.5004
 2912TIP3    H130151   5.747   0.186  11.883 -0.1304  0.2769  0.4631
 2912TIP3    H230152   5.818   0.266  11.776 -1.6549  0.2752 -0.5720
 2913TIP3   OH230153   1.930   1.544  13.050  0.4974  0.3159 -0.4057
 2913TIP3    H130154   1.886   1.590  13.121 -0.3999  0.0656 -0.7896
 2913TIP3    H230155   1.932   1.453  13.078 -1.1098 -0.0114 -1.3030
 2914TIP3   OH230156   6.542   2.789  16.001 -0.4270 -0.4964 -1.0514
 2914TIP3    H130157   6.636   2.789  16.017 -0.5066 -1.3903 -0.5401
 2914TIP3    H230158   6.508   2.718  16.056 -1.4136 -0.0914 -1.1268
 2915TIP3   OH230159   0.156   0.970  15.511  0.2677  0.1725  0.0320
 2915TIP3    H130160   0.190   1.045  15.559 -3.9661  1.6090  1.0641
 2915TIP3    H230161   0.112   1.009  15.435  1.9373 -1.6451 -1.8983
 2916TIP3   OH230162   6.715   1.898   5.473  0.3315 -0.4390  0.2002
 2916TIP3    H130163   6.641   1.901   5.535  0.1063 -1.3715 -0.0142
 2916TIP3    H230164   6.690   1.959   5.404  1.1782  1.6232  1.6637
 2917TIP3   OH230165   0.901   6.158  11.075 -0.4568 -0.3157  1.0085
 2917TIP3    H130166   0.936   6.194  11.157 -0.1765  0.3484  0.6032
 2917TIP3    H230167   0.812   6.131  11.097  0.2559 -1.8970  2.0215
 2918TIP3   OH230168   5.673   4.232  12.835  0.4566  0.0866 -0.1616
 2918TIP3    H130169   5.691   4.259  12.925 -0.4461  0.3780 -0.0642
 2918TIP3    H230170   5.641   4.311  12.792  0.7062 -0.0952 -0.6912
 2919TIP3   OH230171   4.428   5.442   2.602  0.2288 -0.0183 -0.5699
 2919TIP3    H130172   4.439   5.524   2.554  0.2101  0.7075  0.6224
 2919TIP3    H230173   4.391   5.470   2.686  1.3327 -1.1319  0.2955
 2920TIP3   OH230174   2.255   4.787   4.990  0.1466 -0.3053 -0.4320
 2920TIP3    H130175   2.241   4.693   4.979 -0.0202 -0.6552  2.3800
 2920TIP3    H230176   2.170   4.821   5.016  0.3171  0.5538 -0.9779
 2921TIP3   OH230177   1.928   0.010  15.361  0.4080  0.6215 -0.2968
 2921TIP3    H130178   1.941  -0.037  15.443 -2.2893  1.3544  0.6029
 2921TIP3    H230179   1.860   0.074  15.380  0.0405  1.1147 -2.9849
 2922TIP3   OH230180   0.593   4.860  15.806 -0.0664 -0.0548  0.0218
 2922TIP3    H130181   0.579   4.890  15.717 -1.6200  0.2358  0.3547
 2922TIP3    H230182   0.532   4.787  15.817  0.0818 -0.0621  0.8653
 2923TIP3   OH230183   2.794   3.708   3.845  0.2394 -0.8213 -0.3736
 2923TIP3    H130184   2.835   3.770   3.906  0.1328  2.1484 -3.2070
 2923TIP3    H230185   2.728   3.663   3.898  1.9259 -0.2242  2.3587
 2924TIP3   OH230186   6.106   2.074  16.984 -0.3246 -0.0118  0.3154
 2924TIP3    H130187   6.188   2.068  17.033 -0.3104  2.3300  0.6165
 2924TIP3    H230188   6.049   2.008  17.024  0.7231 -0.2255  1.4571
 2925TIP3   OH230189   0.033   4.804  12.314 -0.5763  0.6393  0.8331
 2925TIP3    H130190  -0.053   4.834  12.285 -0.4547  0.0426 -0.1621
 2925TIP3    H230191   0.025   4.796  12.409 -1.5063  0.9562  0.7790
 2926TIP3   OH230192   3.372   6.458   0.773  0.3213  0.1923 -0.7057
 2926TIP3    H130193   3.372   6.545   0.733  1.5741 -0.0424 -1.2610
 2926TIP3    H230194   3.440   6.410   0.725 -1.5767 -1.6586 -1.6211
 2927TIP3   OH230195   0.635   0.376   6.444 -0.1147  0.7256 -1.1648
 2927TIP3    H130196   0.571   0.439   6.477  2.0183  0.7904  3.2368
 2927TIP3    H230197   0.604   0.291   6.475  0.4157  0.4040 -1.5073
 2928TIP3   OH230198   3.790   4.431   5.832 -0.0061  0.1400  0.2351
 2928TIP3    H130199   3.879   4.453   5.804 -0.2976  0.3253 -0.5762
 2928TIP3    H230200   3.800   4.351   5.884  0.5682 -0.1697 -0.3419
 2929TIP3   OH230201   3.270   6.098   4.934 -0.2487  0.1860 -0.1328
 2929TIP3    H130202   3.194   6.150   4.958 -0.9811  0.9743 -3.8820
 2929TIP3    H230203   3.234   6.028   4.879  1.7247  0.7245 -2.1672
 2930TIP3   OH230204   2.343   5.074  15.061 -0.3187 -1.0753 -0.0073
 2930TIP3    H130205   2.391   5.040  15.137 -0.6152 -0.9049  0.2539
 2930TIP3    H230206   2.410   5.081  14.992  0.1840 -0.2161  0.5491
 2931TIP3   OH230207   0.452   5.786  16.686  0.0021 -0.0328  0.5809
 2931TIP3    H130208   0.455   5.877  16.716 -0.4468 -0.2942  1.4527
 2931TIP3    H230209   0.496   5.787  16.601 -1.5604  1.3321 -0.2436
 2932TIP3   OH230210   1.020   2.181  16.673 -0.8516 -0.2158  0.1816
 2932TIP3    H130211   0.937   2.192  16.628 -2.0445 -1.9763  1.8598
 2932TIP3    H230212   1.030   2.086  16.682  1.3981 -0.0281 -0.1070
 2933TIP3   OH230213   0.221   2.478  13.958  0.1128 -0.0132  0.0556
 2933TIP3    H130214   0.280   2.478  14.032 -0.3904 -2.1512  0.5068
 2933TIP3    H230215   0.134   2.493  13.996  0.0144  0.1869 -0.2464
 2934TIP3   OH230216   6.507   2.901   6.247  0.0586 -0.0833  0.0214
 2934TIP3    H130217   6.415   2.887   6.223 -0.4273 -0.0780  1.7939
 2934TIP3    H230218   6.555   2.832   6.202 -0.7467  0.2478 -1.3594
 2935TIP3   OH230219   3.560   6.537   4.065  0.1904  0.3936 -0.0006
 2935TIP3    H130220   3.553   6.449   4.102 -2.8698  0.4017 -0.3879
 2935TIP3    H230221   3.477   6.579   4.089  1.2847  2.8983 -0.4993
 2936TIP3   OH230222   5.434   3.499  16.590  0.3055 -0.2173 -0.1316
 2936TIP3    H130223   5.500   3.494  16.520  1.6890 -0.7886  1.1909
 2936TIP3    H230224   5.382   3.419  16.579  0.5809 -0.3580 -0.4328
 2937TIP3   OH230225   6.259   6.710  17.016  0.1828  0.2002  0.4813
 2937TIP3    H130226   6.350   6.683  17.012  0.3071  0.6705  0.0402
 2937TIP3    H230227   6.214   6.653  16.953  0.1259 -0.2041  0.8903
 2938TIP3   OH230228   2.471   4.769  13.836  0.2576  0.0903 -0.1303
 2938TIP3    H130229   2.403   4.718  13.792  0.8515  0.3369 -1.3394
 2938TIP3    H230230   2.533   4.703  13.869 -0.4199 -0.1175  0.7497
 2939TIP3   OH230231   2.980   5.639  12.279  0.3113  0.4316 -0.0889
 2939TIP3    H130232   3.040   5.568  12.258 -0.1484  0.0096 -0.0009
 2939TIP3    H230233   3.036   5.712  12.303  0.8337  0.6405 -1.8609
 2940TIP3   OH230234   2.177   5.597  12.113  0.6247 -0.0070  0.0167
 2940TIP3    H130235   2.111   5.661  12.088  3.2598  2.3525 -1.1498
 2940TIP3    H230236   2.148   5.565  12.199 -1.6296  1.4732 -0.1526
 2941TIP3   OH230237   5.479   3.063  15.210 -1.0346  0.0680 -0.5566
 2941TIP3    H130238   5.475   3.115  15.130 -0.8827  0.4545 -0.3155
 2941TIP3    H230239   5.533   2.987  15.187 -0.9684  0.1904 -0.8110
 2942TIP3   OH230240   2.770   3.868   5.194 -0.2108 -0.0583 -0.0648
 2942TIP3    H130241   2.698   3.808   5.174  0.7342 -1.0274 -0.6061
 2942TIP3    H230242   2.835   3.851   5.126  0.8150  0.3467  0.8073
 2943TIP3   OH230243   4.848   0.664  16.122 -0.0788  0.4737  0.5447
 2943TIP3    H130244   4.763   0.708  16.116  1.0492  2.8984  1.4588
 2943TIP3    H230245   4.856   0.615  16.041 -2.0056  0.8572  0.1076
 2944TIP3   OH230246   5.282   4.917  15.588 -0.4667 -0.0288  0.1372
 2944TIP3    H130247   5.338   4.946  15.660  0.7564 -0.6344 -0.5566
 2944TIP3    H230248   5.250   4.998  15.549 -0.4537  0.3144  0.8271
 2945TIP3   OH230249   0.955   4.614  14.160 -0.3600  0.4213  0.1074
 2945TIP3    H130250   1.049   4.631  14.158 -0.0635 -1.1969 -0.4541
 2945TIP3    H230251   0.919   4.672  14.092  0.6393 -1.1058 -1.7982
 2946TIP3   OH230252   1.994   3.166  16.435 -0.3368 -0.0272  0.5156
 2946TIP3    H130253   1.909   3.174  16.479 -0.4514  0.0766  0.2766
 2946TIP3    H230254   2.029   3.082  16.466 -1.0957 -0.6730 -0.3709
 2947TIP3   OH230255   1.712   3.793   6.048 -0.6473 -0.1162 -0.1363
 2947TIP3    H130256   1.695   3.706   6.086 -0.6689  0.4603  1.1846
 2947TIP3    H230257   1.802   3.813   6.073 -0.6142  0.2117 -0.5167
 2948TIP3   OH230258   4.545   3.958   2.856 -0.8383  0.2994 -0.2815
 2948TIP3    H130259   4.510   4.037   2.898 -1.3617 -0.7042  1.2402
 2948TIP3    H230260   4.512   3.886   2.910  2.1566 -0.7927  0.1699
 2949TIP3   OH230261   0.678   1.764  13.519  0.2409  0.1281  0.3656
 2949TIP3    H130262   0.749   1.762  13.455  1.5522 -0.2258  1.8006
 2949TIP3    H230263   0.660   1.672  13.537 -1.6879  0.1801 -1.1660
 2950TIP3   OH230264   0.185   2.545   0.725 -0.5325  0.1734  0.0403
 2950TIP3    H130265   0.208   2.506   0.640  0.6939  0.8485  0.0424
 2950TIP3    H230266   0.103   2.502   0.750 -0.5208 -0.5671 -1.1389
 2951TIP3   OH230267   0.681   6.652   0.603 -0.1275 -0.5066  0.4656
 2951TIP3    H130268   0.716   6.735   0.636 -0.1799  0.3191 -1.4459
 2951TIP3    H230269   0.754   6.613   0.554 -0.9452 -0.2388 -0.9791
 2952TIP3   OH230270   3.212   1.168  15.464 -0.1840  0.1060 -0.2370
 2952TIP3    H130271   3.240   1.162  15.372  2.0101  0.2153  0.3975
 2952TIP3    H230272   3.126   1.126  15.465 -0.6084  0.8292 -2.4954
 2953TIP3   OH230273   2.632   1.264   5.255 -0.3367 -0.4306 -0.1347
 2953TIP3    H130274   2.561   1.308   5.301 -1.1855 -0.4711 -1.3804
 2953TIP3    H230275   2.642   1.180   5.300 -0.7338 -0.2113  0.3559
 2954TIP3   OH230276   2.864   3.810   0.337 -0.1387 -0.1970  0.2782
 2954TIP3    H130277   2.792   3.809   0.401 -0.8383  0.0956 -0.4951
 2954TIP3    H230278   2.896   3.900   0.339  0.7296 -0.5210  1.1943
 2955TIP3   OH230279   6.660   5.323  10.695  0.1207  0.3299 -0.0296
 2955TIP3    H130280   6.656   5.370  10.612  0.2868  1.3456  0.5249
 2955TIP3    H230281   6.635   5.389  10.761 -2.4174 -1.0924  0.4963
 2956TIP3   OH230282   4.247   5.380   2.347  0.1293  0.3488 -0.5708
 2956TIP3    H130283   4.165   5.345   2.380  0.2287  0.1814 -0.5014
 2956TIP3    H230284   4.276   5.440   2.416 -1.1106  2.2097 -1.6285
 2957TIP3   OH230285   4.445   5.463   3.250 -0.3129  0.5284  0.3671
 2957TIP3    H130286   4.462   5.431   3.339  0.5481 -1.6621 -0.5430
 2957TIP3    H230287   4.356   5.435   3.231  0.3018 -1.0527 -0.2816
 2958TIP3   OH230288   1.326   5.761  11.528  0.3059  0.4723 -0.6087
 2958TIP3    H130289   1.394   5.744  11.463 -0.0723  0.7624 -1.0844
 2958TIP3    H230290   1.361   5.832  11.581  1.0410 -0.4357  0.1338
 2959TIP3   OH230291   0.909   0.199   5.810  0.5298  0.2573  0.1397
 2959TIP3    H130292   0.892   0.166   5.722  0.5052 -0.6806  0.4825
 2959TIP3    H230293   0.970   0.272   5.798 -0.3959  0.8942 -0.7440
 2960TIP3   OH230294   1.207   6.374   4.584  0.1198  0.0011 -0.0476
 2960TIP3    H130295   1.239   6.455   4.622  0.7962  0.5308 -1.6998
 2960TIP3    H230296   1.114   6.372   4.606  0.6060  0.0129  2.0685
 2961TIP3   OH230297   5.396   5.919   0.446  0.2415 -0.3330 -0.1182
 2961TIP3    H130298   5.450   5.975   0.389 -0.4347  0.2807 -0.1610
 2961TIP3    H230299   5.433   5.931   0.533 -1.3474  2.0418  0.2892
 2962TIP3   OH230300   2.651   1.532  16.197 -0.0824 -0.1520  0.4849
 2962TIP3    H130301   2.675   1.439  16.190 -0.0466 -0.3403  2.6847
 2962TIP3    H230302   2.705   1.565  16.269 -1.6595  1.0324  1.1461
 2963TIP3   OH230303   5.078   4.466   5.786 -0.2724  0.8822  0.0412
 2963TIP3    H130304   5.028   4.430   5.713  0.5136 -0.1578 -0.0003
 2963TIP3    H230305   5.067   4.561   5.779 -2.0979  0.6736 -0.0556
 2964TIP3   OH230306   2.730   6.428   1.828 -0.4013  0.1603  0.1146
 2964TIP3    H130307   2.675   6.458   1.901 -0.1983 -0.3954  0.5016
 2964TIP3    H230308   2.688   6.348   1.797 -0.6175  0.5233 -0.5376
 2965TIP3   OH230309   5.460   4.175  15.447  0.4223  0.0183 -0.3106
 2965TIP3    H130310   5.521   4.228  15.498 -1.8085  2.1686  0.1979
 2965TIP3    H230311   5.412   4.238  15.394 -2.8982 -1.3961  0.9374
 2966TIP3   OH230312   3.306   0.173   3.639  0.0858  0.0840  0.1488
 2966TIP3    H130313   3.230   0.127   3.603 -0.3387  0.6486  0.3057
 2966TIP3    H230314   3.268   0.244   3.691  0.7285  0.8554 -0.4270
 2967TIP3   OH230315   1.596   1.388   0.722  0.2325  0.1545 -0.2844
 2967TIP3    H130316   1.601   1.348   0.635  0.9129 -1.1331  0.3384
 2967TIP3    H230317   1.502   1.402   0.736 -0.0546 -1.6907 -0.3075
 2968TIP3   OH230318   0.321   6.772   1.013  0.3195 -0.2987 -0.2666
 2968TIP3    H130319   0.380   6.722   1.069  0.0358  0.6574  0.9141
 2968TIP3    H230320   0.330   6.732   0.926  1.6303 -1.0618  0.2074
 2969TIP3   OH230321   6.112   3.374  11.419 -0.2513 -0.1424  0.4162
 2969TIP3    H130322   6.094   3.391  11.327 -2.2277 -0.4644  0.7187
 2969TIP3    H230323   6.033   3.330  11.451  1.0336 -1.4650  1.8843
 2970TIP3   OH230324   6.653   2.682  13.568  0.5160 -0.0969  0.1611
 2970TIP3    H130325   6.718   2.710  13.632 -1.0503  2.7044  0.5953
 2970TIP3    H230326   6.641   2.758  13.511  0.7976 -2.0454 -2.5898
 2971TIP3   OH230327   1.651   4.530  15.834 -0.0038 -0.3865  0.1920
 2971TIP3    H130328   1.651   4.520  15.739  0.3962  0.0221  0.1512
 2971TIP3    H230329   1.663   4.441  15.868 -0.1498 -0.5313 -0.1368
 2972TIP3   OH230330   3.844   5.416  15.124  0.6686  0.6888  0.0764
 2972TIP3    H130331   3.868   5.369  15.204  0.0115  1.6392  0.8513
 2972TIP3    H230332   3.927   5.440  15.084  1.0060  0.5635  0.6936
 2973TIP3   OH230333   2.152   4.612  11.563 -0.3076  0.3314  0.3662
 2973TIP3    H130334   2.069   4.599  11.517  0.2971 -0.0043 -0.6525
 2973TIP3    H230335   2.173   4.704  11.551  0.3008  0.0484 -0.8250
 2974TIP3   OH230336   6.645   5.627  14.724 -0.1686  0.1397 -0.2380
 2974TIP3    H130337   6.703   5.642  14.799  0.4036 -0.0332 -0.6469
 2974TIP3    H230338   6.558   5.652  14.756  0.2215  0.9453  0.1997
 2975TIP3   OH230339   1.994   4.392   6.004  0.2474 -0.4185  0.3982
 2975TIP3    H130340   1.993   4.355   5.916 -0.8397  2.0500 -0.6877
 2975TIP3    H230341   2.065   4.457   6.001 -0.8619  0.8167  0.8446
 2976TIP3   OH230342   4.206   6.442   1.647 -0.2625  0.5046  0.1997
 2976TIP3    H130343   4.187   6.466   1.556 -0.0282  0.1173  0.0450
 2976TIP3    H230344   4.187   6.348   1.651 -0.1802  0.5011  0.5289
 2977TIP3   OH230345   4.188   3.508  12.489  0.9682 -0.1694  0.4927
 2977TIP3    H130346   4.164   3.456  12.412  2.3644  0.0363 -0.0954
 2977TIP3    H230347   4.109   3.506  12.544 -0.2289  0.0986 -1.1491
 2978TIP3   OH230348   6.780   0.822  15.295 -0.3768 -0.3266 -0.1826
 2978TIP3    H130349   6.822   0.805  15.211  0.8020  2.1748 -0.1622
 2978TIP3    H230350   6.703   0.875  15.272  0.2509  0.8293  0.3214
 2979TIP3   OH230351   3.900   0.475  13.557  0.4212  0.2180  0.3901
 2979TIP3    H130352   3.851   0.551  13.527  0.8083  0.2386 -0.1984
 2979TIP3    H230353   3.912   0.489  13.651 -0.4851  0.3308  0.4873
 2980TIP3   OH230354   5.217   4.697   4.179  0.2811  0.6458 -0.2851
 2980TIP3    H130355   5.304   4.737   4.174 -0.2980  1.8200 -1.4446
 2980TIP3    H230356   5.157   4.769   4.156 -0.9096 -0.4378 -0.6101
 2981TIP3   OH230357   0.674   0.773   5.208 -0.2250 -0.0529 -0.1864
 2981TIP3    H130358   0.709   0.861   5.219  2.2561 -0.6536 -2.8088
 2981TIP3    H230359   0.722   0.719   5.271  1.0448 -0.2202 -1.2862
 2982TIP3   OH230360   4.009   3.892  16.164  0.2706  0.1574 -0.1067
 2982TIP3    H130361   3.986   3.845  16.083  0.0342 -0.3714  0.2650
 2982TIP3    H230362   4.074   3.956  16.136 -0.2273  0.3689 -0.8205
 2983TIP3   OH230363   2.762   2.485   4.463 -0.4707  0.4586 -0.4326
 2983TIP3    H130364   2.755   2.488   4.368  4.4284 -0.4700 -0.9537
 2983TIP3    H230365   2.790   2.574   4.487  1.2241 -0.1328 -0.1971
 2984TIP3   OH230366   6.404   3.706   2.120  0.1247  0.5050  0.1026
 2984TIP3    H130367   6.393   3.666   2.034 -2.6675  1.4461 -0.0195
 2984TIP3    H230368   6.441   3.792   2.102  1.4131 -0.0552  0.0119
 2985TIP3   OH230369   2.379   0.513   1.578 -0.3447  0.1330  0.2154
 2985TIP3    H130370   2.341   0.535   1.663  0.7898 -1.5784  1.1867
 2985TIP3    H230371   2.365   0.419   1.569 -0.6242  0.3206 -1.5911
 2986TIP3   OH230372   1.303   4.562  15.609 -0.2359  0.5321 -0.1603
 2986TIP3    H130373   1.316   4.630  15.675 -1.1577  0.8030 -0.2617
 2986TIP3    H230374   1.381   4.567  15.553  0.1886  0.8027  0.4518
 2987TIP3   OH230375   3.653   6.129  15.111 -0.0977 -0.1126 -0.0857
 2987TIP3    H130376   3.620   6.136  15.021 -0.4338  0.4544  0.0802
 2987TIP3    H230377   3.601   6.192  15.161  0.5019  0.0115  0.3931
 2988TIP3   OH230378   4.652   6.261   2.244  0.2690 -1.1600  0.5634
 2988TIP3    H130379   4.713   6.307   2.301  1.4111 -0.5909 -1.0910
 2988TIP3    H230380   4.650   6.313   2.164 -1.6207 -1.7228  0.2244
 2989TIP3   OH230381   2.643   2.097   2.868 -0.1995  0.3828  0.2887
 2989TIP3    H130382   2.706   2.169   2.866  0.8173 -0.5211 -1.7361
 2989TIP3    H230383   2.639   2.070   2.959  2.1558  0.6548  0.4843
 2990TIP3   OH230384   2.221   5.496  11.262  0.8551 -0.0478  0.1179
 2990TIP3    H130385   2.149   5.438  11.289  0.3266  0.7666  0.4571
 2990TIP3    H230386   2.237   5.472  11.171  1.3030 -1.4167  0.5338
 2991TIP3   OH230387   0.286   4.612  14.584  0.0982 -0.3949 -0.1563
 2991TIP3    H130388   0.372   4.655  14.574  0.1946 -0.5744 -0.0864
 2991TIP3    H230389   0.307   4.522  14.608 -0.1464  0.5838  3.9644
 2992TIP3   OH230390   5.934   3.638   1.229  0.1318 -1.1097  0.1736
 2992TIP3    H130391   6.009   3.580   1.239 -1.1302 -2.7342  0.4794
 2992TIP3    H230392   5.873   3.610   1.297 -1.5795 -1.1252 -1.3464
 2993TIP3   OH230393   3.744   6.406   2.837 -0.0305  0.3606 -0.4423
 2993TIP3    H130394   3.779   6.475   2.780  1.5667  0.6224  0.7965
 2993TIP3    H230395   3.749   6.326   2.785 -1.8622  1.1589 -1.8860
 2994TIP3   OH230396   3.174   5.143  14.311  0.0397 -0.0743 -0.7969
 2994TIP3    H130397   3.126   5.219  14.277 -1.4307 -0.9702 -0.7490
 2994TIP3    H230398   3.172   5.154  14.406  2.1791  1.2300 -0.8707
 2995TIP3   OH230399   0.117   5.509  12.279  0.1847 -0.1452 -0.0721
 2995TIP3    H130400   0.101   5.530  12.371 -3.2663 -1.5885 -0.2877
 2995TIP3    H230401   0.103   5.415  12.272  2.7997 -0.4865 -1.6474
 2996TIP3   OH230402   2.083   5.553  15.545  0.4590 -0.5375  0.8111
 2996TIP3    H130403   2.122   5.484  15.599  0.3537  0.9072  2.7719
 2996TIP3    H230404   2.099   5.634  15.594  2.4455  1.1443 -2.4541
 2997TIP3   OH230405   5.460   1.002  10.565 -0.0701  0.4105  0.0012
 2997TIP3    H130406   5.365   1.001  10.554 -0.0128  1.7235 -0.6887
 2997TIP3    H230407   5.487   1.089  10.535  1.1718  0.6394  1.6659
 2998TIP3   OH230408   4.688   2.523  11.930 -0.4047 -0.5712  0.1715
 2998TIP3    H130409   4.676   2.499  11.838 -0.8539 -0.6870  0.2584
 2998TIP3    H230410   4.605   2.566  11.954 -0.7683 -1.6409  0.8717
 2999TIP3   OH230411   5.630   6.438   1.731  0.0489 -0.8149 -0.1237
 2999TIP3    H130412   5.692   6.497   1.773  0.5221 -1.9114  0.7597
 2999TIP3    H230413   5.679   6.398   1.660  0.0329 -0.8904 -0.0923
 3000TIP3   OH230414   5.807   0.266  14.568 -0.2373 -0.4486  0.5661
 3000TIP3    H130415   5.719   0.305  14.560  0.1809  0.3013 -0.5278
 3000TIP3    H230416   5.857   0.306  14.496  0.8112 -1.3841  0.7693
 3001TIP3   OH230417   0.643   0.424   0.462 -0.0269  0.3124 -0.6942
 3001TIP3    H130418   0.551   0.405   0.440  0.4323 -0.1110 -2.3777
 3001TIP3    H230419   0.692   0.392   0.386  1.7027 -1.3675  1.0581
 3002TIP3   OH230420   5.516   3.083  12.744  0.6958  0.2721 -0.2116
 3002TIP3    H130421   5.580   3.146  12.712 -1.4575  2.0037 -1.2377
 3002TIP3    H230422   5.524   3.087  12.839 -0.9755  3.8596 -0.1393
 3003TIP3   OH230423   2.277   6.590  14.912  0.1038 -0.1318  0.3458
 3003TIP3    H130424   2.301   6.636  14.993  1.3826 -0.0807 -0.0566
 3003TIP3    H230425   2.306   6.648  14.842 -1.3232 -0.0191 -0.1572
 3004TIP3   OH230426   6.313   5.838   1.043 -0.1613 -0.1259 -0.6716
 3004TIP3    H130427   6.275   5.839   0.955 -1.1335  0.2293 -0.2557
 3004TIP3    H230428   6.303   5.748   1.072 -0.8033 -0.0097 -0.5208
 3005TIP3   OH230429   6.308   4.036  13.121 -0.3054  0.3227  0.0428
 3005TIP3    H130430   6.229   4.079  13.156 -0.3174 -0.1173  0.5711
 3005TIP3    H230431   6.380   4.078  13.168 -0.2787  0.1967  0.1168
 3006TIP3   OH230432   5.202   1.076   1.225  0.2142 -0.1149 -0.1547
 3006TIP3    H130433   5.247   1.143   1.277  0.2358  0.3443 -0.7674
 3006TIP3    H230434   5.140   1.124   1.171  0.6409 -0.5311 -1.0295
 3007TIP3   OH230435   1.207   3.148  12.523  0.6322  0.2879  0.4379
 3007TIP3    H130436   1.255   3.202  12.586  2.5365 -2.4493  1.4436
 3007TIP3    H230437   1.274   3.112  12.465 -0.5095 -1.4069  0.1264
 3008TIP3   OH230438   4.515   1.308   1.450 -0.2532  0.0825  0.0056
 3008TIP3    H130439   4.458   1.381   1.429 -0.9224 -0.5107 -0.2590
 3008TIP3    H230440   4.466   1.257   1.514 -0.9409 -1.5871 -1.7980
 3009TIP3   OH230441   2.800   2.285  11.789  0.4897 -0.6278  0.3897
 3009TIP3    H130442   2.718   2.294  11.741  0.4008 -2.0471  0.2524
 3009TIP3    H230443   2.776   2.300  11.880 -0.0055 -1.3903  0.3952
 3010TIP3   OH230444   1.600   0.474   0.124  0.1880 -0.1512  0.5204
 3010TIP3    H130445   1.668   0.489   0.190 -1.0309 -0.2520  1.8180
 3010TIP3    H230446   1.597   0.379   0.114  0.0747 -0.1622  0.6503
 3011TIP3   OH230447   5.538   5.999   0.714 -0.1177  0.2090 -0.5491
 3011TIP3    H130448   5.615   6.051   0.738 -1.0136  0.7621  1.2125
 3011TIP3    H230449   5.540   5.924   0.773 -0.8869  0.2000 -0.5288
 3012TIP3   OH230450   4.118   2.546  15.576  0.5765  0.3642 -0.5432
 3012TIP3    H130451   4.064   2.487  15.630  0.3226  0.0310 -1.1637
 3012TIP3    H230452   4.174   2.590  15.640 -0.0175  0.2849  0.0509
 3013TIP3   OH230453   1.710   1.207  15.344 -0.2574  0.2234 -0.4621
 3013TIP3    H130454   1.756   1.235  15.423 -1.4652 -0.6825  0.5880
 3013TIP3    H230455   1.648   1.278  15.326  1.5016  1.4545 -1.8893
 3014TIP3   OH230456   4.327   0.527  13.182 -0.3272 -0.2614  0.2788
 3014TIP3    H130457   4.305   0.451  13.128  0.0586 -0.2382  0.0923
 3014TIP3    H230458   4.391   0.494  13.245 -0.9934 -0.3609  0.9128
 3015TIP3   OH230459   3.958   3.905   6.641  1.1097  0.2205 -0.2650
 3015TIP3    H130460   3.996   3.893   6.554  1.9694 -2.0647  0.3816
 3015TIP3    H230461   3.982   3.825   6.689 -1.8352  0.1083  1.1515
 3016TIP3   OH230462   2.009   5.403  11.617  0.2550  0.8075 -0.2306
 3016TIP3    H130463   1.933   5.434  11.568 -0.0883  0.2229 -0.0604
 3016TIP3    H230464   2.063   5.359  11.551  0.0948  0.5713 -0.2010
 3017TIP3   OH230465   6.196   1.585  17.162  0.1976 -0.1283 -0.1374
 3017TIP3    H130466   6.256   1.620  17.097 -1.0903  0.7101 -0.8880
 3017TIP3    H230467   6.191   1.491  17.143 -0.0031  0.0801 -1.1076
 3018TIP3   OH230468   0.466   1.282   3.671 -0.0247  0.4748 -0.3067
 3018TIP3    H130469   0.489   1.232   3.750  0.6066  0.4379 -0.5098
 3018TIP3    H230470   0.373   1.301   3.682 -0.1888 -0.4166 -0.0417
 3019TIP3   OH230471   4.743   6.383  11.925 -0.4409 -0.1293 -0.2416
 3019TIP3    H130472   4.781   6.384  12.012 -0.3828  2.9371 -0.2587
 3019TIP3    H230473   4.657   6.425  11.935 -0.6516 -0.2056 -1.5812
 3020TIP3   OH230474   0.763   5.194  13.264  0.6322  0.5446  0.7283
 3020TIP3    H130475   0.674   5.227  13.275  0.4120 -0.2747  1.4642
 3020TIP3    H230476   0.795   5.183  13.353  1.2715  0.2989  0.4711
 3021TIP3   OH230477   1.174   1.083  13.683 -0.0278 -0.1265  0.1247
 3021TIP3    H130478   1.144   1.151  13.623 -3.9165 -1.6777  0.1920
 3021TIP3    H230479   1.168   1.123  13.770  0.5329  0.4015 -0.0773
 3022TIP3   OH230480   1.317   5.013  16.022 -0.3518  0.4209 -0.0644
 3022TIP3    H130481   1.317   5.099  16.065  0.6608  0.4321 -0.0881
 3022TIP3    H230482   1.370   5.025  15.944 -0.1899 -0.2417 -0.0526
 3023TIP3   OH230483   4.736   2.649   5.328 -0.4017  0.4544 -0.1635
 3023TIP3    H130484   4.685   2.646   5.247  1.2618 -0.7680 -1.2080
 3023TIP3    H230485   4.730   2.560   5.364 -1.6123  1.1431  1.3717
 3024TIP3   OH230486   0.309   5.316   2.874  0.6282  0.2297 -0.5548
 3024TIP3    H130487   0.217   5.322   2.849  0.0294 -0.0935  1.4876
 3024TIP3    H230488   0.341   5.238   2.827 -0.0083  0.5901 -1.6112
 3025TIP3   OH230489   2.275   4.881  15.670 -0.2734 -0.0131 -0.2714
 3025TIP3    H130490   2.351   4.891  15.613  0.6805 -1.3201  0.7399
 3025TIP3    H230491   2.254   4.970  15.697 -1.0489  0.6976 -3.0150
 3026TIP3   OH230492   3.074   5.027   0.323  0.8333  0.3400 -0.5673
 3026TIP3    H130493   3.057   4.954   0.263  1.5436 -0.0293 -0.3261
 3026TIP3    H230494   3.135   4.992   0.387 -2.4491 -0.2993  2.3914
 3027TIP3   OH230495   6.230   0.589   2.151  0.1101  0.4211 -0.3752
 3027TIP3    H130496   6.231   0.685   2.150  1.7398  0.4767  1.6232
 3027TIP3    H230497   6.172   0.567   2.224  2.6215  0.0045  1.5850
 3028TIP3   OH230498   3.389   1.930   5.868 -0.5389  0.1676 -0.2817
 3028TIP3    H130499   3.436   1.928   5.785  2.6511  1.0426  1.4440
 3028TIP3    H230500   3.424   1.856   5.918 -0.6669  1.0706  1.1872
 3029TIP3   OH230501   3.883   5.663  15.850  0.7441  0.1786 -0.0180
 3029TIP3    H130502   3.884   5.600  15.922  2.6278 -0.4872 -0.6037
 3029TIP3    H230503   3.793   5.694  15.848  0.6310  0.1528  2.5644
 3030TIP3   OH230504   2.403   1.809  12.983 -0.1992 -0.5472 -0.1435
 3030TIP3    H130505   2.319   1.781  12.947 -0.9257 -3.1744  3.3538
 3030TIP3    H230506   2.396   1.904  12.990 -1.2983 -0.2880 -3.5176
 3031TIP3   OH230507   0.739   4.883   1.770  0.2375 -0.4247 -0.0356
 3031TIP3    H130508   0.783   4.833   1.701  0.8479 -0.5453  0.4370
 3031TIP3    H230509   0.806   4.895   1.837  0.4234  2.0206 -0.6358
 3032TIP3   OH230510   1.198   4.397   4.367 -0.0027  0.1342  0.5332
 3032TIP3    H130511   1.136   4.463   4.338 -0.3745 -0.4642 -0.0438
 3032TIP3    H230512   1.159   4.361   4.446  0.4261  0.9207  1.1146
 3033TIP3   OH230513   1.335   2.649   6.068  0.3051  0.3904 -0.1109
 3033TIP3    H130514   1.264   2.665   6.006  0.1377  0.2727  0.0511
 3033TIP3    H230515   1.404   2.710   6.041 -0.0215  0.8137  0.0030
 3034TIP3   OH230516   1.884   5.456  10.930 -0.8058  0.2496  0.0365
 3034TIP3    H130517   1.912   5.436  11.019  0.1591  0.3934 -0.2224
 3034TIP3    H230518   1.805   5.509  10.940 -2.7376 -2.6425  0.7468
 3035TIP3   OH230519   3.855   4.206  12.520  0.1946  0.4133  0.1125
 3035TIP3    H130520   3.907   4.151  12.462  0.2064  0.6694 -0.1217
 3035TIP3    H230521   3.911   4.282  12.537 -0.8006  1.5646 -1.6022
 3036TIP3   OH230522   4.481   2.212   1.750  0.3443  0.0597 -0.4343
 3036TIP3    H130523   4.576   2.217   1.740  0.2760 -0.8951 -1.7290
 3036TIP3    H230524   4.468   2.159   1.829  0.8878 -0.1828 -0.5056
 3037TIP3   OH230525   4.898   4.147  16.809 -0.4183 -0.0707  0.4105
 3037TIP3    H130526   4.948   4.222  16.839 -0.0925  0.1817 -0.7400
 3037TIP3    H230527   4.851   4.117  16.887 -1.6037  2.1330  0.5901
 3038TIP3   OH230528   6.049   5.120  10.770 -0.4579 -0.2844  0.0111
 3038TIP3    H130529   5.961   5.111  10.808  0.4963 -0.9040  2.1200
 3038TIP3    H230530   6.057   5.044  10.712 -1.3721 -0.1449 -0.3129
 3039TIP3   OH230531   4.781   6.095   4.448  0.0901 -0.3702  0.8829
 3039TIP3    H130532   4.818   6.030   4.387 -0.6436 -0.9544  1.0583
 3039TIP3    H230533   4.857   6.143   4.480  0.5512 -0.5248  0.0322
 3040TIP3   OH230534   5.456   5.813   4.157  0.3093 -0.2071  0.0727
 3040TIP3    H130535   5.368   5.836   4.188  1.3294  1.3563  1.8673
 3040TIP3    H230536   5.468   5.722   4.185 -0.9669 -0.6440 -0.7408
 3041TIP3   OH230537   0.294   2.880  14.918  0.0650  0.1852  0.1184
 3041TIP3    H130538   0.313   2.811  14.981 -0.4392  0.7135  0.8592
 3041TIP3    H230539   0.293   2.960  14.970 -2.9498  0.3335 -0.1099
 3042TIP3   OH230540   6.495   5.480   6.130  0.2649  0.5217 -0.3909
 3042TIP3    H130541   6.414   5.526   6.154 -2.4584 -3.7768 -0.7300
 3042TIP3    H230542   6.480   5.454   6.039  2.5046  0.5558 -0.7818
 3043TIP3   OH230543   0.404   2.345   5.209 -0.2345  0.0808  0.3133
 3043TIP3    H130544   0.406   2.428   5.257  0.5656  0.8818 -1.0808
 3043TIP3    H230545   0.494   2.332   5.179 -0.3529 -1.2977  0.5083
 3044TIP3   OH230546   3.937   1.962   4.552 -0.4088  0.3913  0.4712
 3044TIP3    H130547   4.008   1.906   4.583 -1.0596 -1.6266 -1.5152
 3044TIP3    H230548   3.967   1.992   4.466 -1.3399  0.6613  0.2418
 3045TIP3   OH230549   2.012   1.787  12.337 -0.3472 -0.4026 -0.1285
 3045TIP3    H130550   2.077   1.758  12.401  1.4420 -0.2601 -1.8498
 3045TIP3    H230551   1.983   1.872  12.369  1.9430  0.5536 -0.4903
 3046TIP3   OH230552   2.960   6.042   0.719  0.3392 -0.2249  0.0222
 3046TIP3    H130553   3.013   6.005   0.790 -0.3718 -0.3073  0.5111
 3046TIP3    H230554   2.909   5.968   0.686  0.5446 -0.1491 -0.4626
 3047TIP3   OH230555   2.952   3.613  12.628  0.1158 -0.2108 -0.1345
 3047TIP3    H130556   2.910   3.560  12.696 -0.8599 -0.5300 -0.9603
 3047TIP3    H230557   3.046   3.602  12.643 -0.0728 -1.8537 -0.0375
 3048TIP3   OH230558   5.416   2.641  11.054 -0.5840  0.0713 -0.4591
 3048TIP3    H130559   5.465   2.676  10.979  0.4094 -1.3478 -0.5105
 3048TIP3    H230560   5.339   2.696  11.061  0.7818  2.0606 -0.6981
 3049TIP3   OH230561   4.542   1.119  14.772 -0.8572  0.5168  0.1962
 3049TIP3    H130562   4.535   1.028  14.799  0.6933  0.3975  0.2196
 3049TIP3    H230563   4.470   1.163  14.816  0.1989 -0.1209  2.6324
 3050TIP3   OH230564   0.853   2.846   4.444  0.1031  0.6287  0.7258
 3050TIP3    H130565   0.762   2.834   4.417  0.5193  2.3449 -1.6514
 3050TIP3    H230566   0.849   2.920   4.506 -0.3490 -0.6366  2.2343
 3051TIP3   OH230567   5.674   0.113   0.896  0.2746  0.3248 -0.5854
 3051TIP3    H130568   5.597   0.081   0.849  0.0489 -0.5879  0.3887
 3051TIP3    H230569   5.657   0.091   0.988  0.5579  2.4078 -0.0093
 3052TIP3   OH230570   0.710   5.226   3.003  0.7861 -0.9426 -0.5615
 3052TIP3    H130571   0.709   5.319   3.027 -0.3346 -1.1855  0.3920
 3052TIP3    H230572   0.790   5.192   3.043 -0.6235 -1.1604  2.2781
 3053TIP3   OH230573   1.770   0.769  11.920  0.1860  0.3422 -0.0921
 3053TIP3    H130574   1.838   0.816  11.968 -0.1865  1.6167 -0.8017
 3053TIP3    H230575   1.698   0.759  11.982  0.2160  0.8192  0.0160
 3054TIP3   OH230576   6.414   1.146  11.997  0.1457 -0.1502  0.4464
 3054TIP3    H130577   6.417   1.221  11.936  0.1887 -0.3788  0.1637
 3054TIP3    H230578   6.502   1.109  11.992  0.2166 -0.0366  0.8208
 3055TIP3   OH230579   0.227   6.074   2.017  0.1502  0.3314 -0.0476
 3055TIP3    H130580   0.250   6.116   1.934 -1.4529 -0.8856 -1.1556
 3055TIP3    H230581   0.239   5.980   2.000 -0.1647  0.0750  1.0982
 3056TIP3   OH230582   2.310   4.396  16.608 -0.3319 -0.0934 -0.3435
 3056TIP3    H130583   2.349   4.351  16.533  0.0177 -0.0426 -0.1912
 3056TIP3    H230584   2.225   4.353  16.619 -0.7031  0.3961 -1.2264
 3057TIP3   OH230585   2.943   5.034  12.226 -0.1251 -0.2921  0.0977
 3057TIP3    H130586   2.894   5.052  12.306 -0.2859  0.8847 -0.2473
 3057TIP3    H230587   2.883   4.984  12.171  0.2377 -1.7378  0.9853
 3058TIP3   OH230588   3.981   0.086  10.873  0.2635 -0.2411 -0.0130
 3058TIP3    H130589   3.942  -0.000  10.863 -1.7724  0.4969  1.3292
 3058TIP3    H230590   3.985   0.122  10.784 -0.9114 -0.8484 -0.3184
 3059TIP3   OH230591   2.901   4.145  13.607 -0.3104  0.6972  0.0390
 3059TIP3    H130592   2.857   4.225  13.580  0.4285  1.9089  2.2483
 3059TIP3    H230593   2.863   4.124  13.692 -0.0941 -0.9847 -0.2594
 3060TIP3   OH230594   1.351   1.200   3.563  0.2305  0.6540 -0.5143
 3060TIP3    H130595   1.403   1.280   3.561 -0.7987  1.3922  1.1325
 3060TIP3    H230596   1.355   1.172   3.655 -0.5961 -0.4078 -0.7945
 3061TIP3   OH230597   1.736   0.929  11.456  0.2938  0.0196 -0.0070
 3061TIP3    H130598   1.642   0.928  11.440 -0.0063 -0.0209  1.6778
 3061TIP3    H230599   1.745   0.902  11.547  2.0404 -1.6613 -0.6357
 3062TIP3   OH230600   0.757   1.238   0.893 -0.2845  0.5922  0.4671
 3062TIP3    H130601   0.747   1.316   0.839  0.7833  0.2098 -0.3088
 3062TIP3    H230602   0.669   1.200   0.899 -0.1026 -0.4668 -2.7184
 3063TIP3   OH230603   1.326   4.258  14.692 -0.3613  0.5480  0.1382
 3063TIP3    H130604   1.328   4.258  14.787  1.7709 -1.0590  0.1438
 3063TIP3    H230605   1.261   4.324  14.669 -3.6672 -1.6883  2.7210
 3064TIP3   OH230606   1.589   3.212   0.406 -0.4158  0.2278 -0.0085
 3064TIP3    H130607   1.518   3.217   0.471  0.3688 -0.9356  0.9651
 3064TIP3    H230608   1.646   3.142   0.438 -0.2731 -0.7101 -2.2329
 3065TIP3   OH230609   2.177   2.553   1.948  0.5713 -0.6882 -0.3699
 3065TIP3    H130610   2.181   2.458   1.934 -0.5812 -0.6982 -0.6957
 3065TIP3    H230611   2.261   2.586   1.917  1.5813 -1.7773  1.1358
 3066TIP3   OH230612   6.150   0.575  11.824 -0.4944 -0.5287 -0.7746
 3066TIP3    H130613   6.216   0.608  11.763 -0.6502  1.0009 -0.1356
 3066TIP3    H230614   6.200   0.534  11.894 -0.0984  2.4669  0.7782
 3067TIP3   OH230615   4.412   1.914  12.705 -0.7615  0.1098 -0.2256
 3067TIP3    H130616   4.474   1.910  12.779 -1.8278 -0.5873  0.6388
 3067TIP3    H230617   4.335   1.957  12.741 -1.1078  0.2057 -1.0764
 3068TIP3   OH230618   4.032   4.544   2.842  0.5246 -0.0613  0.0932
 3068TIP3    H130619   3.997   4.633   2.850  0.3891 -0.1089  0.0399
 3068TIP3    H230620   4.001   4.499   2.920 -0.0147 -0.2672 -0.2430
 3069TIP3   OH230621   6.465   3.999  12.333 -0.3264 -0.1303  0.3805
 3069TIP3    H130622   6.402   4.065  12.362 -2.9260 -1.9511 -1.0341
 3069TIP3    H230623   6.427   3.915  12.358  1.2467 -1.3102 -1.0673
 3070TIP3   OH230624   1.270   3.351  16.908  0.1267  0.3638  0.1315
 3070TIP3    H130625   1.274   3.275  16.849 -1.7844  0.7925 -0.5731
 3070TIP3    H230626   1.263   3.312  16.996 -0.7454 -0.2747 -0.2184
 3071TIP3   OH230627   5.489   2.824  11.934  0.3054  0.2412 -0.0988
 3071TIP3    H130628   5.580   2.802  11.952  0.7932  1.1767 -1.3361
 3071TIP3    H230629   5.490   2.857  11.844 -1.3380 -0.2400 -0.3083
 3072TIP3   OH230630   5.091   3.025   1.233 -0.2573  0.0355 -0.1583
 3072TIP3    H130631   5.093   2.998   1.325 -0.8609  1.9381  0.4282
 3072TIP3    H230632   5.002   3.005   1.204  0.5357 -2.5212 -0.9634
 3073TIP3   OH230633   6.248   2.048   3.037  0.4040  0.3055 -0.2966
 3073TIP3    H130634   6.155   2.029   3.044  0.6471 -0.4231  1.4160
 3073TIP3    H230635   6.255   2.114   2.968 -1.4173  0.6879 -0.1259
 3074TIP3   OH230636   1.270   2.268  16.225  0.0053  0.6318  0.6216
 3074TIP3    H130637   1.251   2.361  16.212  0.7865  0.6439 -0.5386
 3074TIP3    H230638   1.325   2.244  16.150 -0.0964 -0.7379  0.9684
 3075TIP3   OH230639   4.392   5.245   2.813 -0.4969 -0.4272  0.1096
 3075TIP3    H130640   4.397   5.165   2.761  1.6559 -1.2878  1.5469
 3075TIP3    H230641   4.483   5.265   2.834 -1.0331  2.2052  0.1047
 3076TIP3   OH230642   3.958   6.009   2.483 -0.4313  1.1683 -0.5028
 3076TIP3    H130643   3.963   5.943   2.553  0.6626  0.9489 -0.7744
 3076TIP3    H230644   4.025   6.073   2.506 -0.7210  1.5933 -0.8424
 3077TIP3   OH230645   1.782   4.224  11.093  0.0781 -0.2107 -0.2364
 3077TIP3    H130646   1.755   4.208  11.183  0.0729 -0.6516 -0.3155
 3077TIP3    H230647   1.808   4.138  11.060 -1.1645 -0.2863 -1.0688
 3078TIP3   OH230648   1.041   5.451  10.870  0.2892 -0.1272 -0.7295
 3078TIP3    H130649   0.958   5.441  10.917 -0.0657 -0.0388 -1.3279
 3078TIP3    H230650   1.055   5.366  10.828  1.4230 -0.7320  0.8428
 3079TIP3   OH230651   4.368   4.998   5.365 -0.2065 -0.3653 -0.6213
 3079TIP3    H130652   4.373   4.919   5.420  3.8016  0.4207  0.3356
 3079TIP3    H230653   4.297   5.049   5.404 -1.1747 -2.3460  0.3265
 3080TIP3   OH230654   4.097   2.569   3.791  0.1655 -0.1677  0.4488
 3080TIP3    H130655   4.192   2.574   3.784  0.2551 -2.0419 -0.0929
 3080TIP3    H230656   4.080   2.487   3.837 -1.1955 -0.1448  0.0328
 3081TIP3   OH230657   3.686   2.378   2.620  0.0389 -0.8375  0.1789
 3081TIP3    H130658   3.760   2.435   2.640 -0.6026 -0.2717  0.9731
 3081TIP3    H230659   3.681   2.378   2.524  0.6743 -0.3772  0.1428
 3082TIP3   OH230660   2.172   3.883  15.799  0.0200  0.3764 -0.0585
 3082TIP3    H130661   2.186   3.976  15.819 -1.3438  0.7484 -0.7658
 3082TIP3    H230662   2.212   3.837  15.873  1.0530  1.5088  0.1099
 3083TIP3   OH230663   2.941   2.090  14.872  0.4978 -0.4177 -0.9483
 3083TIP3    H130664   3.029   2.073  14.838  1.0801  0.6192 -0.0051
 3083TIP3    H230665   2.956   2.144  14.950 -0.9362 -0.8652 -0.3514
 3084TIP3   OH230666   5.705   3.262  12.704 -0.8853  0.3918  0.0460
 3084TIP3    H130667   5.742   3.331  12.650  0.1188 -0.1351  0.0591
 3084TIP3    H230668   5.708   3.297  12.793  0.0176  0.1671  0.1085
 3085TIP3   OH230669   2.866   2.247  17.202  0.3277 -0.0224 -0.2505
 3085TIP3    H130670   2.892   2.247  17.294 -0.5622  2.1404  0.0545
 3085TIP3    H230671   2.906   2.169  17.165  5.1930  1.8348  0.7143
 3086TIP3   OH230672   4.262   3.833   4.209  0.5847 -0.4652  0.3928
 3086TIP3    H130673   4.189   3.888   4.179  0.4674 -0.6347  0.3673
 3086TIP3    H230674   4.260   3.841   4.305 -0.1219 -1.3026  0.4548
 3087TIP3   OH230675   2.319   1.339   0.307 -0.1713  0.5386  0.1294
 3087TIP3    H130676   2.278   1.257   0.332 -1.0291  1.0640  0.4901
 3087TIP3    H230677   2.332   1.386   0.390  0.3274  0.7550 -0.0708
 3088TIP3   OH230678   5.600   5.074  15.750 -0.3613 -0.3218  0.0253
 3088TIP3    H130679   5.636   5.161  15.770  0.0537 -0.7029  0.9177
 3088TIP3    H230680   5.541   5.090  15.677  0.5607  0.5408 -0.5546
 3089TIP3   OH230681   6.106   6.589   3.177 -0.2693  0.5664 -0.1616
 3089TIP3    H130682   6.013   6.607   3.190 -0.1137  0.4510  1.1361
 3089TIP3    H230683   6.141   6.580   3.265  0.8002 -0.2784 -0.6697
 3090TIP3   OH230684   3.183   3.722  13.605  0.5144  0.2318 -0.2537
 3090TIP3    H130685   3.170   3.791  13.669 -1.3558 -1.4579  1.2465
 3090TIP3    H230686   3.211   3.767  13.526 -0.3907  2.6543  0.7780
 3091TIP3   OH230687   5.904   2.517  10.620  0.0571 -0.4319 -0.2156
 3091TIP3    H130688   5.837   2.491  10.684 -1.1562  1.0847 -0.8583
 3091TIP3    H230689   5.928   2.605  10.646  2.0948 -1.1041  0.2266
 3092TIP3   OH230690   2.358   2.628   1.623 -0.4008  0.6716 -0.1832
 3092TIP3    H130691   2.287   2.572   1.592 -1.0520  0.7784  1.1016
 3092TIP3    H230692   2.405   2.652   1.543 -1.4381  0.1062 -0.9856
 3093TIP3   OH230693   0.618   2.085   0.182  0.6621  0.1639  0.1401
 3093TIP3    H130694   0.547   2.132   0.138  0.0244 -1.8811 -1.0969
 3093TIP3    H230695   0.583   2.063   0.269 -0.7267 -1.8589 -0.8769
 3094TIP3   OH230696   2.472   0.363   4.515 -0.4552 -0.0413  0.5370
 3094TIP3    H130697   2.425   0.435   4.558 -1.3114 -1.1375  1.4716
 3094TIP3    H230698   2.525   0.324   4.585 -0.1793 -0.4833  0.0903
 3095TIP3   OH230699   2.337   2.356  13.820  0.3527  0.7744 -0.0214
 3095TIP3    H130700   2.319   2.449  13.804 -1.3542  0.6664  1.1443
 3095TIP3    H230701   2.431   2.353  13.838  0.0443  2.6143  2.1540
 3096TIP3   OH230702   5.236   1.890   0.801  0.0731  0.5495 -0.6607
 3096TIP3    H130703   5.271   1.973   0.768 -0.1452  0.3845 -1.3020
 3096TIP3    H230704   5.142   1.894   0.784  0.3062 -0.5671 -2.2979
 3097TIP3   OH230705   1.351   4.911  12.262  0.0348  0.5537  0.9151
 3097TIP3    H130706   1.296   4.901  12.184  0.8824  0.3980  0.3357
 3097TIP3    H230707   1.437   4.882  12.235  0.2940  0.3084  1.9729
 3098TIP3   OH230708   0.395   5.913   1.391  0.0281 -0.0626 -0.1560
 3098TIP3    H130709   0.437   5.828   1.375 -0.8958 -0.4797 -0.3955
 3098TIP3    H230710   0.301   5.893   1.395 -0.1556  0.8692  0.3143
 3099TIP3   OH230711   5.549   1.573   2.362 -0.0774 -0.2024 -0.8968
 3099TIP3    H130712   5.581   1.627   2.434 -2.5881 -0.1429  0.2130
 3099TIP3    H230713   5.480   1.519   2.401 -0.3477 -1.3670 -2.8958
 3100TIP3   OH230714   2.455   6.768   4.614 -0.5978  0.3928  0.4387
 3100TIP3    H130715   2.393   6.719   4.559  0.6712 -1.2752  0.4485
 3100TIP3    H230716   2.494   6.832   4.554 -0.3970 -0.3402 -0.2300
 3101TIP3   OH230717   0.527   3.016   6.154 -0.0714  0.0921 -0.5340
 3101TIP3    H130718   0.547   3.089   6.211 -0.7258  0.7527 -1.1442
 3101TIP3    H230719   0.431   3.011   6.153 -0.0317 -1.0196 -0.1858
 3102TIP3   OH230720   4.037   0.113  14.155  0.2973 -0.4024 -0.2769
 3102TIP3    H130721   3.956   0.063  14.166  0.3899 -0.2988  1.0112
 3102TIP3    H230722   4.105   0.057  14.193  1.1648 -1.3682 -3.1652
 3103TIP3   OH230723   1.993   4.752   1.819 -0.6125 -0.0463  0.3251
 3103TIP3    H130724   1.902   4.740   1.847 -0.4676 -1.7295  0.1451
 3103TIP3    H230725   2.037   4.672   1.848  0.8511  0.8224  0.5451
 3104TIP3   OH230726   1.035   5.079  11.817 -1.0429  0.3746  0.2129
 3104TIP3    H130727   0.946   5.046  11.821 -0.8876 -0.2916 -1.5978
 3104TIP3    H230728   1.084   5.025  11.879 -1.0795 -1.9147 -1.6992
 3105TIP3   OH230729   5.379   1.164   1.958 -0.0225 -0.2785 -0.4707
 3105TIP3    H130730   5.415   1.253   1.958 -0.1423 -0.2301 -0.3839
 3105TIP3    H230731   5.300   1.170   2.012 -0.4099 -0.2843 -1.0353
 3106TIP3   OH230732   5.999   1.763   5.922  0.0444 -0.1545  0.3912
 3106TIP3    H130733   6.055   1.809   5.984  1.0385 -0.0942 -0.5209
 3106TIP3    H230734   5.928   1.824   5.903 -0.5065 -0.3480  1.7893
 3107TIP3   OH230735   4.773   5.604   0.939  0.2339 -0.3548  0.1003
 3107TIP3    H130736   4.783   5.605   0.844  1.4789 -1.4359  0.2011
 3107TIP3    H230737   4.766   5.696   0.964 -1.3291 -0.1214 -1.1530
 3108TIP3   OH230738   2.183   2.794   2.559  0.0364  0.0570 -0.1321
 3108TIP3    H130739   2.093   2.817   2.535  0.1311 -1.1320 -1.7170
 3108TIP3    H230740   2.179   2.700   2.577  0.2387  0.6797  3.3568
 3109TIP3   OH230741   2.237   4.473  15.759 -0.0619  0.3612  0.8414
 3109TIP3    H130742   2.149   4.489  15.724 -0.2942  2.2161  2.1913
 3109TIP3    H230743   2.222   4.459  15.853  1.0758  0.4179  1.0312
 3110TIP3   OH230744   5.555   5.491   1.166  0.2552  0.0383  0.0679
 3110TIP3    H130745   5.492   5.558   1.193 -0.1919  0.3376 -1.6515
 3110TIP3    H230746   5.514   5.449   1.090  1.3338 -0.9807  0.0345
 3111TIP3   OH230747   1.849   3.167  11.408 -0.3406 -0.5514  0.5911
 3111TIP3    H130748   1.856   3.076  11.378  1.2525 -0.4100  0.5136
 3111TIP3    H230749   1.848   3.161  11.503  2.1481 -0.5163  0.6472
 3112TIP3   OH230750   2.962   4.643  12.983 -0.4850  0.0433  0.3605
 3112TIP3    H130751   2.940   4.735  12.973 -0.0181  0.0465 -0.7519
 3112TIP3    H230752   2.904   4.611  13.052 -1.1343  1.0017  0.2613
 3113TIP3   OH230753   6.619   2.712   2.278 -0.8398  0.0152 -0.3179
 3113TIP3    H130754   6.585   2.625   2.300 -0.7584  0.0997  0.1382
 3113TIP3    H230755   6.600   2.765   2.355  2.0250 -0.3838  0.7269
 3114TIP3   OH230756   0.266   5.850   0.914  0.1249 -0.5024 -0.6133
 3114TIP3    H130757   0.179   5.809   0.921 -0.7933  1.3602 -0.9867
 3114TIP3    H230758   0.268   5.915   0.984  0.2146  1.2730 -2.2313
 3115TIP3   OH230759   1.096   3.695   4.551  1.0995  0.2865  0.4887
 3115TIP3    H130760   1.116   3.767   4.491  0.9112  0.9243  1.1917
 3115TIP3    H230761   1.000   3.691   4.552  1.0894 -1.7515 -1.6612
 3116TIP3   OH230762   4.030   5.980   0.235 -0.0478 -0.2864  0.3377
 3116TIP3    H130763   4.065   6.033   0.164 -0.4726  0.8292  0.9506
 3116TIP3    H230764   4.077   5.897   0.229  0.2356 -0.0360 -0.9651
 3117TIP3   OH230765   3.291   2.668   3.411 -0.6443 -0.0008 -0.7657
 3117TIP3    H130766   3.261   2.578   3.421  1.0867 -0.3641  1.3345
 3117TIP3    H230767   3.226   2.720   3.459 -0.6728 -0.2849 -0.4995
 3118TIP3   OH230768   0.677   3.212  15.448  0.1065 -1.0871 -0.4058
 3118TIP3    H130769   0.744   3.182  15.510 -1.0148 -1.1630  0.7857
 3118TIP3    H230770   0.663   3.304  15.470 -1.1218 -1.4129  0.2451
 3119TIP3   OH230771   4.757   3.865   1.463  0.6571  0.2666  0.4441
 3119TIP3    H130772   4.788   3.857   1.554  0.3969  0.9129  0.5923
 3119TIP3    H230773   4.763   3.776   1.428  1.6575  0.1873  0.8016
 3120TIP3   OH230774   3.788   1.408  13.988 -0.0116 -0.0091  0.5333
 3120TIP3    H130775   3.818   1.413  14.078  0.4190  1.4049  0.3146
 3120TIP3    H230776   3.838   1.335  13.950  4.0496  2.8950 -0.1114
 3121TIP3   OH230777   2.829   6.198  14.511 -0.2733  0.1494  0.0496
 3121TIP3    H130778   2.863   6.138  14.445  0.9539  1.5693 -0.6538
 3121TIP3    H230779   2.860   6.162  14.594 -1.0157 -1.1238 -0.2088
 3122TIP3   OH230780   6.354   1.847  11.522  1.0001 -0.6189  0.0734
 3122TIP3    H130781   6.383   1.938  11.518  2.1256 -0.9999 -0.3319
 3122TIP3    H230782   6.278   1.850  11.580  0.8464  0.6249 -0.1647
 3123TIP3   OH230783   1.542   1.489  15.776  0.4486  0.5032 -0.8357
 3123TIP3    H130784   1.524   1.420  15.839 -0.7079  0.9164 -0.6910
 3123TIP3    H230785   1.558   1.443  15.693 -2.2509  0.0910 -1.1970
 3124TIP3   OH230786   6.638   5.270   5.464  0.5799 -0.9596  0.2127
 3124TIP3    H130787   6.695   5.346   5.450  1.0334 -1.1479  1.0159
 3124TIP3    H230788   6.566   5.304   5.517 -0.9695 -0.3243 -2.1600
 3125TIP3   OH230789   4.101   3.528   3.151 -0.2858 -0.1804  0.0878
 3125TIP3    H130790   4.178   3.569   3.113 -0.2261  0.8773  1.3154
 3125TIP3    H230791   4.107   3.547   3.245 -1.5422 -0.8957  0.3318
 3126TIP3   OH230792   2.421   0.580   1.875 -0.2708 -0.5238 -0.0637
 3126TIP3    H130793   2.489   0.642   1.848  0.1297 -0.7890  0.3302
 3126TIP3    H230794   2.458   0.494   1.854 -1.9552 -0.5655 -3.2395
 3127TIP3   OH230795   5.419   1.596  13.443  0.3999  0.2352  0.5438
 3127TIP3    H130796   5.385   1.509  13.464 -2.5705  0.7598 -1.7854
 3127TIP3    H230797   5.470   1.583  13.363  0.9810  0.4425  0.8765
 3128TIP3   OH230798   5.666   4.791   4.338  0.2747 -0.2930  0.3370
 3128TIP3    H130799   5.697   4.877   4.365  0.1478  0.2477 -1.2220
 3128TIP3    H230800   5.727   4.730   4.380  2.2173  0.6630 -1.0096
 3129TIP3   OH230801   5.446   0.360   4.370  0.2009  0.2080 -0.2139
 3129TIP3    H130802   5.415   0.279   4.408  2.7794 -0.9815 -0.5186
 3129TIP3    H230803   5.454   0.341   4.276  3.1153 -0.0228  0.0277
 3130TIP3   OH230804   2.983   6.124   0.324  0.1360 -0.3397 -0.6146
 3130TIP3    H130805   2.937   6.121   0.240  0.9594 -0.1521 -1.0751
 3130TIP3    H230806   2.995   6.032   0.348  0.8199 -0.4146 -1.2179
 3131TIP3   OH230807   0.846   4.644  14.459 -0.2238  0.1728 -0.0599
 3131TIP3    H130808   0.848   4.650  14.363 -0.9132 -0.2741 -0.1047
 3131TIP3    H230809   0.932   4.676  14.487  0.1187 -0.0429 -0.8494
 3132TIP3   OH230810   2.781   3.336   0.199 -0.2902 -0.1203  0.9192
 3132TIP3    H130811   2.784   3.268   0.131 -1.3614 -0.2575  1.0033
 3132TIP3    H230812   2.689   3.339   0.226  0.0800  0.1162  2.1757
 3133TIP3   OH230813   0.599   1.016  14.067  0.2091 -0.0553 -0.3382
 3133TIP3    H130814   0.525   1.010  14.006  0.0076  1.5334 -0.2818
 3133TIP3    H230815   0.612   1.110  14.078  0.3203 -0.3304  1.9947
 3134TIP3   OH230816   4.659   3.825  17.167  0.0258 -0.3847  0.4702
 3134TIP3    H130817   4.686   3.735  17.183  1.4735 -0.0061  0.1533
 3134TIP3    H230818   4.569   3.817  17.133 -0.1772 -1.6379  1.2775
 3135TIP3   OH230819   0.434   2.310  11.957 -0.2547  0.2270 -0.0473
 3135TIP3    H130820   0.480   2.246  11.902  0.4880  1.5680 -1.0195
 3135TIP3    H230821   0.457   2.395  11.918 -3.2689  0.9471 -0.3245
 3136TIP3   OH230822   1.047   5.509   0.143  0.3673 -0.2682 -0.2370
 3136TIP3    H130823   1.141   5.524   0.138  0.2192 -0.0935 -3.2122
 3136TIP3    H230824   1.033   5.427   0.096 -1.0904  0.1891 -0.6284
 3137TIP3   OH230825   4.947   1.599   4.545  0.5761  0.2043  0.3865
 3137TIP3    H130826   4.900   1.653   4.609 -0.8115 -0.9658  0.3885
 3137TIP3    H230827   4.881   1.577   4.479  1.7418  0.5382 -0.9076
 3138TIP3   OH230828   2.504   5.538  13.045 -0.0386  0.1254  0.3569
 3138TIP3    H130829   2.545   5.576  12.967  0.4300  0.7127  0.8839
 3138TIP3    H230830   2.413   5.566  13.041  0.2291  1.0442  0.5679
 3139TIP3   OH230831   1.229   2.448  14.132  0.3582  0.1063  0.7178
 3139TIP3    H130832   1.169   2.514  14.097 -0.1566  0.1319  1.6088
 3139TIP3    H230833   1.171   2.384  14.173  0.8228 -1.2395 -0.6980
 3140TIP3   OH230834   1.470   5.254  13.555 -0.0574 -0.2519  0.2423
 3140TIP3    H130835   1.462   5.212  13.470 -0.0540  0.0149  0.1102
 3140TIP3    H230836   1.393   5.311  13.561 -0.4714 -0.8561  0.7459
 3141TIP3   OH230837   1.684   1.018   0.276  0.6252  0.0979 -0.4363
 3141TIP3    H130838   1.664   1.053   0.189  0.3111 -0.2975 -0.5238
 3141TIP3    H230839   1.643   0.931   0.277  0.5382  0.1456  0.1421
 3142TIP3   OH230840   4.332   5.589   3.617 -0.1951 -0.5860 -0.0819
 3142TIP3    H130841   4.300   5.577   3.527 -1.0252 -0.9592  0.2561
 3142TIP3    H230842   4.255   5.620   3.665  0.3211 -0.1100  0.4398
 3143TIP3   OH230843   6.430   5.496  14.412 -0.2135 -0.7800 -0.3498
 3143TIP3    H130844   6.476   5.442  14.348  1.6638 -1.0601  1.1593
 3143TIP3    H230845   6.443   5.450  14.495 -1.9528 -0.0419  0.3444
 3144TIP3   OH230846   0.557   6.409   4.732  0.1345  0.4619 -0.2551
 3144TIP3    H130847   0.536   6.494   4.696 -1.5737 -0.3014 -1.1213
 3144TIP3    H230848   0.613   6.367   4.666 -2.2319 -0.5735 -1.6926
 3145TIP3   OH230849   1.061   4.721  12.636  0.3862  0.3300 -0.0259
 3145TIP3    H130850   1.074   4.626  12.643  0.4376  0.4154  1.1310
 3145TIP3    H230851   1.145   4.755  12.605  1.5921  0.3888  3.1243
 3146TIP3   OH230852   4.592   0.247   2.987 -0.9551 -0.3525 -0.2523
 3146TIP3    H130853   4.591   0.334   3.028  1.3285 -0.7020  0.6411
 3146TIP3    H230854   4.594   0.265   2.893 -0.1278  0.5880 -0.0706
 3147TIP3   OH230855   4.380   6.161   4.693 -0.1535 -0.2752 -0.0486
 3147TIP3    H130856   4.427   6.141   4.774 -0.0535  1.7814  0.4330
 3147TIP3    H230857   4.388   6.256   4.684 -5.2238  0.3281  0.6629
 3148TIP3   OH230858   3.591   2.887   5.214 -0.1974  0.3322  0.0423
 3148TIP3    H130859   3.665   2.925   5.262 -0.1768 -0.6405  0.7877
 3148TIP3    H230860   3.515   2.905   5.270 -0.6170  1.7295 -0.9316
 3149TIP3   OH230861   4.112   2.544   0.704 -0.4302  0.1367  0.2598
 3149TIP3    H130862   4.088   2.452   0.719 -0.4809  0.0935 -0.0956
 3149TIP3    H230863   4.031   2.592   0.722  0.0349  0.2714  2.1325
 3150TIP3   OH230864   4.459   2.853   0.015 -0.0776  0.2451  0.2762
 3150TIP3    H130865   4.487   2.813  -0.067 -0.2373  1.4625 -0.3884
 3150TIP3    H230866   4.523   2.923   0.031  1.2244 -1.3671  2.3341
 3151TIP3   OH230867   5.219   0.824  16.816 -0.4051 -0.4221 -0.5633
 3151TIP3    H130868   5.188   0.739  16.785 -0.0478 -0.5991 -0.4410
 3151TIP3    H230869   5.157   0.887  16.781 -0.8579 -0.7673 -0.3811
 3152TIP3   OH230870   0.140   2.687  11.632  0.0208  0.1632 -0.3435
 3152TIP3    H130871   0.119   2.694  11.725  0.5291 -0.4317 -0.1802
 3152TIP3    H230872   0.103   2.602  11.606  0.4246  0.0504 -0.5436
 3153TIP3   OH230873   0.954   2.648   3.554 -0.4356  0.3209 -0.0093
 3153TIP3    H130874   0.954   2.684   3.643  1.8537  0.5305 -0.0644
 3153TIP3    H230875   1.019   2.701   3.507  2.1465 -3.0456 -0.4286
 3154TIP3   OH230876   1.604   2.446   1.188 -0.1025  0.2974  0.5377
 3154TIP3    H130877   1.582   2.504   1.260 -0.3511  0.9389 -0.0467
 3154TIP3    H230878   1.671   2.387   1.224  2.3697  2.8456  0.3166
 3155TIP3   OH230879   3.483   4.240   4.563  0.3603 -0.0497  0.0506
 3155TIP3    H130880   3.562   4.211   4.516  0.0107 -0.3034 -0.3899
 3155TIP3    H230881   3.442   4.303   4.504 -1.2785 -2.0234 -1.0158
 3156TIP3   OH230882   0.698   4.985   5.018 -0.5090  0.4377 -0.1322
 3156TIP3    H130883   0.746   5.065   4.994  1.1129 -0.3678  0.3468
 3156TIP3    H230884   0.624   4.984   4.958 -1.0345  2.7391  0.4067
 3157TIP3   OH230885   0.507   1.346   4.889 -0.0601  0.5540 -0.3217
 3157TIP3    H130886   0.478   1.419   4.836 -0.1960  0.2547 -0.6607
 3157TIP3    H230887   0.491   1.374   4.979 -1.2964  0.4386 -0.4975
 3158TIP3   OH230888   4.378   2.128   5.094 -0.1747  0.3373  0.0948
 3158TIP3    H130889   4.381   2.051   5.151 -0.7317  0.6079  0.4953
 3158TIP3    H230890   4.300   2.175   5.122 -0.5899  0.3473 -1.0628
 3159TIP3   OH230891   2.889   1.707   0.728 -0.2427  0.3404 -0.3876
 3159TIP3    H130892   2.965   1.679   0.778 -0.2864  0.7828 -0.0627
 3159TIP3    H230893   2.926   1.749   0.650 -0.1518  0.5375 -0.2400
 3160TIP3   OH230894   2.408   3.322  15.539 -0.1116  0.0871  0.3506
 3160TIP3    H130895   2.319   3.344  15.566 -0.5511  2.0411 -2.4949
 3160TIP3    H230896   2.446   3.405  15.511  1.5863 -1.1953 -1.2881
 3161TIP3   OH230897   5.099   0.190   4.330 -0.5493 -0.4076 -0.3695
 3161TIP3    H130898   5.137   0.156   4.250 -0.6691  2.2297 -1.6099
 3161TIP3    H230899   5.012   0.221   4.305 -1.2034 -0.9936  1.1284
 3162TIP3   OH230900   1.359   3.131   0.567 -0.7007  0.2007 -0.0407
 3162TIP3    H130901   1.353   3.196   0.637 -2.0110 -0.2998  0.3321
 3162TIP3    H230902   1.269   3.103   0.553 -0.1877 -1.2414 -0.4872
 3163TIP3   OH230903   3.958   0.412   1.839 -0.5927  0.0311 -0.0360
 3163TIP3    H130904   3.866   0.417   1.811 -0.3914 -0.0324 -0.7260
 3163TIP3    H230905   3.957   0.439   1.931 -1.2362  0.5292 -0.1833
 3164TIP3   OH230906   1.761   1.783   4.981  0.3496 -0.1289  0.2960
 3164TIP3    H130907   1.834   1.765   4.920 -1.4755 -0.5665 -1.8333
 3164TIP3    H230908   1.732   1.872   4.958  1.7713  1.0603  2.8468
 3165TIP3   OH230909   2.823   2.009  10.970  0.4706  0.0049  0.1348
 3165TIP3    H130910   2.858   2.094  10.995 -0.0028  0.0064  0.8102
 3165TIP3    H230911   2.729   2.016  10.984  0.4306 -0.6494  0.2483
 3166TIP3   OH230912   4.877   6.771  17.147  0.0821  0.0081 -0.0381
 3166TIP3    H130913   4.947   6.802  17.204  1.4793 -3.1184  0.0923
 3166TIP3    H230914   4.797   6.787  17.197  1.0191  0.1919  1.4507
 3167TIP3   OH230915   5.259   5.675   3.224 -0.6852  0.1157 -0.2219
 3167TIP3    H130916   5.353   5.685   3.236 -0.6848 -0.0516 -0.0841
 3167TIP3    H230917   5.220   5.735   3.288 -0.7260 -3.1736  3.0056
 3168TIP3   OH230918   3.654   2.472  13.860 -0.7443  0.3371 -0.2174
 3168TIP3    H130919   3.636   2.443  13.770 -0.9081 -0.4951  0.0748
 3168TIP3    H230920   3.587   2.429  13.912 -0.0540  0.0431  0.4279
 3169TIP3   OH230921   1.085   5.066   1.516  0.3573 -0.0883 -0.2094
 3169TIP3    H130922   0.991   5.070   1.495  0.4165 -1.9315 -0.9235
 3169TIP3    H230923   1.114   4.982   1.480  2.0573 -0.0184  0.9421
 3170TIP3   OH230924   1.380   1.578  12.983 -0.2124  0.2453  0.2958
 3170TIP3    H130925   1.305   1.634  13.000  0.8107  1.6562  0.2909
 3170TIP3    H230926   1.404   1.597  12.892  0.2352 -0.0885  0.3420
 3171TIP3   OH230927   4.556   6.517  16.093  0.0750  0.3840 -0.8452
 3171TIP3    H130928   4.492   6.461  16.049  0.4736 -0.7703  0.0094
 3171TIP3    H230929   4.508   6.597  16.115 -0.9795 -0.3298 -0.5363
 3172TIP3   OH230930   5.331   5.215  14.598  0.2831  0.1774  0.7315
 3172TIP3    H130931   5.372   5.151  14.657 -0.0576  1.1003  2.0001
 3172TIP3    H230932   5.249   5.174  14.571  1.1052 -0.8531 -0.2506
 3173TIP3   OH230933   0.644   6.667   5.620  0.2373  0.0993 -0.2737
 3173TIP3    H130934   0.646   6.657   5.716  0.8997  1.6531 -0.1204
 3173TIP3    H230935   0.662   6.760   5.605  1.7521 -0.4494 -1.9875
 3174TIP3   OH230936   4.661   4.810  15.627  0.2946 -0.2861  0.7844
 3174TIP3    H130937   4.669   4.828  15.533 -1.8011 -1.5177  0.3286
 3174TIP3    H230938   4.650   4.896  15.667 -0.7117  0.1344 -0.3498
 3175TIP3   OH230939   6.358   5.154   0.509  0.4824  0.1376 -0.0779
 3175TIP3    H130940   6.431   5.162   0.447 -0.3167 -1.4040 -1.2610
 3175TIP3    H230941   6.371   5.069   0.551  0.4922  0.7595  1.2053
 3176TIP3   OH230942   4.901   1.323   4.612  0.9496  0.1281 -0.0515
 3176TIP3    H130943   4.875   1.258   4.546 -1.2583  0.0669  0.8180
 3176TIP3    H230944   4.919   1.402   4.562 -0.4378  0.0029 -0.7802
 3177TIP3   OH230945   3.529   2.145  11.758 -0.1774  0.5710 -0.3426
 3177TIP3    H130946   3.527   2.225  11.811 -0.7070 -0.0831  0.6407
 3177TIP3    H230947   3.440   2.137  11.722 -0.2463  0.2083 -0.1000
 3178TIP3   OH230948   6.011   4.636   4.682  0.0544 -0.9535  0.6868
 3178TIP3    H130949   6.077   4.591   4.630 -0.2474 -0.9095  0.2648
 3178TIP3    H230950   6.059   4.670   4.758  0.6775 -0.2041 -0.0412
 3179TIP3   OH230951   5.793   1.006  13.801 -0.1883 -0.7806  0.4325
 3179TIP3    H130952   5.775   0.918  13.835 -0.6252 -1.5175 -1.6070
 3179TIP3    H230953   5.761   1.065  13.869 -2.3558 -2.1678  0.6597
 3180TIP3   OH230954   0.737   6.509  15.513  0.0498  0.3937 -0.2597
 3180TIP3    H130955   0.722   6.429  15.563 -0.3708 -1.0950 -2.6563
 3180TIP3    H230956   0.654   6.557  15.517 -0.3581 -0.2843 -0.4704
 3181TIP3   OH230957   0.133   4.436   1.337  0.3706  0.8193 -0.5227
 3181TIP3    H130958   0.102   4.405   1.253  0.3631  2.3578 -1.1000
 3181TIP3    H230959   0.211   4.488   1.317  1.4502 -0.3112  0.5962
 3182TIP3   OH230960   2.392   2.611  11.737  0.3582 -0.2926  0.5723
 3182TIP3    H130961   2.367   2.651  11.654  1.1247 -0.6636  0.1622
 3182TIP3    H230962   2.336   2.654  11.802 -0.3460 -0.1035 -0.1486
 3183TIP3   OH230963   3.729   6.640   3.511 -0.1377  0.1428 -0.7012
 3183TIP3    H130964   3.686   6.701   3.570 -1.9418 -0.9145 -0.8738
 3183TIP3    H230965   3.729   6.684   3.426 -1.9658 -0.3283 -0.9543
 3184TIP3   OH230966   1.040   5.830   5.964 -0.1498  0.1512 -0.4305
 3184TIP3    H130967   1.117   5.789   5.923 -0.8823 -1.8329  0.1105
 3184TIP3    H230968   1.076   5.903   6.014  1.6031 -1.6692  1.0574
 3185TIP3   OH230969   4.409   5.846   5.583  0.2302  0.0144 -0.4057
 3185TIP3    H130970   4.412   5.899   5.502  0.6244  0.3515 -0.1703
 3185TIP3    H230971   4.322   5.863   5.619  0.6113  1.0722  0.0429
 3186TIP3   OH230972   6.704   4.870  15.793 -0.1240 -0.1816 -0.0735
 3186TIP3    H130973   6.635   4.808  15.818 -0.3186 -0.0807 -0.3538
 3186TIP3    H230974   6.753   4.885  15.873  0.6341 -1.5886 -0.2586
 3187TIP3   OH230975   4.499   2.162  15.079  0.2284 -0.1769 -0.4597
 3187TIP3    H130976   4.510   2.222  15.154  1.1253 -0.4015 -0.4101
 3187TIP3    H230977   4.568   2.187  15.018 -0.3036 -0.2121 -1.0698
 3188TIP3   OH230978   3.130   1.994   0.725  0.1735  0.2759  0.0160
 3188TIP3    H130979   3.223   2.005   0.704 -0.2737 -0.3827 -2.4830
 3188TIP3    H230980   3.098   2.083   0.738  0.0045  0.9700 -4.5027
 3189TIP3   OH230981   3.269   4.578  16.722 -0.4287  0.3411  0.1502
 3189TIP3    H130982   3.191   4.561  16.669  0.5124 -1.3314 -0.7412
 3189TIP3    H230983   3.290   4.669  16.704 -0.2399 -0.1355 -2.2545
 3190TIP3   OH230984   3.845   6.595  13.888  0.0476 -0.1952 -0.2134
 3190TIP3    H130985   3.922   6.649  13.871 -0.2306  0.3636  0.3040
 3190TIP3    H230986   3.770   6.651  13.867 -0.2633 -0.0292  1.3143
 3191TIP3   OH230987   2.743   6.045   1.434 -0.2362 -0.0533  0.5060
 3191TIP3    H130988   2.795   6.014   1.508  1.7353  0.7836 -0.4557
 3191TIP3    H230989   2.711   5.966   1.391  0.6760 -0.6177  0.8564
 3192TIP3   OH230990   2.810   2.809   5.196 -0.4379 -0.8985  0.2762
 3192TIP3    H130991   2.854   2.800   5.280 -1.7678 -0.6015  1.0047
 3192TIP3    H230992   2.797   2.719   5.166 -0.3852 -1.0087  0.5913
 3193TIP3   OH230993   2.839   2.151   1.861  0.0011 -0.1232  0.3446
 3193TIP3    H130994   2.747   2.172   1.847  0.5681  1.7614 -0.8189
 3193TIP3    H230995   2.881   2.236   1.875  1.3141 -1.0809  2.5330
 3194TIP3   OH230996   3.852   0.896  11.124 -0.2732  0.0605 -0.1586
 3194TIP3    H130997   3.788   0.830  11.155  0.0666 -0.2159 -0.0419
 3194TIP3    H230998   3.866   0.874  11.032  1.8386 -1.6765  0.5429
 3195TIP3   OH230999   4.211   1.290   1.014  0.0105  0.0740  0.1511
 3195TIP3    H131000   4.215   1.195   1.004  1.4187  0.0922  0.4728
 3195TIP3    H231001   4.241   1.306   1.103 -1.6299  0.7312  0.6080
 3196TIP3   OH231002   1.327   2.017   4.433  0.1414  0.6575 -0.3961
 3196TIP3    H131003   1.352   2.068   4.356 -0.7575 -0.0257 -1.1531
 3196TIP3    H231004   1.382   2.051   4.504  1.6531  0.6387 -1.5427
 3197TIP3   OH231005   2.882   1.658  16.292 -0.0782 -0.2455 -0.3788
 3197TIP3    H131006   2.886   1.690  16.382  0.2612  0.4217 -0.6286
 3197TIP3    H231007   2.964   1.611  16.278  0.3832  0.6513 -0.7140
 3198TIP3   OH231008   1.030   3.956   2.466 -0.3034 -0.3064  0.8132
 3198TIP3    H131009   1.062   3.905   2.391 -1.9729  2.2748 -1.7278
 3198TIP3    H231010   1.110   3.985   2.510  0.9018  2.0653 -2.7142
 3199TIP3   OH231011   0.850   2.395  12.959 -0.1693  0.3342  0.2290
 3199TIP3    H131012   0.823   2.424  13.046  0.4202  1.3873  0.0658
 3199TIP3    H231013   0.930   2.345  12.974  0.3968  1.2126  0.2226
 3200TIP3   OH231014   5.433   0.969  13.092 -0.0763 -0.2794 -0.8686
 3200TIP3    H131015   5.528   0.961  13.086  0.1579  0.7380  1.1031
 3200TIP3    H231016   5.417   1.063  13.092 -1.0067 -0.4328 -0.2028
 3201TIP3   OH231017   6.489   3.153  14.516  0.1030 -0.0428 -0.0549
 3201TIP3    H131018   6.448   3.237  14.494 -1.9117 -0.7061  1.0402
 3201TIP3    H231019   6.449   3.090  14.456  0.9733 -0.3652 -0.2992
 3202TIP3   OH231020   5.200   4.002   5.152  0.1156 -0.4711  0.4386
 3202TIP3    H131021   5.289   4.011   5.121 -0.3222 -0.1294 -0.7354
 3202TIP3    H231022   5.208   3.990   5.247  1.4598 -1.5567  0.1945
 3203TIP3   OH231023   5.025   5.625  13.075  0.4521 -0.4988 -0.0229
 3203TIP3    H131024   4.965   5.693  13.045  0.5409  0.5573  2.1087
 3203TIP3    H231025   5.083   5.609  13.000 -0.1590  1.0988 -0.8476
 3204TIP3   OH231026   3.180   5.189   4.214  0.1017  0.6765  0.6916
 3204TIP3    H131027   3.270   5.221   4.203 -0.3984  1.8417 -0.1622
 3204TIP3    H231028   3.146   5.185   4.125 -0.8687  0.7846  1.0522
 3205TIP3   OH231029   4.576   1.658  13.753 -0.6522  0.5465 -0.1744
 3205TIP3    H131030   4.527   1.615  13.683 -0.8794  0.3110  0.1237
 3205TIP3    H231031   4.529   1.634  13.833  0.1551  0.0228  0.1514
 3206TIP3   OH231032   1.195   0.089  13.141  0.2257 -0.1061 -0.2203
 3206TIP3    H131033   1.241   0.153  13.087 -0.4927  0.3106 -0.3370
 3206TIP3    H231034   1.213   0.005  13.098  0.9858  0.0384 -0.1884
 3207TIP3   OH231035   3.935   1.783  13.540 -0.4116 -0.7113 -0.5292
 3207TIP3    H131036   3.996   1.794  13.468 -1.1608 -0.2655 -1.1063
 3207TIP3    H231037   3.922   1.872  13.574  0.0903 -0.9489  0.2758
 3208TIP3   OH231038   1.072   3.928   3.635 -0.2248  0.2056  0.0192
 3208TIP3    H131039   1.067   3.849   3.689  0.1173 -0.3833 -0.7958
 3208TIP3    H231040   1.017   3.992   3.681  0.4903 -0.1108  1.3470
 3209TIP3   OH231041   2.316   4.743   2.732 -0.0013 -0.6300  0.4848
 3209TIP3    H131042   2.394   4.789   2.700 -1.1184  0.4200 -0.7630
 3209TIP3    H231043   2.301   4.779   2.819  0.2571 -0.0099  0.2776
 3210TIP3   OH231044   1.238   2.248   3.350 -0.3893  0.1701 -0.3840
 3210TIP3    H131045   1.332   2.229   3.346 -0.5962 -0.6126 -1.7870
 3210TIP3    H231046   1.232   2.332   3.395  1.0223  0.4600 -0.7307
 3211TIP3   OH231047   6.720   4.111   3.488 -0.3887 -0.1459  0.0691
 3211TIP3    H131048   6.698   4.197   3.523  0.4638  0.0280  0.1889
 3211TIP3    H231049   6.772   4.070   3.557  0.0211 -0.3862 -0.3795
 3212TIP3   OH231050   0.121   0.198   4.973 -0.1144  0.5614 -0.5556
 3212TIP3    H131051   0.135   0.244   5.056 -1.7352  0.9390 -0.4618
 3212TIP3    H231052   0.026   0.202   4.960  0.0521 -0.1375 -2.0668
 3213TIP3   OH231053   5.929   4.962  16.603 -0.5279  0.5924  0.0554
 3213TIP3    H131054   5.992   4.899  16.639 -1.3310  0.0629  0.5408
 3213TIP3    H231055   5.904   4.924  16.519 -0.7414  0.4466  0.1861
 3214TIP3   OH231056   3.529   4.797  13.839 -0.1034 -0.1068  0.5162
 3214TIP3    H131057   3.596   4.850  13.884 -0.7864  0.1177  1.2743
 3214TIP3    H231058   3.477   4.861  13.791  1.0553 -0.4117 -1.1837
 3215TIP3   OH231059   6.263   5.935  11.867  0.5487  0.0160  0.2714
 3215TIP3    H131060   6.196   5.905  11.807  0.3566  0.4935  0.2427
 3215TIP3    H231061   6.341   5.946  11.813  0.3582  0.5097  0.0985
 3216TIP3   OH231062   3.296   0.461   3.754  0.0127 -0.4218  0.3364
 3216TIP3    H131063   3.345   0.541   3.776  0.0403 -0.8477  1.9022
 3216TIP3    H231064   3.270   0.473   3.662  0.8206  0.9651  0.2731
 3217TIP3   OH231065   5.553   6.747  14.616  0.2742 -0.1111  0.5143
 3217TIP3    H131066   5.539   6.652  14.614  0.8679 -0.1894 -0.1516
 3217TIP3    H231067   5.646   6.757  14.636  0.4925  0.3082 -0.6832
 3218TIP3   OH231068   4.001   6.777  12.040  0.4529 -0.1466 -0.6610
 3218TIP3    H131069   4.034   6.691  12.013 -0.6551 -0.0378 -2.4647
 3218TIP3    H231070   3.938   6.801  11.972 -3.2511 -0.3168  2.5363
 3219TIP3   OH231071   6.603   5.091  12.919  0.0716 -0.0647  0.2025
 3219TIP3    H131072   6.693   5.076  12.889 -0.5609 -0.6862 -1.4119
 3219TIP3    H231073   6.585   5.182  12.895 -0.3637 -0.5009 -1.1521
 3220TIP3   OH231074   1.451   4.350   3.845 -0.7223 -0.1732 -0.1279
 3220TIP3    H131075   1.504   4.280   3.883 -0.5318  0.7491  1.3421
 3220TIP3    H231076   1.368   4.308   3.824 -0.1202 -1.1618 -0.5646
 3221TIP3   OH231077   1.951   3.866  16.935  0.4047 -0.2318  0.3057
 3221TIP3    H131078   1.868   3.913  16.939  0.8384  0.5476  0.4159
 3221TIP3    H231079   1.938   3.798  16.869  0.1292  0.8117 -0.7459
 3222TIP3   OH231080   4.794   3.036  14.968 -0.2137  0.0105 -0.2086
 3222TIP3    H131081   4.721   3.087  15.004 -1.5901 -0.6025 -2.0593
 3222TIP3    H231082   4.872   3.081  14.999 -1.3901  1.6867  0.4063
 3223TIP3   OH231083   1.094   5.639  16.428  0.2169 -0.6016  0.2513
 3223TIP3    H131084   1.094   5.720  16.478  0.2716  0.4504 -1.4392
 3223TIP3    H231085   1.130   5.663  16.343 -0.6006 -2.2196 -0.5696
 3224TIP3   OH231086   1.819   0.355  13.965  0.5645 -0.2165 -0.4647
 3224TIP3    H131087   1.858   0.380  13.881 -0.4557  1.9745 -0.3195
 3224TIP3    H231088   1.889   0.367  14.029  1.6568 -2.8658 -1.0807
 3225TIP3   OH231089   4.659   1.919   0.743 -0.6787 -1.1999 -0.5831
 3225TIP3    H131090   4.640   1.840   0.794 -1.2528  0.0645  1.2372
 3225TIP3    H231091   4.587   1.925   0.680 -1.0859 -1.6845 -0.1696
 3226TIP3   OH231092   0.149   5.293   1.280  0.1592  0.4793  0.1109
 3226TIP3    H131093   0.056   5.287   1.258 -0.1926  1.0293  1.3670
 3226TIP3    H231094   0.188   5.343   1.209 -0.3490 -0.5057 -0.8695
 3227TIP3   OH231095   6.475   4.505   1.677 -0.2454  0.0840 -0.3163
 3227TIP3    H131096   6.407   4.502   1.744  0.9981 -0.9688  0.9439
 3227TIP3    H231097   6.555   4.482   1.724  0.6257 -0.8595 -2.2087
 3228TIP3   OH231098   3.285   2.545   1.377  0.4391  0.8617 -0.2505
 3228TIP3    H131099   3.357   2.507   1.327 -0.0640  1.0463 -1.1256
 3228TIP3    H231100   3.325   2.574   1.459  1.5508  1.8781 -1.1450
 3229TIP3   OH231101   5.879   3.295  11.774  0.0843  0.2948  0.8489
 3229TIP3    H131102   5.881   3.276  11.681  1.0249 -2.5094  1.4012
 3229TIP3    H231103   5.941   3.367  11.786  1.5246 -0.7347 -0.3895
 3230TIP3   OH231104   4.241   6.405   2.371  0.1131  0.0312 -0.2462
 3230TIP3    H131105   4.174   6.436   2.310  1.0753 -0.1148 -1.3985
 3230TIP3    H231106   4.231   6.310   2.373  0.4438 -0.0133 -0.6161
 3231TIP3   OH231107   6.736   2.158   4.850 -0.4329 -0.2745  0.3423
 3231TIP3    H131108   6.738   2.205   4.933 -0.1840  2.1035 -0.9741
 3231TIP3    H231109   6.694   2.219   4.789 -0.0319 -1.7350 -1.4307
 3232TIP3   OH231110   4.738   1.048  11.473  0.1046 -0.1582  0.5329
 3232TIP3    H131111   4.823   1.092  11.476  0.3446 -0.6574  1.2985
 3232TIP3    H231112   4.741   0.996  11.393  0.2295  0.4033  0.1700
 3233TIP3   OH231113   0.470   5.268  13.176  0.1141  0.3638  0.6992
 3233TIP3    H131114   0.425   5.350  13.198  0.8256  0.7691  0.6651
 3233TIP3    H231115   0.432   5.203  13.235 -2.3109  0.1418 -0.9971
 3234TIP3   OH231116   5.670   4.497  16.940  0.4802  0.0824 -0.0449
 3234TIP3    H131117   5.666   4.411  16.899  0.8102  0.1699 -0.2554
 3234TIP3    H231118   5.761   4.525  16.931  0.3776  0.4496  0.0346
 3235TIP3   OH231119   4.133   6.678  13.257 -0.6028  0.4650  0.5445
 3235TIP3    H131120   4.209   6.649  13.205 -0.9724 -1.4934  1.0638
 3235TIP3    H231121   4.128   6.773  13.241  1.1152  0.3906 -0.5881
 3236TIP3   OH231122   5.349   4.975  12.080 -0.4661 -0.8086  0.4271
 3236TIP3    H131123   5.300   4.958  11.999  0.0330  0.1556 -0.0903
 3236TIP3    H231124   5.286   4.960  12.150 -0.6581 -2.5536 -0.0882
 3237TIP3   OH231125   2.838   3.716  12.943  0.1624 -0.1363  0.3333
 3237TIP3    H131126   2.889   3.663  13.004  1.0285  0.9561  0.5794
 3237TIP3    H231127   2.903   3.746  12.879 -0.3987  0.2839 -0.0314
 3238TIP3   OH231128   1.183   4.066   1.716  0.0931  0.2507  0.0013
 3238TIP3    H131129   1.107   4.017   1.685  1.3700 -0.0486 -2.7939
 3238TIP3    H231130   1.214   4.017   1.792 -0.5301 -1.4983 -0.8505
 3239TIP3   OH231131   2.363   1.593  15.327  0.2077  0.3445 -0.0664
 3239TIP3    H131132   2.431   1.535  15.294 -0.0663  0.2144 -0.4033
 3239TIP3    H231133   2.397   1.624  15.411  1.0138  0.8683 -0.5708
 3240TIP3   OH231134   5.978   0.402   2.644 -0.5741 -0.1743  0.0331
 3240TIP3    H131135   6.028   0.324   2.621 -3.0023 -1.5269 -0.8530
 3240TIP3    H231136   6.031   0.446   2.710  0.7750 -2.6817  0.6942
 3241TIP3   OH231137   3.785   4.713   2.946 -0.3384  0.3604  0.3496
 3241TIP3    H131138   3.736   4.631   2.938 -3.6080  2.1194  1.2227
 3241TIP3    H231139   3.822   4.711   3.034 -0.0369 -0.3344  0.2130
 3242TIP3   OH231140   6.449   0.806   1.884  0.1120 -0.3700  0.0104
 3242TIP3    H131141   6.417   0.765   1.804  2.1738  1.4143 -1.7983
 3242TIP3    H231142   6.449   0.900   1.865  1.7168  0.0039  1.6678
 3243TIP3   OH231143   6.608   1.557  16.899  0.0826 -0.3358  0.0869
 3243TIP3    H131144   6.678   1.534  16.960 -0.8198 -1.6865  0.6182
 3243TIP3    H231145   6.568   1.473  16.875 -0.8730  0.3594 -0.7989
 3244TIP3   OH231146   0.314   0.138   5.781 -0.4471  0.5068 -0.0114
 3244TIP3    H131147   0.253   0.204   5.814 -1.4205 -0.0567 -0.6459
 3244TIP3    H231148   0.367   0.184   5.716 -1.8118  0.4290 -1.1957
 3245TIP3   OH231149   6.263   2.039   1.290  0.1097 -0.2388  0.4107
 3245TIP3    H131150   6.334   2.058   1.350 -0.2714  1.6322  0.2920
 3245TIP3    H231151   6.188   2.087   1.324 -0.8753 -1.4633  0.0310
 3246TIP3   OH231152   0.344   4.471  11.021  0.1460  0.4996  0.1291
 3246TIP3    H131153   0.404   4.432  10.957 -2.4941 -0.8340 -1.6392
 3246TIP3    H231154   0.363   4.426  11.103 -0.4433 -2.1160 -1.1076
 3247TIP3   OH231155   3.466   6.001  13.439  0.1851  0.0186 -0.1195
 3247TIP3    H131156   3.474   5.912  13.404 -1.4242 -1.1018  2.2337
 3247TIP3    H231157   3.532   6.005  13.509 -1.7236 -0.3471  1.7394
 3248TIP3   OH231158   6.381   5.921  14.488 -0.2750  0.1069 -0.2426
 3248TIP3    H131159   6.422   6.007  14.498 -1.2284  0.5406 -0.0086
 3248TIP3    H231160   6.452   5.859  14.500  0.0983  0.8166  1.2601
 3249TIP3   OH231161   4.118   5.721   0.148  0.1021  0.2394 -0.6555
 3249TIP3    H131162   4.164   5.722   0.064  0.7297 -2.0639 -0.3719
 3249TIP3    H231163   4.186   5.701   0.212 -0.8916 -1.0090  0.0341
 3250TIP3   OH231164   4.099   3.503   1.679 -0.0083 -0.4945  0.4562
 3250TIP3    H131165   4.176   3.521   1.733 -1.5836  1.0607  2.2501
 3250TIP3    H231166   4.027   3.494   1.741 -2.1210  2.6053 -1.3818
 3251TIP3   OH231167   4.043   6.156  15.592  0.1749 -0.3186 -0.3016
 3251TIP3    H131168   3.952   6.181  15.610  0.0626  0.2765 -1.6168
 3251TIP3    H231169   4.076   6.227  15.537  1.7834  0.0382  1.0603
 3252TIP3   OH231170   1.855   5.427  10.605 -0.2822 -0.2188 -0.1006
 3252TIP3    H131171   1.947   5.404  10.615  0.2372  1.2116 -1.4002
 3252TIP3    H231172   1.816   5.351  10.562  0.5001 -0.4483 -0.4184
 3253TIP3   OH231173   1.638   5.214  11.482  0.2862  0.0280 -0.1717
 3253TIP3    H131174   1.608   5.240  11.395 -1.2847 -1.9121 -0.2594
 3253TIP3    H231175   1.608   5.283  11.540 -1.5526 -0.2717 -0.7290
 3254TIP3   OH231176   3.129   6.551  11.875  1.1151 -0.5235  0.2840
 3254TIP3    H131177   3.084   6.517  11.953  1.1644  1.5129  1.2485
 3254TIP3    H231178   3.194   6.612  11.910  0.9232  0.6593 -1.3671
 3255TIP3   OH231179   6.293   4.049   0.223 -0.2460 -0.4921  0.4089
 3255TIP3    H131180   6.376   4.079   0.186 -0.8802  0.0690 -0.5715
 3255TIP3    H231181   6.269   4.118   0.285  0.2844 -0.9155  1.0915
 3256TIP3   OH231182   6.342   6.342  16.764 -0.0590 -0.2043  0.2154
 3256TIP3    H131183   6.267   6.288  16.790 -0.7102  0.2490 -0.6815
 3256TIP3    H231184   6.306   6.430  16.755  1.3198  0.6907  3.1145
 3257TIP3   OH231185   3.361   1.656   3.192 -0.8230  0.1999 -0.1291
 3257TIP3    H131186   3.357   1.588   3.260 -1.0423 -1.0706 -1.4035
 3257TIP3    H231187   3.367   1.738   3.241 -0.6448 -0.7252  1.4315
 3258TIP3   OH231188   2.614   4.974  11.273  0.1781  0.1214  0.5948
 3258TIP3    H131189   2.522   5.000  11.265 -0.3958 -2.2553 -1.2878
 3258TIP3    H231190   2.652   4.991  11.187  0.8987 -1.0475  0.6687
 3259TIP3   OH231191   3.940   0.041   5.619 -0.1599  0.0469  0.1426
 3259TIP3    H131192   3.865   0.060   5.563 -0.2573  2.2884  0.9915
 3259TIP3    H231193   3.907   0.053   5.709  0.3005 -2.3577  0.6774
 3260TIP3   OH231194   6.255   0.675   5.411  0.3769  0.1063  0.2913
 3260TIP3    H131195   6.208   0.739   5.465  0.8026 -0.0570  0.8686
 3260TIP3    H231196   6.307   0.624   5.474  0.0867 -0.7718 -0.1670
 3261TIP3   OH231197   6.059   5.481  13.293  0.4387  0.1441 -0.0179
 3261TIP3    H131198   5.969   5.511  13.309 -0.0616 -1.0378 -0.6125
 3261TIP3    H231199   6.088   5.447  13.378  0.4620  0.8702  0.2699
 3262TIP3   OH231200   2.926   6.399   4.121 -0.2498 -0.6990 -0.0798
 3262TIP3    H131201   2.867   6.343   4.172  0.3963 -1.6511 -0.3670
 3262TIP3    H231202   3.013   6.378   4.155  0.0121  0.0257 -0.2981
 3263TIP3   OH231203   3.216   0.940   2.487  0.0053  0.0015 -0.3896
 3263TIP3    H131204   3.123   0.963   2.482 -0.3441 -1.1383  0.6518
 3263TIP3    H231205   3.257   0.992   2.418 -1.0855  2.1219  0.5053
 3264TIP3   OH231206   4.367   4.126  12.341 -0.1236  0.1717 -0.1611
 3264TIP3    H131207   4.381   4.031  12.331  1.1302  0.5370 -2.2358
 3264TIP3    H231208   4.343   4.137  12.433  0.1573 -2.1150  0.2240
 3265TIP3   OH231209   4.244   5.148  13.969 -0.1767 -0.6039  0.2355
 3265TIP3    H131210   4.330   5.162  14.009 -1.4759  1.1755  2.4695
 3265TIP3    H231211   4.199   5.087  14.028 -1.3899  0.4993  0.4669
 3266TIP3   OH231212   6.275   1.431   3.293  0.1007  0.1956 -0.0578
 3266TIP3    H131213   6.364   1.466   3.283  0.2826 -0.5237 -1.0081
 3266TIP3    H231214   6.282   1.364   3.360  0.1690  0.5104  0.2500
 3267TIP3   OH231215   5.288   4.911  15.218  0.1804 -0.1895 -1.2896
 3267TIP3    H131216   5.337   4.833  15.191  0.1162 -0.7338  0.1549
 3267TIP3    H231217   5.231   4.881  15.289  0.8318  1.3771 -0.0882
 3268TIP3   OH231218   2.052   1.084   1.818  0.3869  0.0435  0.5480
 3268TIP3    H131219   2.019   1.173   1.808 -0.1975  0.1265  2.8733
 3268TIP3    H231220   1.981   1.028   1.785  0.1507  0.4019  0.4490
 3269TIP3   OH231221   1.651   0.704  13.757 -0.0866 -0.0189 -0.0137
 3269TIP3    H131222   1.571   0.664  13.791  1.3529 -1.8367  1.3266
 3269TIP3    H231223   1.683   0.757  13.831 -0.0084  0.6702 -0.5369
 3270TIP3   OH231224   3.296   0.004  10.927  0.0450  0.4869 -0.1071
 3270TIP3    H131225   3.247  -0.077  10.912  0.7430  0.5202 -2.7360
 3270TIP3    H231226   3.307   0.043  10.840  3.5005  1.1984  0.5537
 3271TIP3   OH231227   1.703   4.199  10.696  0.0267 -0.0388 -0.8772
 3271TIP3    H131228   1.714   4.136  10.624 -1.4189 -1.1758 -0.1202
 3271TIP3    H231229   1.612   4.227  10.690 -0.0748 -0.0583  0.4545
 3272TIP3   OH231230   5.620   1.098  15.644 -0.4243 -0.1056 -0.0116
 3272TIP3    H131231   5.667   1.104  15.727  0.2859 -1.0394 -0.3389
 3272TIP3    H231232   5.536   1.141  15.662  0.2273  0.8783  0.7981
 3273TIP3   OH231233   2.615   1.157  11.509  0.3691  0.3776 -0.1568
 3273TIP3    H131234   2.537   1.149  11.564 -0.1016  2.2337 -0.5239
 3273TIP3    H231235   2.664   1.229  11.548  1.4773 -0.2127 -0.4459
 3274TIP3   OH231236   4.414   2.183  13.633  1.0946  0.2090 -0.1922
 3274TIP3    H131237   4.496   2.144  13.661 -0.2728 -1.4564  1.6305
 3274TIP3    H231238   4.419   2.274  13.663  1.9919 -0.0584  0.4912
 3275TIP3   OH231239   6.110   5.605   5.294  0.1015  0.3507  0.0424
 3275TIP3    H131240   6.108   5.510   5.301  0.3251  0.4207  1.1297
 3275TIP3    H231241   6.075   5.624   5.207 -0.6544 -0.6907  0.1159
 3276TIP3   OH231242   6.108   5.847  16.165 -0.2250  0.5558  0.4538
 3276TIP3    H131243   6.075   5.781  16.226  1.0672 -0.2492  0.2899
 3276TIP3    H231244   6.159   5.798  16.101  0.7045  1.6971  0.2870
 3277TIP3   OH231245   5.283   6.331  14.523  0.4923  0.6476  0.3453
 3277TIP3    H131246   5.236   6.413  14.537 -0.3958 -0.0069  1.2601
 3277TIP3    H231247   5.290   6.293  14.610  0.6677 -0.3805 -0.1174
 3278TIP3   OH231248   0.075   5.519  16.684 -0.4972 -0.3467  0.6032
 3278TIP3    H131249   0.114   5.552  16.603  0.7255  2.7060  2.3512
 3278TIP3    H231250   0.149   5.484  16.734 -0.4971  1.9875  2.3096
 3279TIP3   OH231251   3.891   2.604  16.848 -0.1402  0.0517  0.6282
 3279TIP3    H131252   3.935   2.621  16.931 -2.5274 -3.0889  2.6699
 3279TIP3    H231253   3.914   2.513  16.827 -1.9974 -0.1808 -0.5287
 3280TIP3   OH231254   1.614   3.509  11.051 -0.4679 -0.4243 -0.4789
 3280TIP3    H131255   1.585   3.419  11.034 -2.5737 -0.0104  0.6562
 3280TIP3    H231256   1.567   3.561  10.986 -0.9457  0.0831  0.2675
 3281TIP3   OH231257   5.832   4.054  11.376 -0.1969  0.2149 -0.6263
 3281TIP3    H131258   5.830   4.149  11.368 -0.7914  0.2471 -0.1447
 3281TIP3    H231259   5.741   4.029  11.394  0.1270 -0.3408  0.3036
 3282TIP3   OH231260   6.668   1.799   3.612  0.5475 -0.0132 -0.2102
 3282TIP3    H131261   6.738   1.734   3.617  0.7933  0.3070  0.5215
 3282TIP3    H231262   6.659   1.832   3.701 -1.5808 -1.1356  0.0077
 3283TIP3   OH231263   2.191   5.283   5.886  0.8480 -0.3542  0.1054
 3283TIP3    H131264   2.268   5.334   5.858 -1.1395  3.0228  0.5927
 3283TIP3    H231265   2.149   5.258   5.804  1.8453 -1.2988 -0.1372
 3284TIP3   OH231266   0.332   2.778   0.527  0.9170  0.2057 -0.2998
 3284TIP3    H131267   0.327   2.752   0.618  1.1011 -0.3526 -0.4479
 3284TIP3    H231268   0.424   2.802   0.514  1.3456 -1.6910 -0.8700
 3285TIP3   OH231269   1.480   6.396   1.323  0.4699 -0.3781 -0.5817
 3285TIP3    H131270   1.502   6.402   1.416 -0.1152 -1.6976 -0.3460
 3285TIP3    H231271   1.541   6.456   1.280  1.8345 -0.9718  0.4872
 3286TIP3   OH231272   3.295   5.516  15.712 -0.0002  0.7085 -0.4970
 3286TIP3    H131273   3.307   5.432  15.755  2.4279  1.2178 -0.1515
 3286TIP3    H231274   3.228   5.560  15.765  1.2873  0.4165  1.4197
 3287TIP3   OH231275   2.224   0.646  11.839 -0.6789 -0.3919  0.4528
 3287TIP3    H131276   2.201   0.632  11.747 -0.8146 -0.5485  0.5094
 3287TIP3    H231277   2.318   0.665  11.838 -0.4844 -1.3468  0.3777
 3288TIP3   OH231278   1.404   2.954  15.818 -0.0877 -0.7156 -0.1805
 3288TIP3    H131279   1.363   2.965  15.904 -2.0236 -0.6319 -1.0841
 3288TIP3    H231280   1.416   2.860  15.809 -0.3374 -0.7646 -0.0166
 3289TIP3   OH231281   5.197   6.452  11.187  0.0849  0.2776 -0.1136
 3289TIP3    H131282   5.251   6.411  11.255 -0.5153 -0.8614 -0.3045
 3289TIP3    H231283   5.130   6.500  11.236 -0.0866 -0.1776  0.1019
 3290TIP3   OH231284   6.487   4.198  15.401  0.0233  0.2694 -0.1874
 3290TIP3    H131285   6.441   4.232  15.325  0.8793  2.5712  0.2682
 3290TIP3    H231286   6.423   4.203  15.472  0.7693  3.0166  0.3419
 3291TIP3   OH231287   5.647   6.592  14.954  0.0303  0.1522  0.0390
 3291TIP3    H131288   5.632   6.683  14.931  0.6664  0.2014 -0.2182
 3291TIP3    H231289   5.570   6.566  15.004 -1.1832  0.1880 -1.7564
 3292TIP3   OH231290   1.546   3.173   3.986  0.2628 -0.2369 -0.3773
 3292TIP3    H131291   1.473   3.208   4.037  2.0620  0.2503  1.9218
 3292TIP3    H231292   1.530   3.206   3.897 -2.4827 -0.4234 -0.0061
 3293TIP3   OH231293   4.242   2.346   4.837 -0.1928  0.0950 -0.5865
 3293TIP3    H131294   4.314   2.302   4.881 -0.6471 -0.8580 -0.7852
 3293TIP3    H231295   4.174   2.280   4.829 -0.3713  0.4243 -2.1291
 3294TIP3   OH231296   0.397   1.325   1.999  0.0228  0.1618 -0.6450
 3294TIP3    H131297   0.343   1.331   1.920 -0.5317  0.3783 -0.2537
 3294TIP3    H231298   0.420   1.233   2.006  0.1580  0.1597 -1.1223
 3295TIP3   OH231299   0.026   3.497  16.734  0.3375  0.2159  0.3723
 3295TIP3    H131300  -0.039   3.437  16.771  0.3875  0.1652  0.3793
 3295TIP3    H231301   0.079   3.524  16.808  1.7520 -1.5027  0.0227
 3296TIP3   OH231302   6.774   3.569  10.613 -0.0103  0.8276 -0.3688
 3296TIP3    H131303   6.790   3.548  10.522  1.4835  0.3653 -0.0009
 3296TIP3    H231304   6.684   3.538  10.630 -0.0311  0.2883 -1.4727
 3297TIP3   OH231305   2.389   0.859   6.157  0.7662  0.1525  0.0045
 3297TIP3    H131306   2.301   0.843   6.191  0.7416  1.0189  0.3595
 3297TIP3    H231307   2.385   0.831   6.066  0.5706 -1.3146  0.4514
 3298TIP3   OH231308   5.850   2.078   3.552  0.0874 -0.1029 -0.0211
 3298TIP3    H131309   5.920   2.026   3.513  0.2287 -0.1162  0.2532
 3298TIP3    H231310   5.839   2.152   3.492 -0.2793 -0.5745 -0.5443
 3299TIP3   OH231311   1.396   2.983   4.656 -0.3130 -0.6009 -0.2676
 3299TIP3    H131312   1.463   3.037   4.617  0.9606 -2.4814 -0.7688
 3299TIP3    H231313   1.428   2.965   4.745 -1.5042  0.7629  0.4618
 3300TIP3   OH231314   6.392   2.246  13.764  0.0721 -0.4248  0.3155
 3300TIP3    H131315   6.421   2.196  13.840  0.7441 -0.8457 -0.2068
 3300TIP3    H231316   6.468   2.301  13.742 -0.6158  0.7335  0.8129
 3301TIP3   OH231317   0.876   4.088  13.694  0.0121 -0.0623 -0.2392
 3301TIP3    H131318   0.932   4.142  13.638  0.9570 -0.2390  0.5340
 3301TIP3    H231319   0.927   4.073  13.773 -0.6967 -1.1355  0.0329
 3302TIP3   OH231320   2.017   4.301   0.485  0.5665 -0.1951 -0.2508
 3302TIP3    H131321   2.066   4.219   0.480  1.5431  0.4000 -0.4789
 3302TIP3    H231322   2.068   4.363   0.433  0.5279  0.8925  0.9748
 3303TIP3   OH231323   1.759   2.557  10.947  0.9133  0.3684  0.2577
 3303TIP3    H131324   1.678   2.505  10.942  2.0834 -1.6447  1.4563
 3303TIP3    H231325   1.737   2.639  10.904 -1.4889 -0.5130 -0.3055
 3304TIP3   OH231326   4.717   3.430  13.996  0.2465 -0.5198 -0.0267
 3304TIP3    H131327   4.773   3.480  13.936  0.1705 -1.9295 -1.3183
 3304TIP3    H231328   4.628   3.450  13.967  0.2411 -3.4554 -2.3861
 3305TIP3   OH231329   4.749   6.120  10.658 -0.1266  0.0654  0.2085
 3305TIP3    H131330   4.723   6.206  10.692  2.4170  0.6150  0.8362
 3305TIP3    H231331   4.674   6.092  10.605 -1.8956  1.6741  1.7573
 3306TIP3   OH231332   6.209   6.263   4.786 -0.4573 -0.2898  0.2977
 3306TIP3    H131333   6.263   6.185   4.799 -2.5241 -1.6377  1.0198
 3306TIP3    H231334   6.202   6.303   4.872  1.2174  1.1319 -0.2097
 3307TIP3   OH231335   6.540   2.138  13.979  0.6017 -0.0669  0.0126
 3307TIP3    H131336   6.618   2.164  13.930  1.4362  0.7310  1.7143
 3307TIP3    H231337   6.523   2.212  14.038 -0.3841 -0.9858  0.9049
 3308TIP3   OH231338   5.274   5.371  13.655 -0.7189  0.2836 -0.3510
 3308TIP3    H131339   5.274   5.414  13.569  2.1992  0.5667 -0.2575
 3308TIP3    H231340   5.313   5.285  13.638  0.7809  0.7131  0.8635
 3309TIP3   OH231341   2.855   2.427   6.244  0.7135 -0.6989 -0.2502
 3309TIP3    H131342   2.869   2.423   6.339  0.9444 -1.2471 -0.3063
 3309TIP3    H231343   2.763   2.452   6.234 -0.0085 -3.0957  0.1208
 3310TIP3   OH231344   4.792   4.623  16.503  0.7431 -0.1002  0.0821
 3310TIP3    H131345   4.715   4.677  16.517  0.8020 -0.5097  2.1534
 3310TIP3    H231346   4.864   4.674  16.541  1.1735 -0.5778 -0.0890
 3311TIP3   OH231347   1.098   3.954  12.449 -0.1788 -0.5735  1.0863
 3311TIP3    H131348   1.181   3.919  12.480 -0.6826 -2.8776 -0.0327
 3311TIP3    H231349   1.118   3.991  12.363 -0.6381 -2.7451  0.0233
 3312TIP3   OH231350   2.177   5.019  16.302 -0.0744 -0.0282  0.2070
 3312TIP3    H131351   2.117   4.948  16.279 -0.3814  0.0304  0.8174
 3312TIP3    H231352   2.120   5.092  16.326  0.2426  0.2616  0.0960
 3313TIP3   OH231353   4.834   3.333   2.201 -0.0763  0.0992  0.0120
 3313TIP3    H131354   4.750   3.322   2.247  0.3023  1.2418  0.9822
 3313TIP3    H231355   4.897   3.284   2.255  0.0990  0.2065 -0.0982
 3314TIP3   OH231356   1.643   5.747  13.174  0.3445  0.5071 -0.9260
 3314TIP3    H131357   1.717   5.733  13.232 -0.4597  1.9588  0.4851
 3314TIP3    H231358   1.566   5.732  13.229 -0.4352  2.5242 -1.4190
 3315TIP3   OH231359   1.534   3.118   0.944 -0.0020 -0.3543  0.4387
 3315TIP3    H131360   1.455   3.065   0.946  0.1758 -0.6920 -1.0309
 3315TIP3    H231361   1.517   3.190   1.005 -1.2094 -0.7272  0.5457
 3316TIP3   OH231362   5.889   3.528  14.804 -0.5021  0.2067 -0.5474
 3316TIP3    H131363   5.926   3.612  14.830 -2.5277  1.1218 -0.5589
 3316TIP3    H231364   5.860   3.487  14.885  0.4085 -0.4720 -0.5487
 3317TIP3   OH231365   5.747   2.467   3.025 -0.4102 -0.2834  0.0855
 3317TIP3    H131366   5.836   2.446   3.054 -0.5557  0.3639  0.9944
 3317TIP3    H231367   5.732   2.556   3.055 -1.5710 -0.5847  0.4219
 3318TIP3   OH231368   5.005   4.674  12.268  0.1349 -0.0587  0.0254
 3318TIP3    H131369   5.032   4.596  12.220  1.0467  0.9795 -1.1714
 3318TIP3    H231370   5.061   4.675  12.346 -0.4139 -0.9989  0.4486
 3319TIP3   OH231371   6.419   3.064  11.289  0.4886  0.8446 -0.0368
 3319TIP3    H131372   6.413   3.137  11.351  0.7998  1.6631 -0.9481
 3319TIP3    H231373   6.387   3.101  11.206  0.8778  0.0089 -0.5646
 3320TIP3   OH231374   1.462   1.586  11.546 -0.1216 -0.5866 -0.5962
 3320TIP3    H131375   1.536   1.534  11.515  0.6849  0.5205 -0.5504
 3320TIP3    H231376   1.502   1.654  11.601 -1.0549  0.8091 -1.6313
 3321TIP3   OH231377   6.780   3.515   0.235 -0.5338  0.0366 -0.0970
 3321TIP3    H131378   6.783   3.458   0.311  0.4508 -0.2825 -0.3609
 3321TIP3    H231379   6.791   3.603   0.271  1.6481 -0.2337  0.0202
 3322TIP3   OH231380   1.554   3.726   3.811  0.1101  0.0662  0.6456
 3322TIP3    H131381   1.466   3.749   3.782  0.5965 -0.0704 -0.9496
 3322TIP3    H231382   1.598   3.692   3.733  2.1400  1.7502  1.0042
 3323TIP3   OH231383   1.927   5.734   1.593  0.1839  0.6729 -0.5784
 3323TIP3    H131384   1.993   5.793   1.557  1.3108 -0.6265 -0.7021
 3323TIP3    H231385   1.875   5.706   1.518  2.3840 -1.8522 -1.2688
 3324TIP3   OH231386   6.219   5.666   5.739 -0.1858 -0.7084  0.7540
 3324TIP3    H131387   6.205   5.710   5.823  0.2158  0.7139  0.0912
 3324TIP3    H231388   6.155   5.707   5.680 -1.2842 -2.5401  0.6515
 3325TIP3   OH231389   3.916   3.448   4.572 -0.1576  0.4794 -0.2142
 3325TIP3    H131390   3.972   3.385   4.526 -0.3576  0.0713  0.1026
 3325TIP3    H231391   3.959   3.463   4.656 -1.4225 -1.1841  0.7683
 3326TIP3   OH231392   4.653   4.827   0.813 -0.0603 -0.2728 -0.2471
 3326TIP3    H131393   4.561   4.847   0.798 -0.0785  0.4767  0.7681
 3326TIP3    H231394   4.681   4.892   0.878  0.8741 -1.2265  0.3182
 3327TIP3   OH231395   0.130   6.584   1.609  0.3566 -0.0460 -0.4167
 3327TIP3    H131396   0.164   6.642   1.541  1.8494  0.3666  0.6496
 3327TIP3    H231397   0.203   6.573   1.670 -0.7806 -0.8300  0.8378
 3328TIP3   OH231398   1.686   1.034  13.461 -0.0772  0.0161 -0.3599
 3328TIP3    H131399   1.650   1.098  13.400  1.5007 -1.0784 -2.5424
 3328TIP3    H231400   1.630   0.957  13.451  0.0740 -0.1008 -0.3165
 3329TIP3   OH231401   5.928   6.737  12.308 -0.1626  0.0234  0.0581
 3329TIP3    H131402   5.963   6.648  12.295 -0.0741  0.4440 -3.0891
 3329TIP3    H231403   5.834   6.724  12.320  0.2587 -0.6984  2.9740
 3330TIP3   OH231404   4.759   1.435  15.423  0.3772 -0.2394  0.8187
 3330TIP3    H131405   4.769   1.386  15.342  0.1542  0.1463  0.5584
 3330TIP3    H231406   4.695   1.503  15.403 -0.4479 -0.7602  1.5932
 3331TIP3   OH231407   4.561   2.651  14.757  0.0206 -0.6230 -0.4725
 3331TIP3    H131408   4.518   2.672  14.674 -1.5643 -1.4198  0.1221
 3331TIP3    H231409   4.593   2.562  14.745 -0.0981 -0.6920 -0.2765
 3332TIP3   OH231410   5.866   0.079  15.353  0.4631 -0.4720  0.3892
 3332TIP3    H131411   5.915   0.106  15.431 -0.1933 -1.2575  1.0816
 3332TIP3    H231412   5.833   0.161  15.316 -0.1921 -0.1891  1.5929
 3333TIP3   OH231413   0.319   3.851   3.921 -0.2026 -0.0299 -0.1281
 3333TIP3    H131414   0.250   3.869   3.985 -0.3156 -0.7297 -0.0543
 3333TIP3    H231415   0.315   3.756   3.907 -0.5755  0.1874 -1.5966
 3334TIP3   OH231416   3.051   1.954   5.454  0.2118 -0.0870 -0.4569
 3334TIP3    H131417   3.007   1.970   5.537 -2.0976  0.7328 -1.7932
 3334TIP3    H231418   3.095   2.037   5.433 -0.4881  0.2036 -0.7914
 3335TIP3   OH231419   0.296   2.768   1.248 -0.0376  0.3301  0.4189
 3335TIP3    H131420   0.291   2.820   1.168 -2.7279 -0.6526 -0.0965
 3335TIP3    H231421   0.371   2.805   1.296  0.3493  2.2531 -1.5963
 3336TIP3   OH231422   4.534   6.179  11.563  0.0116 -0.3122  0.3716
 3336TIP3    H131423   4.491   6.230  11.631 -1.6842 -1.4996  0.2053
 3336TIP3    H231424   4.597   6.124  11.610  0.5622  0.5937  0.7185
 3337TIP3   OH231425   3.824   2.829  16.173 -0.5800  0.1920 -0.4169
 3337TIP3    H131426   3.823   2.765  16.244 -1.6514 -0.4104 -0.9558
 3337TIP3    H231427   3.857   2.909  16.213 -1.0776 -0.1704  0.7383
 3338TIP3   OH231428   3.685   4.916  13.064  0.3115  0.2990  0.0622
 3338TIP3    H131429   3.601   4.960  13.080  0.2843  0.2992 -0.0841
 3338TIP3    H231430   3.716   4.952  12.981  0.6503  0.5922  0.3157
 3339TIP3   OH231431   5.315   0.647   2.019 -0.1146 -0.3700  0.0694
 3339TIP3    H131432   5.371   0.625   1.944 -0.6721 -0.5005 -0.3163
 3339TIP3    H231433   5.228   0.618   1.992 -0.9104  2.4351 -0.5357
 3340TIP3   OH231434   5.772   0.888   4.451 -0.1651 -0.4675 -0.4630
 3340TIP3    H131435   5.863   0.917   4.448  0.0470 -0.7583  1.8357
 3340TIP3    H231436   5.746   0.877   4.360  1.8346  0.4495 -1.1546
 3341TIP3   OH231437   0.284   4.326   3.092 -0.1816  0.0267  0.1930
 3341TIP3    H131438   0.246   4.265   3.155  1.5703  0.0981  1.3610
 3341TIP3    H231439   0.341   4.272   3.036  0.1385  0.3344  0.2164
 3342TIP3   OH231440   3.376   0.344   3.979  0.4438  1.1132 -0.6194
 3342TIP3    H131441   3.293   0.341   4.027  1.0179  1.2973  0.3931
 3342TIP3    H231442   3.350   0.357   3.888 -0.8557 -2.6849 -0.8945
 3343TIP3   OH231443   1.453   1.013   4.494 -0.1504 -0.4710 -0.2482
 3343TIP3    H131444   1.482   0.946   4.431  1.6392 -1.4377  1.5665
 3343TIP3    H231445   1.421   0.963   4.569  0.5368  0.6832  0.8313
 3344TIP3   OH231446   1.419   5.734  13.424 -0.0307 -0.5895  0.0990
 3344TIP3    H131447   1.348   5.709  13.365 -0.3680  0.3336  0.1125
 3344TIP3    H231448   1.378   5.790  13.489  0.3901 -1.3961  1.0821
 3345TIP3   OH231449   3.564   3.471  15.159  0.1975  0.1583  0.2607
 3345TIP3    H131450   3.544   3.541  15.221  0.0539  0.1915  0.1769
 3345TIP3    H231451   3.650   3.439  15.185 -0.4205 -0.6883  1.2678
 3346TIP3   OH231452   5.182   0.595   6.660  0.6437 -0.5970 -0.0521
 3346TIP3    H131453   5.177   0.636   6.573 -0.3540 -0.5393  0.0188
 3346TIP3    H231454   5.114   0.640   6.711  1.2826 -0.5738  0.7815
 3347TIP3   OH231455   0.022   0.918  14.547 -0.6890 -0.4148  0.3458
 3347TIP3    H131456   0.099   0.863  14.561  0.2917  0.4763 -1.4314
 3347TIP3    H231457   0.034   0.992  14.606  0.9555  0.8289 -1.4695
 3348TIP3   OH231458   1.981   2.151  10.934 -0.4090  0.2143 -0.1581
 3348TIP3    H131459   1.978   2.184  10.844  0.9703  0.9465  0.0503
 3348TIP3    H231460   1.911   2.086  10.938  1.3237 -1.8975 -2.5879
 3349TIP3   OH231461   5.229   1.177   4.048  0.0560  0.7063 -0.2659
 3349TIP3    H131462   5.188   1.103   4.003  0.6526 -0.5905  1.2942
 3349TIP3    H231463   5.321   1.175   4.019  0.4426 -0.1369  1.0071
 3350TIP3   OH231464   3.828   2.981   5.373 -0.0977 -0.2229 -0.2137
 3350TIP3    H131465   3.831   2.940   5.459 -0.6667  2.4481  1.1528
 3350TIP3    H231466   3.903   3.041   5.373 -0.3758  0.1295 -1.3730
 3351TIP3   OH231467   6.551   5.672  11.195 -1.0789  0.3563  0.0838
 3351TIP3    H131468   6.564   5.749  11.139 -0.4308 -0.0863 -0.3862
 3351TIP3    H231469   6.484   5.621  11.150  0.6618 -0.8434 -1.2024
 3352TIP3   OH231470   3.343   1.490   0.876 -0.1586 -0.4055 -0.5886
 3352TIP3    H131471   3.416   1.500   0.815  0.3570 -0.3043  0.0414
 3352TIP3    H231472   3.286   1.565   0.857  0.1861 -0.1679 -0.6927
 3353TIP3   OH231473   4.666   0.498  16.262  0.9974 -0.3942 -0.4151
 3353TIP3    H131474   4.732   0.547  16.213  0.0433 -1.1544 -2.5267
 3353TIP3    H231475   4.586   0.507  16.210  0.1682 -1.9834  0.5291
 3354TIP3   OH231476   1.191   6.464   5.193  0.1081  0.1008  0.1550
 3354TIP3    H131477   1.286   6.472   5.183 -0.1393  2.2001 -0.7467
 3354TIP3    H231478   1.167   6.390   5.138  1.2380 -0.4788  0.4403
 3355TIP3   OH231479   0.078   5.204  16.795  0.6767 -0.1652  0.0217
 3355TIP3    H131480   0.007   5.163  16.844  0.6548 -1.0475 -0.7519
 3355TIP3    H231481   0.107   5.276  16.852 -2.1346  1.4733 -0.4797
 3356TIP3   OH231482   3.811   2.316  15.211  0.1785  0.1328  0.7370
 3356TIP3    H131483   3.863   2.237  15.225 -0.2372 -0.1758  0.5411
 3356TIP3    H231484   3.841   2.349  15.126  0.9796  0.6728  1.2320
 3357TIP3   OH231485   4.808   2.650   0.795 -0.2127 -0.1086 -0.1871
 3357TIP3    H131486   4.731   2.606   0.760  0.6918 -0.4138 -1.8556
 3357TIP3    H231487   4.879   2.587   0.785 -0.0352 -0.5403  3.0066
 3358TIP3   OH231488   6.746   4.800  13.835 -0.0547 -0.4364  0.4051
 3358TIP3    H131489   6.813   4.799  13.767 -0.9871 -0.4653 -0.5305
 3358TIP3    H231490   6.700   4.883  13.823 -0.7112 -0.7782  0.5040
 3359TIP3   OH231491   5.776   1.644   0.271 -0.0760  0.3068  0.8227
 3359TIP3    H131492   5.852   1.668   0.218 -1.9402 -1.0238 -2.6202
 3359TIP3    H231493   5.780   1.549   0.277 -2.0115  0.1130 -0.3605
 3360TIP3   OH231494   2.368   2.852   3.559  0.3459  0.1718  0.3387
 3360TIP3    H131495   2.318   2.788   3.610  2.0174 -1.4021  0.0875
 3360TIP3    H231496   2.337   2.841   3.469 -0.2277  0.5653  0.4901
 3361TIP3   OH231497   6.321   2.348   6.003  0.0960  0.0743 -0.5679
 3361TIP3    H131498   6.330   2.273   5.944 -1.2066 -1.3934  1.0645
 3361TIP3    H231499   6.348   2.315   6.089 -0.6786  1.4141  0.2073
 3362TIP3   OH231500   2.708   3.821  12.704  0.5875  0.6904  0.2089
 3362TIP3    H131501   2.658   3.776  12.636  2.0809  0.7589 -0.9465
 3362TIP3    H231502   2.740   3.751  12.761  0.3323  0.5429  0.1705
 3363TIP3   OH231503   3.894   4.620   5.036 -0.0445 -0.5906 -0.0992
 3363TIP3    H131504   3.864   4.672   5.111  1.4857 -0.2813  0.2993
 3363TIP3    H231505   3.985   4.600   5.055  0.6602  0.3368 -2.3659
 3364TIP3   OH231506   5.011   4.171   2.362 -0.7690  0.0729  0.7656
 3364TIP3    H131507   4.967   4.255   2.378  0.5205  0.5481  1.9915
 3364TIP3    H231508   4.945   4.117   2.320 -1.2978  2.0647 -1.0604
 3365TIP3   OH231509   1.515   4.643   5.938 -0.0415 -0.2576  0.0395
 3365TIP3    H131510   1.596   4.595   5.956  0.4224  0.9859  1.3682
 3365TIP3    H231511   1.487   4.611   5.853  0.6977 -2.2779  0.5157
 3366TIP3   OH231512   0.741   6.008  16.862  0.0033 -0.1504  0.1741
 3366TIP3    H131513   0.755   5.987  16.954 -0.1926  1.2773  0.5437
 3366TIP3    H231514   0.744   5.924  16.817 -0.5045 -0.9198  1.5634
 3367TIP3   OH231515   2.501   2.355  11.754 -0.0359  0.5168  0.2935
 3367TIP3    H131516   2.451   2.435  11.736  2.3823  1.5005 -2.5932
 3367TIP3    H231517   2.471   2.292  11.689 -0.0743 -0.0639  0.8663
 3368TIP3   OH231518   4.572   1.639  15.405 -0.0279 -0.2134  0.2981
 3368TIP3    H131519   4.510   1.678  15.468 -0.6359  0.0698 -0.4711
 3368TIP3    H231520   4.524   1.638  15.322  1.2971  0.8371 -0.5105
 3369TIP3   OH231521   0.949   6.351  17.001  0.0758 -0.2670 -0.6440
 3369TIP3    H131522   0.979   6.429  16.954  3.0301 -1.4784 -0.8906
 3369TIP3    H231523   0.978   6.365  17.091  0.6659 -1.0790 -0.6990
 3370TIP3   OH231524   5.788   1.931  12.803 -0.3618 -0.1942  0.1029
 3370TIP3    H131525   5.823   1.874  12.735 -1.0328 -0.1475 -0.2841
 3370TIP3    H231526   5.830   1.901  12.884  0.1990 -0.4478 -0.2845
 3371TIP3   OH231527   5.259   3.693  16.658 -0.0153  0.0479  0.0078
 3371TIP3    H131528   5.223   3.714  16.572  0.4472  1.0127  0.0547
 3371TIP3    H231529   5.323   3.624  16.640 -0.0570  0.1116 -0.3990
 3372TIP3   OH231530   4.321   0.873   1.767 -0.0153  0.2062 -0.3625
 3372TIP3    H131531   4.325   0.848   1.860 -1.0067 -0.3883 -0.4806
 3372TIP3    H231532   4.251   0.938   1.763  0.4683  0.7220 -0.5968
 3373TIP3   OH231533   2.460   3.616   6.085  0.0231 -0.1940  0.4238
 3373TIP3    H131534   2.403   3.687   6.116  1.5052 -0.0978  2.9694
 3373TIP3    H231535   2.409   3.536   6.100 -1.0904  0.1686 -1.1928
 3374TIP3   OH231536   3.780   0.717  14.654 -0.0690  0.5891 -0.2324
 3374TIP3    H131537   3.744   0.633  14.683  1.7364 -0.2838 -0.4381
 3374TIP3    H231538   3.717   0.749  14.589 -0.9176 -0.4675  0.0520
 3375TIP3   OH231539   3.837   5.259   0.033 -0.6694 -0.0184  0.0785
 3375TIP3    H131540   3.882   5.306   0.103 -0.3075 -0.0793 -0.1095
 3375TIP3    H231541   3.751   5.300   0.027 -0.6596  0.0654  0.4777
 3376TIP3   OH231542   3.629   1.683  14.442  0.0355  0.2173  0.7660
 3376TIP3    H131543   3.645   1.653  14.532 -1.3695  3.9007  2.3842
 3376TIP3    H231544   3.704   1.741  14.423 -0.2946  0.4078  0.0351
 3377TIP3   OH231545   6.181   6.158  15.050  0.5359  0.0349  0.0600
 3377TIP3    H131546   6.208   6.137  14.960  0.3143  0.7420 -0.1720
 3377TIP3    H231547   6.262   6.157  15.100  0.7529  0.3334 -0.2825
 3378TIP3   OH231548   1.894   4.094   4.066  0.1146 -0.1544 -0.2140
 3378TIP3    H131549   1.846   4.029   4.015  0.3746  1.8308 -3.0728
 3378TIP3    H231550   1.986   4.070   4.055  0.1529  0.0606 -0.3581
 3379TIP3   OH231551   6.774   3.808  12.625 -0.3017 -0.2400  0.4485
 3379TIP3    H131552   6.703   3.851  12.672 -0.2800  1.3136 -0.8911
 3379TIP3    H231553   6.754   3.825  12.532 -0.9545 -4.1036 -0.2350
 3380TIP3   OH231554   2.405   6.545  12.737  0.3997  0.2609  0.4133
 3380TIP3    H131555   2.343   6.484  12.778  0.5806  0.6560  1.2953
 3380TIP3    H231556   2.422   6.507  12.651 -1.4266  0.3981 -0.0204
 3381TIP3   OH231557   3.578   6.305   5.450 -0.5166 -0.4472 -0.3308
 3381TIP3    H131558   3.579   6.277   5.358  0.4294 -0.5192 -0.3078
 3381TIP3    H231559   3.541   6.393   5.448 -0.8954 -0.6126 -0.7316
 3382TIP3   OH231560   0.427   4.077   5.361  0.3394  0.1984 -0.0615
 3382TIP3    H131561   0.517   4.109   5.371  0.9807 -1.5214 -0.2301
 3382TIP3    H231562   0.413   4.074   5.266  0.0043  0.7051 -0.0326
 3383TIP3   OH231563   3.914   5.874   1.583 -0.6177 -0.5694  0.6207
 3383TIP3    H131564   3.829   5.855   1.542 -0.6814  0.4751  0.2470
 3383TIP3    H231565   3.960   5.926   1.518  0.0315 -0.5132  1.1272
 3384TIP3   OH231566   5.849   2.044  15.776  0.1253 -0.2139 -0.1468
 3384TIP3    H131567   5.919   2.084  15.828  1.2596 -2.3760  0.0398
 3384TIP3    H231568   5.779   2.027  15.839 -0.9864  2.7425 -0.4872
 3385TIP3   OH231569   4.336   5.600  12.471 -0.3223  0.7059  0.2255
 3385TIP3    H131570   4.424   5.573  12.447 -0.7261 -0.8726  0.4635
 3385TIP3    H231571   4.316   5.673  12.412 -0.2011 -1.1877 -2.2268
 3386TIP3   OH231572   6.684   4.642   4.432  0.0111  0.5138 -0.2838
 3386TIP3    H131573   6.599   4.636   4.389 -0.2345  1.3597  0.0695
 3386TIP3    H231574   6.664   4.666   4.523  0.4351 -2.5470  0.6946
 3387TIP3   OH231575   3.968   1.981   3.453  0.5363  0.3009  0.0169
 3387TIP3    H131576   4.031   1.998   3.382  0.7368  0.5363  0.2520
 3387TIP3    H231577   3.921   2.064   3.462 -0.3055 -0.0936 -0.6525
 3388TIP3   OH231578   2.397   1.280   2.186 -0.0133 -0.2517  0.0835
 3388TIP3    H131579   2.448   1.216   2.236  1.2756 -0.6812 -1.7461
 3388TIP3    H231580   2.459   1.317   2.123 -1.6853  0.0164 -1.4398
 3389TIP3   OH231581   3.395   1.573   3.766 -0.4323  0.3262  0.0073
 3389TIP3    H131582   3.310   1.532   3.781 -0.1229 -0.4635 -0.4210
 3389TIP3    H231583   3.453   1.531   3.829 -0.0707 -0.0243 -0.5661
 3390TIP3   OH231584   6.626   0.652   1.405 -0.4838  0.3599  0.1469
 3390TIP3    H131585   6.651   0.586   1.341 -0.8925 -0.8926  1.2430
 3390TIP3    H231586   6.630   0.735   1.358  0.6853 -0.3756 -1.0727
 3391TIP3   OH231587   4.594   0.002   3.131 -0.0159  0.3621 -0.3040
 3391TIP3    H131588   4.526  -0.026   3.069  0.6956 -2.1547 -0.0144
 3391TIP3    H231589   4.616   0.091   3.104 -2.3303  0.6649 -1.3543
 3392TIP3   OH231590   1.655   2.776   0.202  0.8256 -0.3928 -0.0784
 3392TIP3    H131591   1.595   2.779   0.276 -1.2378 -0.5027 -1.6928
 3392TIP3    H231592   1.740   2.802   0.238 -0.1352 -0.4848  2.3028
 3393TIP3   OH231593   3.865   0.698   4.945 -0.3821 -0.2099  0.1485
 3393TIP3    H131594   3.949   0.743   4.948 -1.0506  1.0789 -0.1153
 3393TIP3    H231595   3.871   0.641   4.868 -0.0893  0.5487 -0.3910
 3394TIP3   OH231596   3.020   0.266   5.729 -0.0656  0.3605  0.3419
 3394TIP3    H131597   3.066   0.338   5.772 -0.2794  0.3639  0.5630
 3394TIP3    H231598   3.008   0.296   5.639  1.1084  0.0133  0.0625
 3395TIP3   OH231599   4.124   4.746  15.861 -0.3978  0.2767  0.2483
 3395TIP3    H131600   4.216   4.725  15.876 -0.2260 -0.1173 -1.3002
 3395TIP3    H231601   4.113   4.833  15.900  0.3003 -0.1977  1.5566
 3396TIP3   OH231602   3.615   5.137   4.043 -0.3225 -0.2995  0.3831
 3396TIP3    H131603   3.700   5.156   4.084 -0.5857 -1.1637  1.3476
 3396TIP3    H231604   3.584   5.058   4.088 -1.8379  0.2533  0.3218
 3397TIP3   OH231605   4.040   0.759  13.665  0.0860 -0.7193 -0.3067
 3397TIP3    H131606   4.104   0.819  13.627  0.8950 -1.7472 -0.5929
 3397TIP3    H231607   4.081   0.673  13.659 -0.6195 -1.1683  1.0643
 3398TIP3   OH231608   6.381   3.573  11.759 -0.6003 -0.5171 -0.2551
 3398TIP3    H131609   6.350   3.637  11.695  0.0324 -0.1047 -0.1564
 3398TIP3    H231610   6.339   3.491  11.733 -0.3320 -0.3629 -1.2120
 3399TIP3   OH231611   2.336   0.366  10.498 -0.2066  0.5175 -0.0702
 3399TIP3    H131612   2.429   0.353  10.481 -0.2570 -1.9639  1.3193
 3399TIP3    H231613   2.294   0.284  10.473 -1.6784  0.6936  1.6188
 3400TIP3   OH231614   0.960   4.491   1.885  0.4066  0.0045  0.2631
 3400TIP3    H131615   1.026   4.559   1.902  0.5545 -0.4736  1.6119
 3400TIP3    H231616   0.887   4.538   1.844  1.2534  0.6707 -0.4915
 3401TIP3   OH231617   5.168   6.119   3.003  0.0330 -0.1102 -0.5099
 3401TIP3    H131618   5.226   6.189   2.974  0.6208 -0.4350 -0.1378
 3401TIP3    H231619   5.227   6.053   3.040 -0.6220 -0.1788  0.4238
 3402TIP3   OH231620   2.059   1.935  12.889 -0.6814 -0.6266  0.9662
 3402TIP3    H131621   2.127   1.998  12.865 -1.3749 -0.9277 -2.0750
 3402TIP3    H231622   2.071   1.919  12.982  1.4632  1.6501  1.1071
 3403TIP3   OH231623   1.589   0.009   4.282  0.2650  0.4130 -0.3073
 3403TIP3    H131624   1.534   0.086   4.290  0.0015 -0.0245  2.9603
 3403TIP3    H231625   1.545  -0.046   4.217 -1.5124  1.4241  0.0227
 3404TIP3   OH231626   6.525   4.544   2.047 -0.0834  0.1161 -0.1704
 3404TIP3    H131627   6.562   4.491   1.977 -0.9631  0.0366 -0.5830
 3404TIP3    H231628   6.444   4.581   2.010 -0.1177  0.7603  0.5127
 3405TIP3   OH231629   0.844   3.150  13.132 -0.4584 -0.0143 -0.4313
 3405TIP3    H131630   0.889   3.234  13.129  1.2865 -0.9518 -1.9630
 3405TIP3    H231631   0.830   3.128  13.040 -2.5966 -0.5204  0.0031
 3406TIP3   OH231632   0.231   1.869  14.388  0.7650  0.0397 -0.4908
 3406TIP3    H131633   0.194   1.780  14.382  0.8603  0.0328 -1.0391
 3406TIP3    H231634   0.209   1.899  14.476 -3.3449  1.2686 -1.8539
 3407TIP3   OH231635   6.273   6.497   6.045  0.0112 -0.3368 -0.1440
 3407TIP3    H131636   6.211   6.531   6.109 -1.0821 -1.9018 -0.3427
 3407TIP3    H231637   6.232   6.511   5.960  0.4327 -0.3510 -0.3541
 3408TIP3   OH231638   3.325   5.519   3.570  0.1974 -0.2337 -0.3054
 3408TIP3    H131639   3.335   5.434   3.527  0.9687 -0.5227  0.4376
 3408TIP3    H231640   3.314   5.581   3.498 -0.1497 -0.9325 -0.8572
 3409TIP3   OH231641   0.140   2.120   1.920  0.0989 -0.1030 -0.6134
 3409TIP3    H131642   0.166   2.205   1.885  0.3129 -1.3126 -3.6047
 3409TIP3    H231643   0.222   2.073   1.933  0.0118  0.2817  1.5274
 3410TIP3   OH231644   2.189   2.967  13.043  0.0097  0.1945 -0.4089
 3410TIP3    H131645   2.217   3.056  13.025  1.8716  0.0067  1.4595
 3410TIP3    H231646   2.216   2.917  12.965  0.0164  1.0313 -0.9440
 3411TIP3   OH231647   2.746   1.669  11.733  0.9768 -0.6790 -0.0023
 3411TIP3    H131648   2.806   1.715  11.793 -1.9268 -0.0792  2.5603
 3411TIP3    H231649   2.801   1.645  11.658  4.0881  1.0860  1.6075
 3412TIP3   OH231650   0.915   2.071  15.545  0.1348  0.2581  0.3450
 3412TIP3    H131651   0.956   2.061  15.459 -0.4917  0.3113  0.0346
 3412TIP3    H231652   0.979   2.037  15.607  0.9449  1.0267 -0.0673
 3413TIP3   OH231653   2.508   4.627  11.621 -0.1340 -0.1047 -0.3019
 3413TIP3    H131654   2.475   4.667  11.702 -0.1646 -0.1430 -0.2956
 3413TIP3    H231655   2.485   4.691  11.552 -0.3641 -0.2035 -0.3190
 3414TIP3   OH231656   4.372   1.995  16.526 -0.5749  0.2184 -0.1137
 3414TIP3    H131657   4.305   2.057  16.553 -0.4229 -0.0772  0.9868
 3414TIP3    H231658   4.325   1.927  16.479 -1.2687 -0.6730  1.7867
 3415TIP3   OH231659   5.086   3.769  14.193  0.1435 -0.0625  0.6947
 3415TIP3    H131660   5.082   3.811  14.279  0.2103  0.3857  0.4775
 3415TIP3    H231661   5.025   3.696  14.200 -0.7334  0.6683  0.7412
 3416TIP3   OH231662   2.616   6.719  13.592 -0.4135  0.4281  0.2451
 3416TIP3    H131663   2.609   6.669  13.673  2.2406 -0.2587  0.1001
 3416TIP3    H231664   2.570   6.665  13.527 -0.0040 -0.4474  0.6728
 3417TIP3   OH231665   3.347   4.471   0.858  0.1795 -0.2910 -0.0709
 3417TIP3    H131666   3.318   4.540   0.918  1.2378 -1.3432  1.6898
 3417TIP3    H231667   3.412   4.515   0.802  0.0953  0.3993  0.3608
 3418TIP3   OH231668   2.885   0.212  11.205 -0.1534 -0.3070  1.1190
 3418TIP3    H131669   2.882   0.308  11.208 -2.0690 -0.2673 -0.8195
 3418TIP3    H231670   2.965   0.192  11.155  0.0667  0.2822  1.2349
 3419TIP3   OH231671   6.672   2.725  12.011  0.6000 -0.0100  0.4532
 3419TIP3    H131672   6.613   2.771  11.951  0.2646  0.0822  0.8542
 3419TIP3    H231673   6.626   2.643  12.031  0.1687  0.4850  1.5233
 3420TIP3   OH231674   3.340   6.319   3.948  0.0851  0.3929  0.7943
 3420TIP3    H131675   3.341   6.407   3.911 -0.7258 -0.3002 -0.9218
 3420TIP3    H231676   3.419   6.277   3.912  0.4221  0.3849  1.5387
 3421TIP3   OH231677   3.211   1.813  16.042 -0.5384 -0.2175 -0.1724
 3421TIP3    H131678   3.289   1.785  16.090 -1.3464  0.2475  1.4540
 3421TIP3    H231679   3.246   1.864  15.968  0.7482 -1.5483 -0.5083
 3422TIP3   OH231680   2.799   3.787   0.049  0.2006 -0.4853  0.3687
 3422TIP3    H131681   2.851   3.786   0.130  0.9387  2.4839 -0.0116
 3422TIP3    H231682   2.710   3.766   0.078  0.9609 -2.2976  1.5153
 3423TIP3   OH231683   2.669   3.091  16.196 -0.3591 -0.1031  0.7419
 3423TIP3    H131684   2.692   3.051  16.112 -1.9876  0.9380 -0.2200
 3423TIP3    H231685   2.705   3.031  16.262  0.0828 -1.4384 -0.6936
 3424TIP3   OH231686   4.040   3.962   3.697  0.1281  0.2821  0.4543
 3424TIP3    H131687   4.129   3.945   3.666  0.5696  1.8265  0.8551
 3424TIP3    H231688   3.984   3.909   3.639  1.3688 -1.7100  1.0240
 3425TIP3   OH231689   3.118   4.233   5.987 -0.2776  0.2027 -0.0401
 3425TIP3    H131690   3.112   4.293   6.061  1.0059  0.6709 -0.3094
 3425TIP3    H231691   3.212   4.214   5.978 -0.5658 -1.0648 -0.5773
 3426TIP3   OH231692   0.985   2.777   1.534 -0.6737 -0.0465 -0.8048
 3426TIP3    H131693   1.075   2.750   1.517 -0.5068  0.8695 -1.4441
 3426TIP3    H231694   0.933   2.732   1.468 -0.6585 -0.4197 -0.5620
 3427TIP3   OH231695   5.412   0.805  12.614  0.4112  0.5131 -0.0486
 3427TIP3    H131696   5.466   0.856  12.554 -1.0652  2.8090  0.5113
 3427TIP3    H231697   5.331   0.855  12.622 -2.0212 -3.0192 -1.1903
 3428TIP3   OH231698   0.452   2.164  15.495 -0.6065 -0.4228 -0.3769
 3428TIP3    H131699   0.483   2.230  15.557 -1.9802 -0.8153  0.7735
 3428TIP3    H231700   0.526   2.104  15.484 -0.3573 -0.3781  0.9458
 3429TIP3   OH231701   4.330   5.732   2.077 -0.0330  0.4511  0.4121
 3429TIP3    H131702   4.411   5.780   2.064  0.2610  0.3156  1.7167
 3429TIP3    H231703   4.358   5.645   2.107 -0.6580  0.3741  0.7832
 3430TIP3   OH231704   4.523   3.367  16.233 -0.2626 -0.2753 -0.1473
 3430TIP3    H131705   4.516   3.451  16.187  1.2161 -0.2390 -0.3150
 3430TIP3    H231706   4.446   3.364  16.289 -0.9669  0.6457 -1.0496
 3431TIP3   OH231707   5.804   4.868  14.077 -0.1528  0.0869  0.1020
 3431TIP3    H131708   5.748   4.810  14.128  0.5696 -1.3308 -0.6863
 3431TIP3    H231709   5.757   4.881  13.995 -0.9470  1.7234  0.8140
 3432TIP3   OH231710   4.091   5.789   5.052  0.2896  0.6002 -0.0326
 3432TIP3    H131711   4.012   5.806   5.000 -0.6640 -3.4232 -0.0382
 3432TIP3    H231712   4.072   5.708   5.099  3.6287  0.7188  1.6593
 3433TIP3   OH231713   0.646   0.769  13.967 -0.2811  0.1155 -0.4698
 3433TIP3    H131714   0.557   0.733  13.970  0.0889 -0.6936  1.6064
 3433TIP3    H231715   0.634   0.864  13.974 -1.0404  0.0851 -1.3470
 3434TIP3   OH231716   5.441   3.644  13.769 -0.0889  0.0264 -0.3136
 3434TIP3    H131717   5.510   3.578  13.768  0.6590  0.7396  1.7595
 3434TIP3    H231718   5.366   3.601  13.730  1.0419 -1.3067 -1.0653
 3435TIP3   OH231719   3.484   1.190  13.471 -0.0825 -0.1452  0.1280
 3435TIP3    H131720   3.401   1.235  13.477  0.9072  1.7397  0.0680
 3435TIP3    H231721   3.545   1.243  13.523  1.3296 -0.8351 -0.7613
 3436TIP3   OH231722   2.176   5.840  10.609 -0.1237 -0.1129 -0.4607
 3436TIP3    H131723   2.114   5.770  10.630 -0.3786  0.1858 -0.2132
 3436TIP3    H231724   2.171   5.848  10.514  1.6898 -2.0777 -0.7520
 3437TIP3   OH231725   6.038   3.912  13.854 -0.2463  0.0046 -0.2692
 3437TIP3    H131726   6.062   3.901  13.763  0.5098 -0.2003 -0.0455
 3437TIP3    H231727   5.946   3.884  13.858 -0.0825 -0.6282 -0.8301
 3438TIP3   OH231728   1.582   1.963  16.107 -0.3567 -0.1561 -0.0337
 3438TIP3    H131729   1.570   2.035  16.168  0.2160 -0.1170  0.0336
 3438TIP3    H231730   1.664   1.984  16.061  0.3761 -1.2884  0.7326
 3439TIP3   OH231731   2.461   0.068  14.409  0.3429 -0.0061  0.2753
 3439TIP3    H131732   2.396   0.054  14.341 -0.4822  0.5354  0.9465
 3439TIP3    H231733   2.475  -0.018  14.448  0.4767 -0.2297 -0.2656
 3440TIP3   OH231734   4.152   0.088  14.644  0.8365 -0.1111 -0.5112
 3440TIP3    H131735   4.224   0.068  14.584  0.2098 -1.3753 -0.8610
 3440TIP3    H231736   4.073   0.081  14.590  0.3219 -0.5190  0.2934
 3441TIP3   OH231737   5.403   5.640  12.603  0.7177 -0.0922 -0.5948
 3441TIP3    H131738   5.381   5.565  12.548 -1.4253 -0.5235  0.7833
 3441TIP3    H231739   5.327   5.697  12.596  1.6960  1.2582 -0.4127
 3442TIP3   OH231740   5.749   0.233   0.285 -0.0191  0.1733 -0.0943
 3442TIP3    H131741   5.830   0.236   0.234 -0.4277  2.4221 -0.6862
 3442TIP3    H231742   5.775   0.194   0.368  1.2086 -1.1400 -1.0749
 3443TIP3   OH231743   1.080   3.813  13.645 -0.3798  0.1284 -0.0506
 3443TIP3    H131744   1.111   3.739  13.592 -2.3377  0.6766 -2.0067
 3443TIP3    H231745   1.160   3.862  13.665  0.5365 -0.7120 -1.5180
 3444TIP3   OH231746   2.960   1.833  12.606  0.0781 -0.3618 -0.0799
 3444TIP3    H131747   2.936   1.901  12.668 -0.7847 -0.2408 -0.5429
 3444TIP3    H231748   3.042   1.797  12.640  0.0844  0.3202  0.6287
 3445TIP3   OH231749   1.747   1.680   3.901  0.4614 -0.2236 -0.2164
 3445TIP3    H131750   1.780   1.737   3.970 -0.8817 -0.1681  0.4029
 3445TIP3    H231751   1.666   1.722   3.872  1.0261 -0.2169 -1.8705
 3446TIP3   OH231752   1.370   1.972  11.425 -0.1713 -0.4614 -0.4150
 3446TIP3    H131753   1.446   1.963  11.368  0.1555  1.1219 -0.2441
 3446TIP3    H231754   1.299   2.000  11.367  0.5323  2.6918  0.1302
 3447TIP3   OH231755   5.437   0.474  15.453  0.9956 -0.4344  0.6897
 3447TIP3    H131756   5.475   0.479  15.365  0.3896 -1.3686  0.3674
 3447TIP3    H231757   5.510   0.492  15.512  2.1766 -3.1662  0.1196
 3448TIP3   OH231758   1.136   6.238   1.863  0.0425 -0.3259 -0.5746
 3448TIP3    H131759   1.112   6.263   1.953 -0.1168  1.6881 -1.1435
 3448TIP3    H231760   1.212   6.293   1.843  1.2254 -2.0962 -1.0374
 3449TIP3   OH231761   4.865   6.711   4.423 -0.3970 -0.3287 -0.2445
 3449TIP3    H131762   4.797   6.733   4.487  1.1162  0.8087  1.0050
 3449TIP3    H231763   4.825   6.727   4.338 -2.5514 -2.1445  0.3856
 3450TIP3   OH231764   0.706   4.801   3.990 -0.5850 -0.2776 -0.2348
 3450TIP3    H131765   0.633   4.828   3.935 -1.8123  0.9825  1.9580
 3450TIP3    H231766   0.779   4.790   3.929 -1.4917  2.5749 -1.9438
 3451TIP3   OH231767   3.062   5.497  14.562 -0.0834 -0.0522  0.0219
 3451TIP3    H131768   3.035   5.499  14.654 -2.9619 -0.1652 -0.7568
 3451TIP3    H231769   3.131   5.431  14.558  1.5060  1.3977  2.4369
 3452TIP3   OH231770   4.815   4.082  15.536  0.3128  0.1103  0.3165
 3452TIP3    H131771   4.733   4.117  15.572 -0.2102 -1.0965  0.3079
 3452TIP3    H231772   4.838   4.143  15.466 -0.9867  0.0408 -0.1856
 3453TIP3   OH231773   0.368   6.229  10.661  0.0951  0.0660 -0.6736
 3453TIP3    H131774   0.457   6.246  10.631  0.8924 -1.7669  0.5614
 3453TIP3    H231775   0.365   6.263  10.750 -0.5733  0.4858 -0.8529
 3454TIP3   OH231776   1.186   0.836   5.617 -0.5330  0.1621  0.2361
 3454TIP3    H131777   1.100   0.837   5.659 -0.2210  1.0795  0.8807
 3454TIP3    H231778   1.171   0.796   5.532 -2.1492  2.8484 -0.8186
 3455TIP3   OH231779   6.392   2.959   2.341 -0.3458 -0.3769  0.2272
 3455TIP3    H131780   6.365   2.923   2.426 -1.8887  1.1944  0.4459
 3455TIP3    H231781   6.438   3.040   2.363 -3.2043  1.5230 -0.4850
 3456TIP3   OH231782   6.399   3.900  15.540 -0.5864 -0.3951  0.3075
 3456TIP3    H131783   6.318   3.924  15.586  0.1878  0.1076  1.4286
 3456TIP3    H231784   6.465   3.896  15.609  0.4547 -0.2630 -0.6754
 3457TIP3   OH231785   1.021   3.981   3.958  0.2428 -0.3950 -0.2778
 3457TIP3    H131786   1.108   3.944   3.968  0.8720  0.9925 -0.4209
 3457TIP3    H231787   0.994   4.004   4.047  0.9188  1.1040 -0.4380
 3458TIP3   OH231788   3.943   5.231  16.413 -0.4742  0.0891 -0.0496
 3458TIP3    H131789   3.936   5.184  16.496 -1.8850 -0.0912 -0.2546
 3458TIP3    H231790   3.865   5.287  16.410  0.8190  1.9563 -0.1263
 3459TIP3   OH231791   6.092   6.268  14.183  0.4104 -0.0116  0.4857
 3459TIP3    H131792   6.037   6.204  14.227  0.8013  0.0963  1.1372
 3459TIP3    H231793   6.055   6.353  14.206 -0.2650 -0.0122 -0.5914
 3460TIP3   OH231794   5.812   3.777  11.226  0.2716  0.0537 -0.3910
 3460TIP3    H131795   5.767   3.694  11.242 -2.9304  1.4346 -1.8282
 3460TIP3    H231796   5.768   3.839  11.284  0.8139  1.2778 -1.2697
 3461TIP3   OH231797   5.674   6.361  13.054 -0.0756 -0.2508  0.1734
 3461TIP3    H131798   5.632   6.343  13.138 -1.0853  1.8361  0.1339
 3461TIP3    H231799   5.750   6.414  13.075 -0.2255  0.1243 -0.2235
 3462TIP3   OH231800   3.495   5.235  15.030 -0.5164 -0.9331  0.0392
 3462TIP3    H131801   3.541   5.223  15.113 -0.3281 -0.5749 -0.0123
 3462TIP3    H231802   3.402   5.232  15.054 -0.4639 -1.4922  0.1673
 3463TIP3   OH231803   2.113   0.408  11.968  0.3598 -0.0556  0.2642
 3463TIP3    H131804   2.169   0.395  12.044  1.4581 -2.5778 -0.9165
 3463TIP3    H231805   2.152   0.483  11.922  0.9125  0.1662  1.0935
 3464TIP3   OH231806   1.581   5.725  16.546 -0.3334  0.3288  0.2166
 3464TIP3    H131807   1.577   5.725  16.642 -0.5705 -1.3860  0.2240
 3464TIP3    H231808   1.499   5.765  16.518 -1.5358 -1.7076  0.7262
 3465TIP3   OH231809   3.916   1.022   2.974 -0.2267 -0.6635  0.6595
 3465TIP3    H131810   3.864   1.045   3.051 -0.0671  1.1076  0.2511
 3465TIP3    H231811   3.898   0.929   2.960 -1.8768 -0.4960  1.5834
 3466TIP3   OH231812   4.946   2.548  14.417 -0.5047  0.6129  0.6638
 3466TIP3    H131813   5.013   2.502  14.468 -2.1499 -1.6290  0.8953
 3466TIP3    H231814   4.972   2.640  14.420  1.9766 -0.0880  1.6122
 3467TIP3   OH231815   1.061   3.816   2.759 -0.1358 -0.1168 -0.3352
 3467TIP3    H131816   1.138   3.873   2.767  0.9328 -1.7405  1.2178
 3467TIP3    H231817   1.060   3.791   2.667  0.5786  0.7793 -0.6000
 3468TIP3   OH231818   5.509   4.127   3.925 -0.5915 -0.4196 -0.3041
 3468TIP3    H131819   5.543   4.069   3.993 -0.3192 -1.2415 -1.1303
 3468TIP3    H231820   5.579   4.190   3.910 -0.3702 -0.6682 -0.3187
 3469TIP3   OH231821   5.244   0.655  12.928  0.0738 -0.0604 -0.3875
 3469TIP3    H131822   5.163   0.660  12.877 -0.3102  1.0506  0.3140
 3469TIP3    H231823   5.216   0.663  13.019  0.8800 -0.7019 -0.0727
 3470TIP3   OH231824   5.884   3.584  16.629  0.4435  0.5454  0.4499
 3470TIP3    H131825   5.813   3.527  16.657 -0.9670  1.8426 -0.4126
 3470TIP3    H231826   5.893   3.649  16.699  0.5763  0.5754  0.4077
 3471TIP3   OH231827   0.410   5.145  14.164  0.1961  0.2934 -0.0690
 3471TIP3    H131828   0.417   5.149  14.069  0.8005 -0.9472 -0.0788
 3471TIP3    H231829   0.407   5.237  14.192 -0.4417  0.6601 -1.3080
 3472TIP3   OH231830   6.692   2.417  17.198 -0.6493  0.4001 -0.4068
 3472TIP3    H131831   6.732   2.331  17.183  0.1417  0.6945 -0.0301
 3472TIP3    H231832   6.605   2.398  17.234 -1.6690 -0.2851 -3.1506
 3473TIP3   OH231833   1.465   2.117   3.301 -0.1993  0.5774  0.2027
 3473TIP3    H131834   1.471   2.057   3.227 -0.6935  0.2451  0.4315
 3473TIP3    H231835   1.556   2.134   3.325 -0.0480 -2.3300  1.9350
 3474TIP3   OH231836   1.120   2.773   2.420 -0.0214  0.8775  0.0975
 3474TIP3    H131837   1.166   2.731   2.493  0.8312  1.0288 -0.3542
 3474TIP3    H231838   1.037   2.727   2.415  0.2376  0.3388  0.6639
 3475TIP3   OH231839   3.458   0.316  14.409 -0.1709 -0.4552  0.1883
 3475TIP3    H131840   3.385   0.372  14.434  1.3640  1.5838  0.2553
 3475TIP3    H231841   3.472   0.335  14.316 -0.2555 -1.4697 -0.0400
 3476TIP3   OH231842   2.202   1.041   0.372  0.3516  0.4295 -0.2972
 3476TIP3    H131843   2.134   1.015   0.434  0.4403  0.3394 -0.2361
 3476TIP3    H231844   2.216   0.962   0.319 -1.2296  1.1408 -1.8357
 3477TIP3   OH231845   5.599   2.449   4.547  0.2665 -1.0408 -0.0938
 3477TIP3    H131846   5.665   2.466   4.480  0.3860 -2.1512 -0.2673
 3477TIP3    H231847   5.635   2.379   4.600 -0.0491 -0.5016  0.8419
 3478TIP3   OH231848   3.525   5.952  12.609 -0.0843 -0.0143 -0.1105
 3478TIP3    H131849   3.472   5.873  12.596  0.1499  0.1720 -2.5543
 3478TIP3    H231850   3.486   6.017  12.550  1.2322  0.9482  0.0482
 3479TIP3   OH231851   5.754   0.325   4.861 -0.0430 -0.7337 -0.6958
 3479TIP3    H131852   5.694   0.333   4.787 -2.1836  1.6618  1.2011
 3479TIP3    H231853   5.841   0.342   4.824 -1.1417  1.0189 -2.5841
 3480TIP3   OH231854   0.435   2.677  12.860  0.3287 -0.7662 -0.1655
 3480TIP3    H131855   0.495   2.608  12.832 -0.6282 -1.7793  0.2311
 3480TIP3    H231856   0.465   2.702  12.947  1.1827 -0.0763 -0.6437
 3481TIP3   OH231857   1.144   2.481   4.902 -0.0357 -0.0035  0.8255
 3481TIP3    H131858   1.054   2.511   4.896  0.2576  0.6471 -0.4006
 3481TIP3    H231859   1.183   2.535   4.970 -0.4357  0.0583  1.0069
 3482TIP3   OH231860   3.352   2.649  15.314 -0.1033 -0.0060 -0.3699
 3482TIP3    H131861   3.389   2.639  15.402  0.4165  1.1175 -0.4477
 3482TIP3    H231862   3.429   2.658  15.257 -0.3828 -2.3889 -1.1698
 3483TIP3   OH231863   3.233   5.771   3.848  0.1880  0.1718 -0.8695
 3483TIP3    H131864   3.211   5.732   3.764 -2.1816 -0.3863 -0.0352
 3483TIP3    H231865   3.162   5.834   3.865  0.5836  0.2184  0.7210
 3484TIP3   OH231866   2.530   2.037  11.007 -0.5551 -0.0015 -0.1243
 3484TIP3    H131867   2.563   1.949  11.027 -1.4572 -0.3110  0.0222
 3484TIP3    H231868   2.448   2.044  11.056  0.0233  1.3062  0.6506
 3485TIP3   OH231869   3.518   0.046  15.921 -0.0260 -0.6749 -0.0020
 3485TIP3    H131870   3.598   0.093  15.945 -0.9623  0.1787  1.5065
 3485TIP3    H231871   3.479   0.100  15.852 -0.4121  0.0893  0.7983
 3486TIP3   OH231872   0.954   4.941  12.982 -0.1060 -0.2106  0.2478
 3486TIP3    H131873   0.881   4.982  13.028 -1.2446 -1.4004 -0.4304
 3486TIP3    H231874   1.029   4.998  12.999 -1.0793  0.7654  1.3793
 3487TIP3   OH231875   1.740   2.530   0.139  0.2285 -0.0406 -0.0209
 3487TIP3    H131876   1.706   2.618   0.123  1.5052  0.4349 -0.1360
 3487TIP3    H231877   1.663   2.478   0.162 -0.8259  0.6265 -1.9366
 3488TIP3   OH231878   1.232   3.185  14.866 -0.0677  0.3831 -0.1707
 3488TIP3    H131879   1.309   3.139  14.833 -1.0958 -1.7648  0.3142
 3488TIP3    H231880   1.247   3.194  14.960 -0.8821 -1.1051  0.1314
 3489TIP3   OH231881   3.870   3.278   4.796 -0.4314 -0.4233  0.0199
 3489TIP3    H131882   3.874   3.238   4.709 -2.9688 -0.7416  0.0179
 3489TIP3    H231883   3.859   3.204   4.856 -1.3766 -0.0234  0.3538
 3490TIP3   OH231884   0.225   1.809  13.159  0.0642  0.5213  0.3585
 3490TIP3    H131885   0.167   1.883  13.149  1.5096  1.9516  2.0211
 3490TIP3    H231886   0.221   1.788  13.253  1.2102 -0.1755  0.2677
 3491TIP3   OH231887   2.606   5.196  14.693 -0.4030  0.4871  0.3018
 3491TIP3    H131888   2.606   5.100  14.704  1.0512  0.5635  1.1395
 3491TIP3    H231889   2.585   5.230  14.780 -1.6665  0.9341 -0.1686
 3492TIP3   OH231890   1.314   3.154   5.712 -0.0550  0.3060  0.1659
 3492TIP3    H131891   1.337   3.215   5.782 -0.9936  0.8693 -0.0083
 3492TIP3    H231892   1.218   3.151   5.714 -0.0341 -0.6952 -0.2268
 3493TIP3   OH231893   1.355   0.285  14.614 -0.7520 -0.6614  0.1630
 3493TIP3    H131894   1.308   0.338  14.678 -2.2139  0.4474 -1.7870
 3493TIP3    H231895   1.312   0.200  14.616 -1.2575 -0.4069  0.1431
 3494TIP3   OH231896   4.767   6.308  13.043 -0.0164 -0.0109 -0.5055
 3494TIP3    H131897   4.860   6.304  13.065  0.3684  0.3263 -2.0041
 3494TIP3    H231898   4.736   6.218  13.053 -0.0317  0.2594  2.0453
 3495TIP3   OH231899   4.268   2.236  12.017  0.0483  0.0388  0.4025
 3495TIP3    H131900   4.289   2.305  11.955  1.7160 -1.1217 -0.3413
 3495TIP3    H231901   4.290   2.154  11.972 -0.7720 -0.9220  1.7008
 3496TIP3   OH231902   1.189   5.650  16.711  0.1486  0.3070  0.2616
 3496TIP3    H131903   1.185   5.572  16.767  2.9871  0.8767  1.3434
 3496TIP3    H231904   1.199   5.616  16.623  1.7560 -0.5988  0.7695
 3497TIP3   OH231905   0.149   1.009  15.977 -0.1754 -0.4188  0.0160
 3497TIP3    H131906   0.200   1.069  15.923  0.5089 -0.5120  0.5424
 3497TIP3    H231907   0.062   1.009  15.938 -0.3323  1.3217  0.3098
 3498TIP3   OH231908   5.809   3.348   2.774  0.5141 -0.4247  0.5939
 3498TIP3    H131909   5.777   3.388   2.693 -0.4347 -0.6913  0.8273
 3498TIP3    H231910   5.899   3.321   2.753  0.7487  0.7367  0.0697
 3499TIP3   OH231911   2.142   3.560  16.746 -0.0782  0.0351 -0.2009
 3499TIP3    H131912   2.226   3.597  16.774  0.3062 -0.6272 -0.4642
 3499TIP3    H231913   2.080   3.632  16.755  0.6433  0.7229 -0.6260
 3500TIP3   OH231914   5.400   6.316  11.335 -0.4703  0.0833 -0.1415
 3500TIP3    H131915   5.495   6.329  11.333 -0.6894  2.0312  0.9965
 3500TIP3    H231916   5.386   6.237  11.283  1.7073  0.1455 -0.8885
 3501TIP3   OH231917   1.319   4.759  12.497 -0.1942  0.4654  0.5941
 3501TIP3    H131918   1.327   4.812  12.417 -1.9688  0.9927  0.7398
 3501TIP3    H231919   1.391   4.788  12.553  2.4928 -1.5149 -1.6726
 3502TIP3   OH231920   2.436   1.304  16.777 -0.1886 -0.2362  1.0905
 3502TIP3    H131921   2.458   1.318  16.869  0.7350 -0.5638  0.9261
 3502TIP3    H231922   2.452   1.210  16.762  0.4659 -0.0157  0.3836
 3503TIP3   OH231923   4.044   3.358  16.345  0.3384  0.1868 -0.2874
 3503TIP3    H131924   4.018   3.335  16.434  1.6287 -0.9136 -0.1824
 3503TIP3    H231925   4.050   3.453  16.345 -1.1618  0.3023  0.3697
 3504TIP3   OH231926   5.211   0.246   5.005 -0.2447  0.2598  0.0945
 3504TIP3    H131927   5.208   0.341   5.010 -0.7073  0.2559 -0.0456
 3504TIP3    H231928   5.297   0.222   5.039 -0.6143  0.6556  1.3197
 3505TIP3   OH231929   1.815   1.601  15.762  0.1615 -0.1425 -0.1835
 3505TIP3    H131930   1.736   1.548  15.772 -0.2904  0.5857  0.1540
 3505TIP3    H231931   1.835   1.631  15.851  0.2531  0.4824 -0.4128
 3506TIP3   OH231932   4.100   0.675  17.031  0.0586 -0.4890  0.2355
 3506TIP3    H131933   4.072   0.667  17.122 -0.0639 -1.3440  0.1214
 3506TIP3    H231934   4.046   0.612  16.983 -3.0871  3.0464 -1.1450
 3507TIP3   OH231935   3.333   1.999   1.034  0.5852  0.6582 -0.5627
 3507TIP3    H131936   3.369   1.929   0.980  0.1620 -0.2387  0.3148
 3507TIP3    H231937   3.326   1.961   1.121  1.7025  2.2328  0.2416
 3508TIP3   OH231938   5.760   6.417   2.629 -0.5141  0.5403  0.0539
 3508TIP3    H131939   5.756   6.390   2.537  0.5906  1.7164 -0.3514
 3508TIP3    H231940   5.673   6.394   2.664 -0.4136 -1.3438 -0.8554
 3509TIP3   OH231941   0.339   1.805  16.308 -1.0843  0.1006 -0.3642
 3509TIP3    H131942   0.348   1.899  16.293 -0.9818  0.1202 -0.1895
 3509TIP3    H231943   0.305   1.770  16.226 -1.4344  0.3394 -0.3216
 3510TIP3   OH231944   1.149   4.657   3.721 -0.7226 -0.2841 -0.3120
 3510TIP3    H131945   1.239   4.649   3.752 -1.1903 -0.9029  0.9292
 3510TIP3    H231946   1.157   4.672   3.627  0.6284 -2.1698 -0.5246
 3511TIP3   OH231947   6.081   0.071  11.931 -0.5347  0.3034  0.1313
 3511TIP3    H131948   6.151   0.052  11.868 -0.2740 -1.2648  0.8716
 3511TIP3    H231949   6.015   0.117  11.879  0.3946  0.5050 -0.9115
 3512TIP3   OH231950   1.696   1.450   6.571  0.0259 -0.3504  0.6679
 3512TIP3    H131951   1.730   1.539   6.573 -2.9843  0.9278 -0.9930
 3512TIP3    H231952   1.605   1.460   6.543 -0.4957 -3.9262  0.8405
 3513TIP3   OH231953   2.554   3.809  11.606 -0.2092 -0.6783 -0.1690
 3513TIP3    H131954   2.623   3.847  11.552  1.1874  0.3904  2.2710
 3513TIP3    H231955   2.570   3.715  11.601 -0.5015 -0.6478 -2.0969
 3514TIP3   OH231956   1.116   4.485  16.014 -0.1456  0.8252  0.1043
 3514TIP3    H131957   1.125   4.407  16.068  0.2031  0.9084  0.1608
 3514TIP3    H231958   1.205   4.508  15.989 -0.0136  2.5732  2.0242
 3515TIP3   OH231959   6.326   6.107  12.241  0.2014  0.1450 -0.1390
 3515TIP3    H131960   6.367   6.183  12.199 -1.7910  0.4914 -1.5262
 3515TIP3    H231961   6.236   6.134  12.259  0.3829 -0.7771  2.3893
 3516TIP3   OH231962   2.269   3.313   0.259  0.1846  0.1865 -0.3658
 3516TIP3    H131963   2.351   3.353   0.229  0.5179 -0.2441 -0.0393
 3516TIP3    H231964   2.221   3.295   0.178  0.5745  0.0986 -0.5806
 3517TIP3   OH231965   1.467   3.002  12.753  0.3442 -0.2901 -0.1171
 3517TIP3    H131966   1.462   2.933  12.688 -0.4402  0.4472 -0.8532
 3517TIP3    H231967   1.434   3.080  12.708 -0.3538  0.1904  1.1969
 3518TIP3   OH231968   4.535   4.100   1.079  0.5396  0.5201 -0.0678
 3518TIP3    H131969   4.517   4.108   1.172  0.0945  1.8477 -0.2620
 3518TIP3    H231970   4.548   4.190   1.049  4.4004 -0.0901 -0.5572
 3519TIP3   OH231971   6.556   5.318   3.439  0.1768  0.0269  0.5609
 3519TIP3    H131972   6.545   5.255   3.510 -2.4995 -0.0075  0.1695
 3519TIP3    H231973   6.607   5.270   3.373 -2.0647 -1.8867  0.1445
 3520TIP3   OH231974   0.949   6.656  16.957  0.1460 -0.2479 -0.1377
 3520TIP3    H131975   0.922   6.711  17.031  1.8859  1.1863 -0.5163
 3520TIP3    H231976   0.958   6.718  16.885  0.7382 -1.2798 -0.9479
 3521TIP3   OH231977   5.667   0.776  17.200 -0.3947  0.7431 -0.0224
 3521TIP3    H131978   5.716   0.842  17.249  1.4467 -0.5224 -0.1098
 3521TIP3    H231979   5.600   0.826  17.154 -0.0538  2.3588  1.1501
 3522TIP3   OH231980   4.139   4.213   1.774 -0.3829 -0.1207 -0.1474
 3522TIP3    H131981   4.208   4.222   1.840 -0.5174 -0.7425  0.0750
 3522TIP3    H231982   4.149   4.291   1.719  1.1139 -0.6884 -0.7035
 3523TIP3   OH231983   1.992   4.072   5.801 -0.2904  0.0342  0.5202
 3523TIP3    H131984   1.975   3.990   5.847 -0.7124  0.9870  2.0974
 3523TIP3    H231985   2.086   4.070   5.782 -0.2180 -0.6086  0.9457
 3524TIP3   OH231986   4.049   1.440   0.841 -0.1552 -0.0848 -0.1730
 3524TIP3    H131987   4.047   1.521   0.892 -0.1633  0.5927 -1.2222
 3524TIP3    H231988   4.097   1.378   0.896  1.9474  1.3323 -0.3370
 3525TIP3   OH231989   6.626   3.203   0.550  0.1613  0.2095  0.4674
 3525TIP3    H131990   6.639   3.281   0.604 -1.5086 -0.5373  2.0391
 3525TIP3    H231991   6.711   3.159   0.549  1.0283  1.8473 -0.1580
 3526TIP3   OH231992   1.259   1.580   1.567 -0.1521 -0.0168  0.1636
 3526TIP3    H131993   1.299   1.493   1.578 -2.2108 -0.8695  1.2375
 3526TIP3    H231994   1.202   1.571   1.491 -1.8199 -0.1751  1.4152
 3527TIP3   OH231995   4.433   4.317  17.121  0.0867 -0.2047 -0.0786
 3527TIP3    H131996   4.433   4.221  17.117 -1.2993 -0.1392 -3.1294
 3527TIP3    H231997   4.448   4.344  17.030 -0.8917  2.4534  0.5244
 3528TIP3   OH231998   4.827   2.905   2.734  0.1963  0.0167 -0.0413
 3528TIP3    H131999   4.897   2.940   2.788 -0.5543  1.7661 -0.1542
 3528TIP3    H232000   4.749   2.912   2.789 -0.4438  1.1375 -1.0696
 3529TIP3   OH232001   0.949   0.519   6.130 -0.1689 -0.3959 -0.3825
 3529TIP3    H132002   0.905   0.439   6.159 -0.6743  0.1443  0.3837
 3529TIP3    H232003   0.948   0.576   6.207  2.5454 -0.6343 -0.1253
 3530TIP3   OH232004   0.416   3.109   0.841  0.7927  0.5102 -0.2816
 3530TIP3    H132005   0.446   3.190   0.882  0.9919 -1.1144  2.9188
 3530TIP3    H232006   0.496   3.058   0.827  0.4090 -0.2643  0.3032
 3531TIP3   OH232007   5.123   0.080   1.410  0.0182 -0.2451 -0.1047
 3531TIP3    H132008   5.111   0.164   1.455  1.9300  1.0570 -1.8617
 3531TIP3    H232009   5.134   0.105   1.318  0.6068 -2.4344 -0.6411
 3532TIP3   OH232010   0.220   5.197   2.440  0.2236  0.3133 -0.1902
 3532TIP3    H132011   0.252   5.283   2.467 -1.3135  1.2159 -1.1780
 3532TIP3    H232012   0.125   5.204   2.441  0.0683 -1.4280 -0.1336
 3533TIP3   OH232013   0.434   5.715   3.622 -0.4070 -0.8874  0.0709
 3533TIP3    H132014   0.420   5.630   3.664 -2.5535 -0.1757  0.8274
 3533TIP3    H232015   0.374   5.774   3.666 -0.8522  0.4479 -2.2518
 3534TIP3   OH232016   2.493   1.566  13.697 -0.0368  0.0905 -0.7833
 3534TIP3    H132017   2.530   1.651  13.671  1.1393  0.1457  0.9564
 3534TIP3    H232018   2.540   1.502  13.642  0.9354  0.3712 -0.3038
 3535TIP3   OH232019   3.603   0.687   5.092 -0.0635 -0.1516 -0.3910
 3535TIP3    H132020   3.606   0.593   5.109  1.0087 -0.2017 -0.8288
 3535TIP3    H232021   3.674   0.702   5.030 -0.0323  0.9967 -0.0767
 3536TIP3   OH232022   3.715   2.222  13.386  0.6317  0.5368 -0.4232
 3536TIP3    H132023   3.714   2.128  13.369  0.5699  0.3012  0.8646
 3536TIP3    H232024   3.679   2.261  13.306 -0.1682 -0.5834 -0.6248
 3537TIP3   OH232025   4.364   0.201   2.731  0.1379  0.1131 -0.1464
 3537TIP3    H132026   4.425   0.183   2.660  0.2759  1.1851 -0.3171
 3537TIP3    H232027   4.282   0.225   2.687 -0.0652 -0.2010  0.0636
 3538TIP3   OH232028   1.817   6.671   2.687  0.2690 -0.0450 -0.3800
 3538TIP3    H132029   1.899   6.712   2.663  1.6990 -2.9353 -0.6904
 3538TIP3    H232030   1.787   6.628   2.607 -0.0574 -1.3928  0.4445
 3539TIP3   OH232031   1.952   3.498  13.338  0.0143 -0.1813  0.1760
 3539TIP3    H132032   1.887   3.561  13.307  0.8945 -0.0584 -1.5207
 3539TIP3    H232033   2.015   3.551  13.387 -0.7520 -0.1886  1.1820
 3540TIP3   OH232034   2.475   1.839   4.814  0.1941 -0.2199 -0.3762
 3540TIP3    H132035   2.511   1.752   4.832  1.0321  0.3665  0.8194
 3540TIP3    H232036   2.548   1.887   4.777  0.1390  0.4198  0.3400
 3541TIP3   OH232037   5.189   5.429  10.553  0.3825  0.5410 -1.0012
 3541TIP3    H132038   5.138   5.502  10.518 -0.6040  0.7201  0.7479
 3541TIP3    H232039   5.269   5.470  10.588  0.1332  0.7019 -0.6165
 3542TIP3   OH232040   0.024   5.837  10.547  0.3396 -0.1288 -0.8881
 3542TIP3    H132041  -0.013   5.921  10.521 -0.6825  0.1378  1.2735
 3542TIP3    H232042   0.118   5.849  10.540  0.1703  0.8554 -1.6007
 3543TIP3   OH232043   3.073   0.036  16.930 -0.4761  0.2275  0.2027
 3543TIP3    H132044   2.998  -0.018  16.906 -0.5459  0.0047  0.8952
 3543TIP3    H232045   3.122   0.047  16.849 -0.6385 -0.6093 -0.0123
 3544TIP3   OH232046   4.968   0.893  11.107  0.3831  0.0524  0.0197
 3544TIP3    H132047   4.960   0.934  11.021  0.1284 -1.3345 -0.6306
 3544TIP3    H232048   4.890   0.838  11.115 -1.2784  2.5986  2.4972
 3545TIP3   OH232049   2.780   6.569   4.442 -0.4438 -0.5000  0.6527
 3545TIP3    H132050   2.754   6.627   4.371 -0.2466  0.7696  1.5882
 3545TIP3    H232051   2.737   6.486   4.423  0.1593 -0.3889 -1.3090
 3546TIP3   OH232052   4.241   1.766   3.345  0.1667 -0.6117 -0.3409
 3546TIP3    H132053   4.224   1.724   3.429  0.5306 -0.9697 -0.4448
 3546TIP3    H232054   4.199   1.852   3.353  0.2961 -0.5987  0.2454
 3547TIP3   OH232055   5.541   3.500   4.026 -1.0537  0.3407  0.4978
 3547TIP3    H132056   5.470   3.467   3.972 -0.3445 -1.0805  0.4174
 3547TIP3    H232057   5.600   3.545   3.965 -0.0119 -1.6649 -0.0117
 3548TIP3   OH232058   6.323   1.564   5.876 -0.0098  0.8969  0.0800
 3548TIP3    H132059   6.279   1.535   5.956  0.6696  0.4896  0.3161
 3548TIP3    H232060   6.260   1.548   5.806  0.8134 -2.3957  0.0376
 3549TIP3   OH232061   0.778   2.773  13.485  0.3224 -0.4698  0.1972
 3549TIP3    H132062   0.873   2.762  13.473  0.5527  0.2043  1.3206
 3549TIP3    H232063   0.764   2.868  13.475 -0.6505 -0.8543 -2.7183
 3550TIP3   OH232064   6.499   5.665  14.969  0.0781  0.1580 -0.1048
 3550TIP3    H132065   6.412   5.706  14.976 -0.8680 -1.9688  1.0026
 3550TIP3    H232066   6.548   5.699  15.043 -0.2614  0.2916  0.0598
 3551TIP3   OH232067   6.222   1.754  16.014 -0.6581 -0.3484 -0.2638
 3551TIP3    H132068   6.130   1.729  16.006 -0.7939  0.0134  0.1167
 3551TIP3    H232069   6.225   1.844  15.984 -0.6261 -0.0056  0.7278
 3552TIP3   OH232070   2.478   4.145   3.437 -0.2089 -0.1533 -0.0781
 3552TIP3    H132071   2.546   4.197   3.393 -0.1914 -1.1198 -1.2229
 3552TIP3    H232072   2.518   4.059   3.449 -0.3470 -0.0019  1.5377
 3553TIP3   OH232073   6.335   1.979   4.218 -0.6677 -0.0539 -0.0959
 3553TIP3    H132074   6.258   2.035   4.225 -1.3765 -1.1568  1.0793
 3553TIP3    H232075   6.310   1.898   4.262  1.0135 -0.5888 -0.1021
 3554TIP3   OH232076   5.012   1.720   5.846  0.8883  0.1188 -0.5105
 3554TIP3    H132077   5.073   1.657   5.884  0.3595  1.3765  2.5434
 3554TIP3    H232078   4.936   1.668   5.819  0.4517 -0.5919  1.9945
 3555TIP3   OH232079   1.111   3.639  15.363  0.4888 -0.0311 -0.2198
 3555TIP3    H132080   1.184   3.608  15.416 -0.1801  0.2480  0.8845
 3555TIP3    H232081   1.078   3.715  15.410  2.2491  2.5702 -3.0273
 3556TIP3   OH232082   0.578   6.594  15.201  0.5089  0.0379  0.1960
 3556TIP3    H132083   0.645   6.662  15.199 -0.0255  0.5765  0.4687
 3556TIP3    H232084   0.555   6.584  15.294  0.0631  0.0069  0.0854
 3557TIP3   OH232085   4.222   0.018   6.686  0.4011  0.0209  0.2846
 3557TIP3    H132086   4.194   0.061   6.605 -0.9653  1.0825  1.2916
 3557TIP3    H232087   4.317   0.032   6.689  0.0757  2.5197  0.2968
 3558TIP3   OH232088   5.795   0.081   4.609  0.6693 -0.1119  0.0907
 3558TIP3    H132089   5.875   0.058   4.561  0.4775 -0.1336 -0.2209
 3558TIP3    H232090   5.764   0.161   4.567  1.6950  1.1187  1.5914
 3559TIP3   OH232091   0.551   0.343   6.134  0.0741 -0.1643 -0.3239
 3559TIP3    H132092   0.456   0.352   6.137  0.0613 -0.5347  0.7473
 3559TIP3    H232093   0.568   0.255   6.169  0.8661  0.3206  0.5413
 3560TIP3   OH232094   3.646   1.536  16.502  0.4726  0.0318  0.0784
 3560TIP3    H132095   3.721   1.557  16.446  0.2292 -2.0843 -1.0608
 3560TIP3    H232096   3.663   1.447  16.533  0.0348  0.7444  2.4848
 3561TIP3   OH232097   2.072   2.835   4.805  0.0695  0.3124 -0.2394
 3561TIP3    H132098   2.071   2.815   4.712  2.7044 -0.4910 -0.1431
 3561TIP3    H232099   2.151   2.888   4.817  0.5814 -0.8641  1.7592
 3562TIP3   OH232100   1.714   6.345   5.810  0.2937 -0.2096 -0.2002
 3562TIP3    H132101   1.738   6.438   5.806  2.3398 -0.6362  1.6255
 3562TIP3    H232102   1.796   6.298   5.800 -0.7278 -1.8549 -1.0911
 3563TIP3   OH232103   2.726   3.584   1.631 -0.2398 -0.1184 -0.0301
 3563TIP3    H132104   2.751   3.557   1.543  2.8080  2.1038  0.0646
 3563TIP3    H232105   2.673   3.663   1.619 -0.3992 -0.2049  0.0983
 3564TIP3   OH232106   0.290   3.951   1.829 -0.2003 -0.2263 -0.6594
 3564TIP3    H132107   0.375   3.983   1.798 -0.8066  0.1974 -1.9114
 3564TIP3    H232108   0.226   3.998   1.776 -1.2629  0.3335  1.0739
 3565TIP3   OH232109   1.028   0.428   5.711  0.5446  0.1967  0.7083
 3565TIP3    H132110   0.970   0.491   5.752  0.7390  0.8968 -0.0809
 3565TIP3    H232111   1.014   0.441   5.617  0.9532 -0.5889  0.5359
 3566TIP3   OH232112   4.167   6.132  16.341  0.0383  0.4770 -0.0628
 3566TIP3    H132113   4.222   6.167  16.271 -4.0470  2.6027 -2.3439
 3566TIP3    H232114   4.196   6.178  16.420  1.5946  1.4558 -1.1777
 3567TIP3   OH232115   4.420   6.764  10.882 -0.3932  0.6546 -0.0586
 3567TIP3    H132116   4.482   6.835  10.896 -0.5796  0.8579 -0.2456
 3567TIP3    H232117   4.374   6.788  10.801  1.2493 -0.9180 -1.4872
 3568TIP3   OH232118   4.511   4.944   5.115  0.1865  0.0939  0.2739
 3568TIP3    H132119   4.549   5.017   5.065 -0.2542  0.1418  0.0082
 3568TIP3    H232120   4.455   4.986   5.180 -0.9859 -0.0394 -0.6344
 3569TIP3   OH232121   3.487   2.327  12.249  0.3410  0.4771  0.1000
 3569TIP3    H132122   3.457   2.248  12.203 -0.4165  0.5346  0.4837
 3569TIP3    H232123   3.578   2.337  12.222 -0.7472  1.9109 -3.3839
 3570TIP3   OH232124   4.633   4.187  14.882  0.0263 -0.2150 -0.3384
 3570TIP3    H132125   4.542   4.155  14.879 -0.0466  0.0139 -0.5259
 3570TIP3    H232126   4.625   4.281  14.894  0.2377 -0.1320 -0.8587
 3571TIP3   OH232127   0.828   4.105  12.771 -0.6358  0.1972  1.1988
 3571TIP3    H132128   0.751   4.066  12.814  0.2615 -2.4711  0.4812
 3571TIP3    H232129   0.887   4.126  12.843 -0.0097 -2.3330  1.4774
 3572TIP3   OH232130   6.299   2.017  15.956 -0.9884  0.0094 -0.1099
 3572TIP3    H132131   6.354   2.021  15.878 -1.0604  1.0032 -0.1169
 3572TIP3    H232132   6.346   2.069  16.021 -0.5731 -1.3968  0.7425
 3573TIP3   OH232133   1.794   3.706  13.221  0.2217 -0.0652 -0.7848
 3573TIP3    H132134   1.797   3.794  13.183  2.5690  0.0931 -0.2815
 3573TIP3    H232135   1.723   3.711  13.285 -1.0447  0.8500 -2.2271
 3574TIP3   OH232136   1.642   1.668   2.610  0.1824  0.1829  0.8167
 3574TIP3    H132137   1.692   1.748   2.595 -0.6833  0.4669 -0.7083
 3574TIP3    H232138   1.611   1.676   2.700  1.6840  0.6561  1.3097
 3575TIP3   OH232139   1.546   5.245   4.906  0.2510  0.4449 -0.4359
 3575TIP3    H132140   1.492   5.211   4.835 -0.0179  2.7100 -1.3845
 3575TIP3    H232141   1.630   5.200   4.897  0.2281  0.7097 -2.2324
 3576TIP3   OH232142   1.051   1.719   4.941  0.0156  0.3463 -0.1606
 3576TIP3    H132143   1.112   1.656   4.979  1.1232  1.4589 -0.0583
 3576TIP3    H232144   0.967   1.697   4.981  0.5354 -0.5585  0.4751
 3577TIP3   OH232145   4.665   4.213   2.579 -0.1057  0.4691  0.1025
 3577TIP3    H132146   4.571   4.231   2.579 -0.6450 -2.1711 -0.1331
 3577TIP3    H232147   4.675   4.139   2.638  1.5200 -0.7470 -1.6465
 3578TIP3   OH232148   5.865   2.786   5.635 -0.0920 -0.2615 -0.0175
 3578TIP3    H132149   5.936   2.773   5.698  0.7231  0.2586 -0.8155
 3578TIP3    H232150   5.824   2.868   5.663 -0.7687 -0.8764  0.8069
 3579TIP3   OH232151   0.768   2.550  15.538  0.2413 -0.0035 -0.1565
 3579TIP3    H132152   0.846   2.516  15.494  1.7021  0.5117  1.9268
 3579TIP3    H232153   0.803   2.608  15.606 -1.9649 -0.0196  1.0240
 3580TIP3   OH232154   0.322   0.773   1.076 -0.1111  1.0626 -0.2721
 3580TIP3    H132155   0.392   0.816   1.126  0.1164  2.0019 -1.3732
 3580TIP3    H232156   0.355   0.685   1.059  0.4471  1.2290 -0.0652
 3581TIP3   OH232157   4.082   5.001  14.201  0.2847 -0.1506  0.2240
 3581TIP3    H132158   4.136   4.943  14.255  1.3877  0.0513 -0.6305
 3581TIP3    H232159   3.992   4.979  14.223  0.7064 -1.7211  0.4063
 3582TIP3   OH232160   3.955   2.918  15.289 -0.0115  0.1489 -0.5127
 3582TIP3    H132161   3.943   2.826  15.311  0.5217  0.0898 -0.4682
 3582TIP3    H232162   4.025   2.918  15.224 -0.2345  0.4943 -0.7570
 3583TIP3   OH232163   1.592   1.308  10.567 -0.0031  0.2600  0.6320
 3583TIP3    H132164   1.645   1.357  10.503 -0.7402 -0.2156 -0.3405
 3583TIP3    H232165   1.650   1.298  10.642  0.3650  2.1303  0.6180
 3584TIP3   OH232166   5.387   5.665  14.995 -0.6183 -0.0572 -0.2637
 3584TIP3    H132167   5.481   5.675  14.979 -0.7953  1.1503 -0.5646
 3584TIP3    H232168   5.372   5.708  15.079 -1.2203  1.4557 -1.1257
 3585TIP3   OH232169   0.026   6.777   2.036 -0.3478  0.2278  0.0090
 3585TIP3    H132170  -0.022   6.762   2.117 -0.1085  1.7752  0.4547
 3585TIP3    H232171   0.090   6.845   2.058  0.6285 -0.2946 -1.1294
 3586TIP3   OH232172   1.446   3.924   4.130  0.5040  0.6301  0.8433
 3586TIP3    H132173   1.505   3.850   4.142 -0.2031  0.1452  1.3897
 3586TIP3    H232174   1.412   3.942   4.218 -2.2476 -0.8716  0.1360
 3587TIP3   OH232175   2.340   5.502   5.568 -0.1500  0.5314  0.1389
 3587TIP3    H132176   2.403   5.554   5.518 -1.0683 -0.7122 -2.4241
 3587TIP3    H232177   2.387   5.476   5.647  1.8872  1.2571 -0.7960
 3588TIP3   OH232178   5.157   3.654  13.493 -0.1623  0.0593  0.0075
 3588TIP3    H132179   5.252   3.666  13.487 -0.2447  0.3648 -0.7778
 3588TIP3    H232180   5.146   3.586  13.559  0.7268 -1.7122 -1.6147
 3589TIP3   OH232181   5.107   5.292  16.234  0.3292 -0.0836 -0.3201
 3589TIP3    H132182   5.106   5.323  16.143 -0.6811  3.1576  0.7234
 3589TIP3    H232183   5.015   5.291  16.259  0.5957 -1.1446  0.6086
 3590TIP3   OH232184   5.205   0.998   5.659 -0.1314 -0.0428  0.0211
 3590TIP3    H132185   5.118   0.959   5.652  0.1565 -0.4388 -1.3552
 3590TIP3    H232186   5.216   1.047   5.578  2.1564 -2.4740 -1.1907
 3591TIP3   OH232187   0.523   5.426   4.079 -1.3311 -0.5755  0.1501
 3591TIP3    H132188   0.428   5.435   4.069 -1.0685  2.0047 -0.4822
 3591TIP3    H232189   0.559   5.468   4.000  0.3323 -2.1528  0.0358
 3592TIP3   OH232190   2.406   0.981   0.105 -0.2204  0.0594 -0.8208
 3592TIP3    H132191   2.426   1.044   0.036  0.6695 -0.1934 -0.8004
 3592TIP3    H232192   2.448   1.016   0.183 -0.9757  0.1937 -0.4681
 3593TIP3   OH232193   2.855   3.906  11.944 -0.0755 -0.0802  0.5286
 3593TIP3    H132194   2.825   3.822  11.908 -0.9486  0.3086  0.3492
 3593TIP3    H232195   2.788   3.930  12.008 -0.3369  0.9725 -0.1381
 3594TIP3   OH232196   0.539   4.954  15.532  0.3703 -0.1930 -0.2765
 3594TIP3    H132197   0.599   4.963  15.458  0.3504 -0.2876 -0.3051
 3594TIP3    H232198   0.503   4.865  15.523  0.1065 -0.0775 -0.3497
 3595TIP3   OH232199   2.048   3.071  16.055  0.3152 -0.0985 -0.2220
 3595TIP3    H132200   1.987   3.097  15.985  1.7738  0.9862 -1.1123
 3595TIP3    H232201   2.135   3.076  16.014  0.8471 -5.2240 -0.1139
 3596TIP3   OH232202   3.949   0.065   0.803  0.4558  0.0674 -0.4004
 3596TIP3    H132203   3.948   0.160   0.816  0.9631 -0.0895  0.8223
 3596TIP3    H232204   3.857   0.039   0.810  0.4548  0.3064  0.5934
 3597TIP3   OH232205   2.412   3.349  11.827 -0.6114  0.0523  0.3520
 3597TIP3    H132206   2.359   3.414  11.872 -0.1097  1.0175 -0.4152
 3597TIP3    H232207   2.447   3.293  11.896 -1.8025  0.0262  0.9395
 3598TIP3   OH232208   5.310   4.803   5.826 -0.1406  0.0835  0.5333
 3598TIP3    H132209   5.400   4.825   5.804  0.0631 -1.2240  0.0014
 3598TIP3    H232210   5.307   4.707   5.821 -1.2917  0.0578  1.5691
 3599TIP3   OH232211   1.876   4.700  16.856  0.2697 -0.7916 -0.0127
 3599TIP3    H132212   1.786   4.699  16.889  1.5823  0.9171  3.9912
 3599TIP3    H232213   1.888   4.787  16.819  1.2362  0.2921  2.6840
 3600TIP3   OH232214   4.480   5.244   5.586 -0.0511  0.2397 -0.3058
 3600TIP3    H132215   4.507   5.176   5.648 -0.7521  0.4502  0.2370
 3600TIP3    H232216   4.440   5.312   5.641 -1.6189 -0.0332 -1.0678
 3601TIP3   OH232217   1.486   4.188   4.385 -0.2524 -0.4424  0.2075
 3601TIP3    H132218   1.437   4.236   4.318 -0.2064 -0.5118  0.1234
 3601TIP3    H232219   1.574   4.181   4.349  0.2169  1.0224  1.0472
 3602TIP3   OH232220   2.694   4.487   1.833  0.6480  0.4969 -0.2872
 3602TIP3    H132221   2.749   4.564   1.850  2.6355 -0.8074 -0.6621
 3602TIP3    H232222   2.715   4.426   1.904 -0.2995 -0.0300 -0.4518
 3603TIP3   OH232223   5.710   5.196  11.603 -0.6100 -0.5973 -0.0014
 3603TIP3    H132224   5.767   5.139  11.654 -0.8454 -1.3507 -0.5758
 3603TIP3    H232225   5.634   5.142  11.582 -0.9267 -0.0138 -0.3892
 3604TIP3   OH232226   6.057   5.868  12.724  0.0751 -0.1878 -0.4943
 3604TIP3    H132227   6.030   5.941  12.780  1.2165 -0.8237  0.9186
 3604TIP3    H232228   6.112   5.909  12.657  0.0505  0.3580 -0.1906
 3605TIP3   OH232229   4.418   3.039   1.277  0.2537  0.2683  0.1876
 3605TIP3    H132230   4.378   3.051   1.363 -2.3370 -1.7855 -0.6461
 3605TIP3    H232231   4.458   2.952   1.280 -0.5525 -0.1586 -0.9142
 3606TIP3   OH232232   1.368   3.529  16.619 -0.2238 -0.4528 -0.2437
 3606TIP3    H132233   1.370   3.488  16.533  0.9375  0.4133 -0.6387
 3606TIP3    H232234   1.405   3.463  16.678 -0.0305 -0.6499 -0.5848
 3607TIP3   OH232235   2.064   0.976  16.430  0.1803  0.2742  0.2711
 3607TIP3    H132236   2.107   0.903  16.475 -1.0933 -0.3158  0.5259
 3607TIP3    H232237   1.974   0.948  16.418 -0.2980  1.7705  0.2786
 3608TIP3   OH232238   2.471   1.241   1.675 -0.2483  0.5171 -0.3517
 3608TIP3    H132239   2.382   1.222   1.645 -0.5508 -0.0793  0.8835
 3608TIP3    H232240   2.494   1.167   1.731  1.1529  0.5093 -0.8947
 3609TIP3   OH232241   2.188   3.342   5.342  0.0201  0.1227  0.2037
 3609TIP3    H132242   2.113   3.288   5.315  0.6665  0.3115 -2.0828
 3609TIP3    H232243   2.263   3.281   5.340  0.6219  0.9026 -1.6304
 3610TIP3   OH232244   6.623   3.287  11.831  0.3283 -0.4693  0.1321
 3610TIP3    H132245   6.596   3.244  11.751 -0.6826 -0.8156  0.6463
 3610TIP3    H232246   6.648   3.376  11.804  2.4686 -1.3697 -0.9212
 3611TIP3   OH232247   4.682   1.001  12.137  0.3417  0.1629  0.2974
 3611TIP3    H132248   4.774   0.995  12.163  0.8395  0.5071 -1.3233
 3611TIP3    H232249   4.634   0.964  12.211  1.8885 -1.5672  0.4701
 3612TIP3   OH232250   3.599   0.068   4.411 -0.0177 -0.2415 -0.8491
 3612TIP3    H132251   3.507   0.081   4.436  0.2193 -0.2825  0.0681
 3612TIP3    H232252   3.607  -0.027   4.400 -0.1065 -0.2312 -0.9990
 3613TIP3   OH232253   4.007   1.635  15.700  0.4095 -0.2420  0.0260
 3613TIP3    H132254   4.058   1.606  15.776  0.6383 -0.3023 -0.1491
 3613TIP3    H232255   4.026   1.570  15.632  0.3344 -0.0982 -0.1341
 3614TIP3   OH232256   5.383   2.440  14.273 -0.6849 -0.0579  0.2405
 3614TIP3    H132257   5.369   2.352  14.308  1.1150  0.6080  2.7975
 3614TIP3    H232258   5.420   2.426  14.186 -0.9782 -1.8111  0.3886
 3615TIP3   OH232259   4.344   3.166  16.945  0.2690  0.8055 -0.1445
 3615TIP3    H132260   4.304   3.079  16.944  2.4879 -0.2499  0.2470
 3615TIP3    H232261   4.315   3.207  16.864 -1.7305  0.1483  0.2181
 3616TIP3   OH232262   3.090   4.671  14.345  0.3642  0.5343  0.4181
 3616TIP3    H132263   3.181   4.677  14.315  0.9277 -3.1598  1.2165
 3616TIP3    H232264   3.091   4.709  14.433  1.6373 -1.6104  1.3483
 3617TIP3   OH232265   6.163   6.503   0.387 -0.0322  0.2549  0.5747
 3617TIP3    H132266   6.192   6.443   0.318  0.2677  2.2214 -1.0677
 3617TIP3    H232267   6.157   6.449   0.465  0.7301 -1.7976 -0.7477
 3618TIP3   OH232268   5.146   3.438   2.394 -0.1585  0.1217 -0.1208
 3618TIP3    H132269   5.093   3.517   2.406  0.7777  1.0201 -1.7947
 3618TIP3    H232270   5.159   3.405   2.483 -2.7550  0.3660  0.4017
 3619TIP3   OH232271   6.661   5.889   2.127 -0.2488 -0.6989  0.2510
 3619TIP3    H132272   6.724   5.905   2.197  0.4183 -2.3015  0.0353
 3619TIP3    H232273   6.688   5.805   2.088 -0.9257 -0.1106 -1.5687
 3620TIP3   OH232274   1.689   3.863  15.544 -0.2487 -0.2210 -0.3634
 3620TIP3    H132275   1.625   3.837  15.610 -1.2635 -2.7202 -2.2551
 3620TIP3    H232276   1.770   3.821  15.572 -0.9874 -2.3569 -1.3689
 3621TIP3   OH232277   4.394   0.475   5.319 -0.5669  0.3295  0.3809
 3621TIP3    H132278   4.454   0.546   5.295 -0.2609 -0.3016 -0.7722
 3621TIP3    H232279   4.419   0.402   5.262 -1.0950 -0.6029  1.3246
 3622TIP3   OH232280   5.090   2.184  12.668 -0.2385 -0.0677  0.0434
 3622TIP3    H132281   5.112   2.219  12.755  0.6638  0.3634 -0.3561
 3622TIP3    H232282   5.035   2.108  12.687 -0.2143  0.1399  0.9966
 3623TIP3   OH232283   2.941   1.617  12.190 -0.1508 -0.3302 -0.3836
 3623TIP3    H132284   2.854   1.656  12.179 -0.0276 -0.1062 -0.5695
 3623TIP3    H232285   2.953   1.612  12.285 -1.0067 -1.7903 -0.3349
 3624TIP3   OH232286   3.382   6.574  11.396  0.6575  0.0479 -0.0012
 3624TIP3    H132287   3.318   6.564  11.466  0.9424  0.3469  0.3071
 3624TIP3    H232288   3.340   6.633  11.333  0.2268 -0.5781 -0.2997
 3625TIP3   OH232289   3.010   5.792  16.602  0.1872  0.3577 -0.7631
 3625TIP3    H132290   3.013   5.715  16.545 -0.0009 -0.0966 -0.1661
 3625TIP3    H232291   3.041   5.864  16.547 -1.1211  0.1455 -1.7933
 3626TIP3   OH232292   1.325   5.524  10.719  0.1828 -0.0090 -0.1933
 3626TIP3    H132293   1.282   5.600  10.680 -1.1142 -1.1680 -1.0737
 3626TIP3    H232294   1.286   5.449  10.674  0.2616 -1.2791  1.7903
 3627TIP3   OH232295   5.539   1.307   5.359 -0.0394  0.5073  0.3798
 3627TIP3    H132296   5.547   1.299   5.454 -1.2346  0.4212  0.4831
 3627TIP3    H232297   5.496   1.392   5.346 -2.9307 -0.9298  0.0884
 3628TIP3   OH232298   3.494   6.693  13.599 -0.4715 -0.4899 -0.2136
 3628TIP3    H132299   3.410   6.737  13.591  0.4420  1.3401  0.0358
 3628TIP3    H232300   3.529   6.722  13.683  0.1777 -1.6503 -0.0700
 3629TIP3   OH232301   4.151   1.301  13.323  0.1359  0.0370 -0.4631
 3629TIP3    H132302   4.219   1.366  13.342 -0.7531  0.7650  0.2914
 3629TIP3    H232303   4.148   1.246  13.402 -0.1993  0.0405 -0.4741
 3630TIP3   OH232304   0.694   6.039  15.782  0.6534 -0.1150  0.0295
 3630TIP3    H132305   0.725   6.038  15.873 -0.8250  0.5512  0.5632
 3630TIP3    H232306   0.772   6.056  15.730  1.4469 -0.0899  1.2167
 3631TIP3   OH232307   6.700   2.943   0.732 -0.0806 -0.0488 -0.8369
 3631TIP3    H132308   6.626   2.994   0.765 -0.7479  0.0293 -2.3895
 3631TIP3    H232309   6.774   3.002   0.737 -0.1309 -0.0939  0.6464
 3632TIP3   OH232310   6.339   4.607  13.310 -0.0246  0.5346  0.3530
 3632TIP3    H132311   6.361   4.554  13.386  0.7164 -0.2832 -0.4110
 3632TIP3    H232312   6.420   4.608  13.257 -0.4009  1.4154 -0.2309
 3633TIP3   OH232313   4.826   6.609  10.563 -0.1088  0.2266  0.2664
 3633TIP3    H132314   4.834   6.692  10.516 -0.4650  0.9421  1.4532
 3633TIP3    H232315   4.914   6.590  10.594 -0.3514  1.0603  1.4912
 3634TIP3   OH232316   5.045   4.858  10.680 -0.0717 -0.1686  0.3158
 3634TIP3    H132317   5.124   4.809  10.659  0.3877  0.3214  0.8885
 3634TIP3    H232318   5.069   4.950  10.669 -0.9677 -0.0594 -0.8879
 3635TIP3   OH232319   3.381   3.707   0.179  0.2739 -0.2199  0.2263
 3635TIP3    H132320   3.308   3.757   0.146  1.6861  1.4289 -0.4617
 3635TIP3    H232321   3.341   3.628   0.218 -1.9824  1.5304  1.5734
 3636TIP3   OH232322   2.569   0.260   0.650 -0.3321 -0.6358 -0.1163
 3636TIP3    H132323   2.625   0.326   0.609  1.0435 -1.3532  0.5833
 3636TIP3    H232324   2.623   0.181   0.654 -1.0494 -1.0722  1.4667
 3637TIP3   OH232325   0.407   0.870   4.060 -0.1919  0.1703 -0.8219
 3637TIP3    H132326   0.485   0.816   4.046 -0.4360 -0.4625  0.2050
 3637TIP3    H232327   0.441   0.952   4.098 -0.1702 -0.8043  1.3417
 3638TIP3   OH232328   5.910   0.844  11.547 -0.0186 -0.3186 -0.0567
 3638TIP3    H132329   5.861   0.762  11.540 -1.9345  0.9801 -2.3949
 3638TIP3    H232330   5.936   0.848  11.640 -1.5115 -2.6328  0.5001
 3639TIP3   OH232331   6.088   0.557   3.107 -0.1567 -0.0249  0.2476
 3639TIP3    H132332   6.095   0.536   3.200  2.0113  0.7065  0.3002
 3639TIP3    H232333   6.051   0.479   3.067 -1.5988 -0.1510  1.7956
 3640TIP3   OH232334   6.165   2.023  11.684 -0.2465  0.7922 -0.1673
 3640TIP3    H132335   6.209   2.078  11.749  0.7470  0.7891 -0.8241
 3640TIP3    H232336   6.133   2.085  11.618  1.1226  0.5736 -1.0559
 3641TIP3   OH232337   0.816   2.797  14.760  0.4121 -0.1115 -0.3945
 3641TIP3    H132338   0.791   2.803  14.667  1.4453 -0.8654 -0.7409
 3641TIP3    H232339   0.880   2.866  14.772  1.4472 -1.0088 -0.6562
 3642TIP3   OH232340   4.913   5.552   4.355 -0.4952  0.1904 -0.4733
 3642TIP3    H132341   4.887   5.543   4.447  2.5007  0.1102  0.3918
 3642TIP3    H232342   4.845   5.608   4.317 -1.8664  0.0792  1.7383
 3643TIP3   OH232343   0.397   1.491  16.163 -0.5452 -0.3616 -0.6448
 3643TIP3    H132344   0.426   1.569  16.115  0.1659 -1.8864 -2.8172
 3643TIP3    H232345   0.316   1.517  16.206 -0.6878  1.3774 -1.9206
 3644TIP3   OH232346   6.491   0.315   5.149 -0.7290 -0.0283 -0.8155
 3644TIP3    H132347   6.526   0.388   5.202 -2.3008  1.7163 -2.1240
 3644TIP3    H232348   6.432   0.269   5.208 -0.3215  0.2223 -0.2048
 3645TIP3   OH232349   1.799   3.168   3.206  0.9258 -0.2344  0.0749
 3645TIP3    H132350   1.839   3.090   3.168  1.1851 -0.2795  0.4375
 3645TIP3    H232351   1.835   3.173   3.295  0.3043 -0.1419  0.3215
 3646TIP3   OH232352   0.049   3.400  10.999 -0.2144 -0.1798 -0.3133
 3646TIP3    H132353   0.101   3.415  10.920 -0.0593  1.6717  0.1145
 3646TIP3    H232354  -0.040   3.420  10.973 -0.3757 -0.9736 -0.3914
 3647TIP3   OH232355   1.166   1.342  14.558 -0.5281  0.0318  0.3918
 3647TIP3    H132356   1.182   1.249  14.571  1.3167  0.0428 -1.5365
 3647TIP3    H232357   1.186   1.382  14.642  0.4129 -1.1198  0.7308
 3648TIP3   OH232358   5.318   2.467  13.181  0.0128 -0.3056 -0.2129
 3648TIP3    H132359   5.283   2.423  13.104 -1.4028  1.1256 -0.4269
 3648TIP3    H232360   5.413   2.459  13.172 -0.1694 -1.1479 -1.5173
 3649TIP3   OH232361   5.218   5.684  14.052  0.5367  0.0633  0.1427
 3649TIP3    H132362   5.166   5.626  14.107  0.4158  0.4416  0.4360
 3649TIP3    H232363   5.200   5.772  14.087  1.2003  0.2188  0.1127
 3650TIP3   OH232364   5.019   3.078   1.835  0.5601 -0.3183 -0.6653
 3650TIP3    H132365   4.984   2.989   1.842 -0.6381  0.1108 -1.1247
 3650TIP3    H232366   4.987   3.123   1.913  0.6192 -0.1039 -0.7649
 3651TIP3   OH232367   0.902   2.580   5.208  0.4104  0.1476  0.1255
 3651TIP3    H132368   0.890   2.598   5.115 -2.5823 -1.4740  0.1051
 3651TIP3    H232369   0.915   2.665   5.248  0.4350  0.9860 -1.6343
 3652TIP3   OH232370   5.137   5.264  16.901  0.2169 -0.2822  0.0695
 3652TIP3    H132371   5.229   5.291  16.898  0.2640 -0.3583  0.7942
 3652TIP3    H232372   5.101   5.292  16.817  1.0740 -0.8361 -0.4937
 3653TIP3   OH232373   1.251   4.862   1.997  0.3571  0.0292 -0.1662
 3653TIP3    H132374   1.277   4.954   1.989 -1.6342  0.6920  0.6998
 3653TIP3    H232375   1.200   4.858   2.078 -1.0157 -1.4928 -1.0794
 3654TIP3   OH232376   1.636   0.579   4.415 -0.0782  0.5659 -0.3588
 3654TIP3    H132377   1.698   0.522   4.369 -0.4803 -0.0445 -0.1457
 3654TIP3    H232378   1.553   0.565   4.369 -0.0852  1.2870 -0.5645
 3655TIP3   OH232379   5.121   5.040  13.449  0.0390  0.0906 -0.0345
 3655TIP3    H132380   5.070   5.106  13.402 -0.6462  0.6158  1.4219
 3655TIP3    H232381   5.080   4.957  13.428 -0.1631  0.3027 -0.4815
 3656TIP3   OH232382   2.577   3.117   2.349 -0.0775  0.3006 -0.2026
 3656TIP3    H132383   2.502   3.128   2.407  0.6453  0.3016  0.7498
 3656TIP3    H232384   2.653   3.138   2.404  0.7471 -1.3721 -0.6571
 3657TIP3   OH232385   4.326   4.516  11.634 -0.0650 -0.4750 -0.3810
 3657TIP3    H132386   4.336   4.608  11.609 -0.9371 -0.3288 -0.2256
 3657TIP3    H232387   4.400   4.498  11.692 -0.4855  0.4476  0.4647
 3658TIP3   OH232388   4.337   5.881  12.105  0.8539  0.4332  0.2831
 3658TIP3    H132389   4.293   5.919  12.029  0.8535  2.4082  1.2354
 3658TIP3    H232390   4.430   5.900  12.091  0.9592 -0.0614  0.3042
 3659TIP3   OH232391   4.347   5.349  17.048 -0.2692 -0.2247  0.1489
 3659TIP3    H132392   4.440   5.331  17.036 -0.5314 -0.1088 -2.1129
 3659TIP3    H232393   4.344   5.439  17.082  0.3952  0.0542 -0.5464
 3660TIP3   OH232394   0.587   2.853   5.357  0.5641  0.5800 -0.1116
 3660TIP3    H132395   0.626   2.865   5.444  1.6313  1.4973 -0.6958
 3660TIP3    H232396   0.631   2.918   5.302  0.5355 -0.5637 -1.5330
 3661TIP3   OH232397   4.788   2.518  16.237 -0.3517  0.2849 -0.4535
 3661TIP3    H132398   4.793   2.548  16.147 -0.2748  0.4392 -0.3984
 3661TIP3    H232399   4.822   2.429  16.235 -1.2073 -0.0413 -0.7386
 3662TIP3   OH232400   0.056   4.220   0.145 -0.1764  0.5182  0.1662
 3662TIP3    H132401   0.112   4.283   0.189  0.7973  0.1589 -0.5274
 3662TIP3    H232402   0.114   4.176   0.083 -1.2256  0.1215 -0.5502
 3663TIP3   OH232403   0.002   0.728  13.045  0.1395  0.5860 -0.1156
 3663TIP3    H132404   0.049   0.753  13.124 -0.1968 -0.8417  0.5501
 3663TIP3    H232405  -0.068   0.793  13.037  0.7101  1.2504  0.2659
 3664TIP3   OH232406   1.500   4.401   1.900  0.2046  0.0596  0.2991
 3664TIP3    H132407   1.586   4.383   1.939 -0.2052  0.7152  1.5278
 3664TIP3    H232408   1.439   4.348   1.950  0.0115 -1.2438 -1.2808
 3665TIP3   OH232409   0.140   4.445  16.594  0.3422 -0.2715  0.2354
 3665TIP3    H132410   0.161   4.375  16.533  1.5250 -0.1722  0.5172
 3665TIP3    H232411   0.087   4.402  16.662  1.5413 -1.0195  0.7088
 3666TIP3   OH232412   1.832   3.432  11.876 -0.0169  0.4665 -0.2088
 3666TIP3    H132413   1.885   3.406  11.951  1.7127  2.4731 -0.7077
 3666TIP3    H232414   1.780   3.354  11.856  0.5401 -0.5702  2.1434
 3667TIP3   OH232415   2.651   0.801   5.528 -0.3403 -0.6393  0.0350
 3667TIP3    H132416   2.668   0.841   5.613 -1.8278 -1.3889  0.7156
 3667TIP3    H232417   2.583   0.736   5.546  0.1075 -1.5581 -1.5378
 3668TIP3   OH232418   5.407   3.319   4.411 -0.2696  0.5875  0.4648
 3668TIP3    H132419   5.410   3.408   4.375  0.2374  0.7376  0.8559
 3668TIP3    H232420   5.494   3.307   4.450 -1.1784  0.8587  2.6509
 3669TIP3   OH232421   0.682   0.823  12.072  0.5338  0.3387 -0.3295
 3669TIP3    H132422   0.661   0.763  12.143 -0.2662  1.2184  0.1874
 3669TIP3    H232423   0.663   0.774  11.992 -0.1483 -0.0815  0.0871
 3670TIP3   OH232424   4.304   4.218   2.000 -0.6549  0.0516  1.1683
 3670TIP3    H132425   4.380   4.271   1.977  0.5903 -1.8190  0.8278
 3670TIP3    H232426   4.255   4.272   2.062  0.9931  1.2547  1.4636
 3671TIP3   OH232427   0.425   0.706   2.123  0.7333 -0.9464  0.7586
 3671TIP3    H132428   0.401   0.716   2.031  1.4693  1.2761  0.7683
 3671TIP3    H232429   0.353   0.656   2.162 -1.7489  1.8417 -0.1066
 3672TIP3   OH232430   3.304   4.141  13.824 -0.3876  0.3977  0.7727
 3672TIP3    H132431   3.305   4.236  13.810  1.6104  0.7124  2.7829
 3672TIP3    H232432   3.382   4.124  13.877 -1.5586 -2.1738  1.7219
 3673TIP3   OH232433   2.634   0.782   5.836 -0.0421  0.3487 -0.1446
 3673TIP3    H132434   2.547   0.768   5.874  0.1028  1.5300  0.6811
 3673TIP3    H232435   2.690   0.798   5.912  0.6652  0.7233 -0.7389
 3674TIP3   OH232436   5.338   1.982  14.082 -0.3661  0.4216 -0.3053
 3674TIP3    H132437   5.270   2.044  14.107  0.2460  1.0279 -0.1188
 3674TIP3    H232438   5.420   2.032  14.090 -0.0317  0.1923 -2.0900
 3675TIP3   OH232439   4.196   2.051   1.702 -0.5777  0.3321 -0.0895
 3675TIP3    H132440   4.229   1.994   1.633 -0.8077  1.3407 -1.0389
 3675TIP3    H232441   4.206   2.140   1.668  1.0297  0.9595  1.9088
 3676TIP3   OH232442   2.113   5.853  15.479 -0.1646  0.4325 -0.4500
 3676TIP3    H132443   2.133   5.901  15.560  0.1821  0.0252 -0.2854
 3676TIP3    H232444   2.018   5.848  15.476 -0.1489 -1.6398  1.1999
 3677TIP3   OH232445   0.094   5.482   0.679  0.0443 -0.0441 -0.1747
 3677TIP3    H132446   0.012   5.438   0.657  0.2944 -0.5192 -0.1680
 3677TIP3    H232447   0.159   5.440   0.623  0.4326 -0.2736  0.4365
 3678TIP3   OH232448   0.606   6.081   5.106 -0.1818 -0.0732 -0.5078
 3678TIP3    H132449   0.641   5.994   5.085 -0.5635 -0.3546  0.0194
 3678TIP3    H232450   0.549   6.102   5.032  1.1732  0.4394 -1.4346
 3679TIP3   OH232451   2.561   1.624  14.285  0.7985 -0.3813 -0.1683
 3679TIP3    H132452   2.593   1.708  14.252  0.6892 -0.8103 -1.3686
 3679TIP3    H232453   2.638   1.569  14.291  0.4160 -1.1817 -2.3634
 3680TIP3   OH232454   1.516   2.571  12.944 -0.1694  0.3094  0.1581
 3680TIP3    H132455   1.460   2.629  12.891  0.4107 -0.3128 -1.1712
 3680TIP3    H232456   1.605   2.597  12.921  0.0968 -1.1331 -0.4961
 3681TIP3   OH232457   4.736   5.843  14.376 -0.1277 -0.4979 -0.6620
 3681TIP3    H132458   4.672   5.878  14.314 -0.0297  1.7634  0.4414
 3681TIP3    H232459   4.683   5.804  14.445 -0.2786 -0.9098 -1.0117
 3682TIP3   OH232460   2.827   1.815  15.151 -0.1772  0.7280 -0.2686
 3682TIP3    H132461   2.816   1.899  15.196  2.2633  0.2737  1.2930
 3682TIP3    H232462   2.839   1.752  15.222  2.4306 -0.2230 -1.4910
 3683TIP3   OH232463   2.372   5.992   3.902  0.4485 -0.3622 -0.0495
 3683TIP3    H132464   2.305   5.936   3.865  1.1901 -0.7739 -0.7742
 3683TIP3    H232465   2.433   5.932   3.945  1.0449 -0.0976 -0.5120
 3684TIP3   OH232466   3.952   2.389  10.837  0.2208 -0.3442  0.3734
 3684TIP3    H132467   3.888   2.354  10.899 -1.2667  0.8032 -0.4661
 3684TIP3    H232468   3.902   2.450  10.783  1.6613 -0.6916 -1.4243
 3685TIP3   OH232469   2.612   2.443  16.137  0.5119  0.0237 -0.3747
 3685TIP3    H132470   2.692   2.438  16.085  0.7089 -1.7421  0.0826
 3685TIP3    H232471   2.595   2.537  16.145  3.0117  0.4572  0.2459
 3686TIP3   OH232472   2.295   4.488   4.911  0.1326 -0.4386 -0.0072
 3686TIP3    H132473   2.300   4.437   4.992  0.5913  0.5421  0.5901
 3686TIP3    H232474   2.360   4.449   4.853 -0.8021 -1.6988 -0.2250
 3687TIP3   OH232475   4.847   1.166  11.194 -0.1254 -0.0489  0.1335
 3687TIP3    H132476   4.828   1.073  11.206  0.8872 -0.3353 -0.3888
 3687TIP3    H232477   4.765   1.203  11.161 -0.0587 -1.0846 -1.2556
 3688TIP3   OH232478   2.287   4.079  13.295  0.7241 -0.1928  0.4507
 3688TIP3    H132479   2.289   3.996  13.343  0.9001  0.9880  2.5866
 3688TIP3    H232480   2.279   4.055  13.203  3.2284 -2.6465  0.8247
 3689TIP3   OH232481   3.493   3.290  15.718 -0.3614 -0.4576  0.1560
 3689TIP3    H132482   3.402   3.322  15.722 -0.5665 -0.8569 -1.0229
 3689TIP3    H232483   3.518   3.302  15.627  0.9400  0.0659  0.5690
 3690TIP3   OH232484   0.666   0.004  13.563 -0.5712 -0.4056  0.2565
 3690TIP3    H132485   0.737   0.066  13.578 -1.6443  0.5401  1.6184
 3690TIP3    H232486   0.618   0.041  13.488  0.2950 -1.0104 -0.6210
 3691TIP3   OH232487   0.488   0.510   5.794 -0.1824 -0.2596 -0.4628
 3691TIP3    H132488   0.571   0.464   5.802  0.5401  0.8792 -1.2435
 3691TIP3    H232489   0.471   0.545   5.881  1.0502  0.9901 -0.7101
 3692TIP3   OH232490   5.152   2.902  13.619 -0.0544  0.0553 -0.0296
 3692TIP3    H132491   5.154   2.994  13.644  0.7996  0.4058 -1.3853
 3692TIP3    H232492   5.087   2.897  13.549  2.4045  0.2713 -2.4027
 3693TIP3   OH232493   4.689   2.534  15.053 -0.1163 -0.4430 -0.1128
 3693TIP3    H132494   4.652   2.592  14.986 -1.5052 -2.1010 -0.8252
 3693TIP3    H232495   4.768   2.498  15.012 -1.0590 -1.5869 -0.9466
 3694TIP3   OH232496   1.562   6.273   4.823 -0.2472  0.0681 -0.8819
 3694TIP3    H132497   1.598   6.280   4.735 -3.1441  0.4126 -2.1147
 3694TIP3    H232498   1.472   6.241   4.809 -0.2371 -1.3818  2.0449
 3695TIP3   OH232499   4.430   0.777  12.520  0.0793  0.6218  0.0098
 3695TIP3    H132500   4.426   0.855  12.464  0.5987 -0.2113 -1.1904
 3695TIP3    H232501   4.359   0.721  12.489 -0.4859  0.7323  1.0728
 3696TIP3   OH232502   0.255   6.256  10.951 -0.0504 -0.1139 -0.2634
 3696TIP3    H132503   0.206   6.338  10.941 -2.2263 -1.2982  0.3628
 3696TIP3    H232504   0.203   6.191  10.904  0.2132 -1.6773  1.5299
 3697TIP3   OH232505   3.548   5.031   2.476  0.2564  0.2711 -0.5571
 3697TIP3    H132506   3.575   5.033   2.568  1.7020  1.3528 -0.9971
 3697TIP3    H232507   3.479   4.964   2.474  0.1381  0.2900  1.3218
 3698TIP3   OH232508   0.391   1.925  12.260 -0.2892 -0.2211  0.6581
 3698TIP3    H132509   0.373   1.923  12.354 -1.3048  2.8069  0.5752
 3698TIP3    H232510   0.430   2.011  12.244 -0.0229 -0.7290 -1.6855
 3699TIP3   OH232511   3.032   4.598  12.206  0.3529  0.6198 -0.1052
 3699TIP3    H132512   2.967   4.620  12.139 -0.1967 -0.8091 -0.0686
 3699TIP3    H232513   2.987   4.538  12.265  1.2919  0.6950  0.7098
 3700TIP3   OH232514   4.360   1.178  10.782  0.4378 -0.0345 -0.6495
 3700TIP3    H132515   4.311   1.205  10.705  2.0597  1.5906 -1.1540
 3700TIP3    H232516   4.307   1.109  10.822 -1.0357 -0.0032 -2.5002
 3701TIP3   OH232517   0.770   1.689   0.637  0.1168  0.0900  0.8687
 3701TIP3    H132518   0.700   1.738   0.677 -0.9006  0.9125 -1.7991
 3701TIP3    H232519   0.729   1.643   0.564  2.1041 -0.3382 -0.0314
 3702TIP3   OH232520   4.380   6.073  15.100  0.1225  0.2970  0.7168
 3702TIP3    H132521   4.351   5.988  15.131 -0.2522  0.0408 -0.3206
 3702TIP3    H232522   4.317   6.135  15.138 -1.1997 -0.1575 -0.6807
 3703TIP3   OH232523   1.296   0.591   0.352  0.8601 -0.1317 -0.3158
 3703TIP3    H132524   1.325   0.673   0.393 -0.7031  0.1018  0.3451
 3703TIP3    H232525   1.297   0.610   0.258 -0.2516  0.9040 -0.1273
 3704TIP3   OH232526   1.012   6.175   0.164  0.7785  0.0101 -0.7056
 3704TIP3    H132527   1.074   6.223   0.109  2.7592 -1.1369  0.4694
 3704TIP3    H232528   1.004   6.090   0.120  0.3967 -0.0103 -0.5942
 3705TIP3   OH232529   6.066   5.156   4.318 -0.2502 -0.0441  0.3953
 3705TIP3    H132530   6.039   5.237   4.274 -1.4558 -0.0462  1.0993
 3705TIP3    H232531   6.016   5.087   4.273  0.8795 -0.4230 -0.2983
 3706TIP3   OH232532   5.389   5.255  11.122 -0.0602 -0.7650 -0.2390
 3706TIP3    H132533   5.357   5.210  11.200 -0.4200 -0.3115 -0.1176
 3706TIP3    H232534   5.328   5.328  11.111  0.1287 -0.6940 -0.8096
 3707TIP3   OH232535   0.631   4.945   3.198 -0.0876  0.7365 -0.2045
 3707TIP3    H132536   0.603   4.915   3.284  0.4604  0.4987 -0.1085
 3707TIP3    H232537   0.630   4.865   3.144 -0.1222  0.8284 -0.3389
 3708TIP3   OH232538   4.529   4.206  15.304 -0.2644 -0.6288 -0.6748
 3708TIP3    H132539   4.549   4.151  15.380 -2.9554 -3.3997 -1.8559
 3708TIP3    H232540   4.502   4.290  15.342  0.7414 -1.1591  1.3026
 3709TIP3   OH232541   2.882   5.028  13.709  0.2516 -0.2501 -0.0470
 3709TIP3    H132542   2.797   4.992  13.684  0.5903 -1.4270  0.4905
 3709TIP3    H232543   2.909   4.976  13.785  0.0209  2.1337  1.7597
 3710TIP3   OH232544   0.054   3.267   0.849  0.5853  0.2955  0.1160
 3710TIP3    H132545   0.073   3.236   0.761 -0.7475  0.9010 -0.4036
 3710TIP3    H232546   0.061   3.362   0.844  1.2231  0.2978  0.8494
 3711TIP3   OH232547   6.339   3.024  10.582 -0.3366  0.2985  0.5351
 3711TIP3    H132548   6.297   3.092  10.635  1.0665  0.5973  1.2999
 3711TIP3    H232549   6.321   2.943  10.629 -0.6668  0.3402  0.4782
 3712TIP3   OH232550   1.229   4.656  11.884  0.0715 -0.4514  0.3102
 3712TIP3    H132551   1.266   4.670  11.797 -0.8324  0.6598  0.0984
 3712TIP3    H232552   1.172   4.579  11.873  0.8025 -0.9889  0.1931
 3713TIP3   OH232553   2.328   3.418  13.248  0.3267  0.1345 -0.1644
 3713TIP3    H132554   2.379   3.495  13.274 -1.3322  1.5890 -1.0885
 3713TIP3    H232555   2.278   3.395  13.326 -1.5171  1.9551 -0.7427
 3714TIP3   OH232556   6.155   4.487   1.007 -0.0057 -0.3521  0.2711
 3714TIP3    H132557   6.109   4.532   1.078 -1.0763 -2.9766  1.2990
 3714TIP3    H232558   6.106   4.511   0.928 -1.3071 -0.6922  0.9602
 3715TIP3   OH232559   1.870   2.906  12.849  0.1056 -0.5404  0.5281
 3715TIP3    H132560   1.862   2.954  12.931 -0.9662 -1.0655  0.7325
 3715TIP3    H232561   1.847   2.971  12.782  1.9547  0.1711  0.5519
 3716TIP3   OH232562   3.595   4.055   3.209  0.4508  0.2974 -0.2108
 3716TIP3    H132563   3.559   3.978   3.165  2.4310 -0.9443  0.3069
 3716TIP3    H232564   3.686   4.033   3.226  0.6425  2.1500  1.3323
 3717TIP3   OH232565   0.349   0.460  14.604  0.4754 -0.5417  0.4546
 3717TIP3    H132566   0.310   0.466  14.517  0.3373 -1.7740  0.4259
 3717TIP3    H232567   0.444   0.460  14.589  0.4795  1.1520  0.4389
 3718TIP3   OH232568   6.335   2.584   4.269  0.2876  0.1365 -0.5062
 3718TIP3    H132569   6.307   2.538   4.190  0.1254 -0.0939 -0.3118
 3718TIP3    H232570   6.262   2.642   4.291 -0.5674 -1.3821  0.7339
 3719TIP3   OH232571   0.692   3.643  11.486  0.3438  0.0296 -0.2276
 3719TIP3    H132572   0.724   3.728  11.458 -1.5369  0.9143  0.2680
 3719TIP3    H232573   0.758   3.581  11.455  1.4961  1.6138 -0.9737
 3720TIP3   OH232574   5.330   3.169  17.185 -0.6643 -0.1099  0.1869
 3720TIP3    H132575   5.346   3.081  17.219 -1.2070 -0.3966 -0.2883
 3720TIP3    H232576   5.383   3.226  17.240  0.6863 -0.8651 -0.3278
 3721TIP3   OH232577   3.103   6.573   5.763  0.0271 -0.4148 -0.6315
 3721TIP3    H132578   3.046   6.497   5.768 -0.5638  0.0721  0.1641
 3721TIP3    H232579   3.098   6.613   5.850 -0.5479  1.1633 -1.3697
 3722TIP3   OH232580   0.468   0.589   4.447  0.1606  0.6371  0.5730
 3722TIP3    H132581   0.553   0.625   4.421 -0.0912  1.3773  0.7616
 3722TIP3    H232582   0.487   0.535   4.524  0.4075  1.0684  0.8121
 3723TIP3   OH232583   3.643   6.493  13.521  0.6808  0.7036 -0.0907
 3723TIP3    H132584   3.701   6.540  13.461  0.3924 -1.4110 -2.0804
 3723TIP3    H232585   3.583   6.560  13.554  1.5873  2.1252 -1.2543
 3724TIP3   OH232586   5.760   6.453  16.459 -0.2016 -0.1362  0.8965
 3724TIP3    H132587   5.725   6.513  16.526  1.5513  1.0462  0.7758
 3724TIP3    H232588   5.835   6.499  16.422 -0.9265 -0.9151 -1.6826
 3725TIP3   OH232589   4.308   2.919   4.175  0.4027 -0.2784 -0.0018
 3725TIP3    H132590   4.359   2.921   4.256 -0.9311  0.8490  0.8261
 3725TIP3    H232591   4.288   2.827   4.161  0.3900 -0.4493  1.1152
 3726TIP3   OH232592   4.849   3.058  15.824 -0.6884 -0.0951  0.2343
 3726TIP3    H132593   4.756   3.074  15.808 -0.6187  1.3065  1.1272
 3726TIP3    H232594   4.888   3.051  15.737 -1.7099 -1.2688 -0.1487
 3727TIP3   OH232595   0.315   4.441  15.625 -0.2543  0.0827 -0.0889
 3727TIP3    H132596   0.307   4.348  15.606  1.1982  0.0926 -0.8345
 3727TIP3    H232597   0.371   4.445  15.702 -0.5151  0.3222  0.0880
 3728TIP3   OH232598   4.093   3.932   5.368  0.1236 -0.6772  0.0990
 3728TIP3    H132599   4.054   4.007   5.412 -0.1156 -1.8281  1.8972
 3728TIP3    H232600   4.179   3.963   5.338 -0.4846  0.6594 -0.2916
 3729TIP3   OH232601   6.210   4.183   0.797  0.2021  0.8498 -0.3840
 3729TIP3    H132602   6.122   4.220   0.786 -0.8924 -1.7747 -0.7718
 3729TIP3    H232603   6.200   4.117   0.865  2.1116  1.1389  0.2245
 3730TIP3   OH232604   5.509   5.338   1.401 -0.1705 -0.1672  0.1577
 3730TIP3    H132605   5.536   5.396   1.330 -1.5881  0.4862  0.1477
 3730TIP3    H232606   5.586   5.283   1.418  0.7783  0.9193 -0.6220
 3731TIP3   OH232607   4.085   1.198   5.314 -0.5384 -0.2804 -0.5615
 3731TIP3    H132608   4.142   1.216   5.239  1.9034 -0.0931  1.3165
 3731TIP3    H232609   4.128   1.127   5.362 -1.4285  0.4397  1.3628
 3732TIP3   OH232610   3.276   0.184  14.679 -0.0315  0.4680 -0.1969
 3732TIP3    H132611   3.286   0.089  14.674 -0.8062  0.3174  0.9844
 3732TIP3    H232612   3.247   0.210  14.591 -1.0165 -0.5377 -0.1832
 3733TIP3   OH232613   5.516   2.736   5.502 -0.6004 -0.5713 -0.1576
 3733TIP3    H132614   5.460   2.681   5.447 -1.2459  2.0711 -2.2747
 3733TIP3    H232615   5.594   2.752   5.448 -0.3015  0.3443  0.5368
 3734TIP3   OH232616   4.795   5.576  10.620 -0.8824  0.0983 -0.1832
 3734TIP3    H132617   4.794   5.482  10.601 -0.3463 -0.1638  1.0195
 3734TIP3    H232618   4.863   5.611  10.563  1.6803 -0.8959  2.1617
 3735TIP3   OH232619   0.947   4.452  12.620 -0.2389 -0.0787 -0.1430
 3735TIP3    H132620   0.961   4.357  12.624 -0.2238 -0.0182  1.8481
 3735TIP3    H232621   0.913   4.474  12.706 -0.5922  1.6830 -0.7276
 3736TIP3   OH232622   4.032   1.635  14.022  0.7407  0.7546  0.3136
 3736TIP3    H132623   3.943   1.666  14.007  0.4424 -0.0277  0.4553
 3736TIP3    H232624   4.073   1.639  13.935  0.2530  0.1215  0.0551
 3737TIP3   OH232625   4.378   3.994   5.557 -0.1054  0.1547  0.5671
 3737TIP3    H132626   4.311   4.051   5.519  1.3596  0.3329 -1.8601
 3737TIP3    H232627   4.360   3.908   5.520  0.2526 -0.0434  0.8491
 3738TIP3   OH232628   3.583   0.840  16.472 -0.2234 -0.0047 -0.3422
 3738TIP3    H132629   3.663   0.800  16.505 -0.2128 -0.4374 -0.8879
 3738TIP3    H232630   3.521   0.835  16.544  0.2293  0.3057  0.0718
 3739TIP3   OH232631   0.220   1.728  16.056 -0.0370  0.4540 -0.0889
 3739TIP3    H132632   0.138   1.696  16.093  0.7455  0.8757  2.1027
 3739TIP3    H232633   0.193   1.786  15.985 -1.6247  0.2475  0.3329
 3740TIP3   OH232634   3.110   1.672   2.928  0.2663  0.1947 -0.1463
 3740TIP3    H132635   3.036   1.644   2.982 -1.4590  1.4976 -1.7912
 3740TIP3    H232636   3.152   1.742   2.978 -1.0020  1.0322 -0.2529
 3741TIP3   OH232637   0.981   5.778  10.507  0.1920  0.1537  0.1863
 3741TIP3    H132638   1.054   5.740  10.557  2.2035  0.5590 -2.3716
 3741TIP3    H232639   1.022   5.821  10.433 -2.6510  0.7195 -1.1300
 3742TIP3   OH232640   2.650   5.309   1.022 -0.0054  0.0323 -0.2629
 3742TIP3    H132641   2.619   5.388   0.978  1.6333  0.0215 -1.5011
 3742TIP3    H232642   2.645   5.331   1.115  0.7120  1.7439 -0.5917
 3743TIP3   OH232643   5.558   3.652   0.562 -0.3272 -0.0937  0.6384
 3743TIP3    H132644   5.565   3.705   0.642  1.0465  0.6461  0.0374
 3743TIP3    H232645   5.581   3.712   0.491 -0.1811 -1.1197 -0.1907
 3744TIP3   OH232646   6.165   2.315  14.124 -0.1210 -0.0665  0.2144
 3744TIP3    H132647   6.118   2.383  14.076  0.6897 -0.8119 -1.7246
 3744TIP3    H232648   6.105   2.241  14.125 -0.2256  0.0231  0.5531
 3745TIP3   OH232649   1.184   5.740  11.165 -0.9403  0.4051  0.0461
 3745TIP3    H132650   1.251   5.788  11.117 -1.3896  0.6349 -0.3527
 3745TIP3    H232651   1.199   5.648  11.143  0.3763  0.2770  1.3791
 3746TIP3   OH232652   4.170   4.382  14.559 -0.1747 -0.1656  0.4800
 3746TIP3    H132653   4.196   4.468  14.525  0.6258  0.1970  1.9289
 3746TIP3    H232654   4.082   4.396  14.595 -0.7640 -0.3963 -0.8701
 3747TIP3   OH232655   4.932   0.542  12.527 -0.0261 -0.0729  0.1564
 3747TIP3    H132656   4.957   0.450  12.532 -2.4196 -0.8571 -1.6374
 3747TIP3    H232657   4.942   0.565  12.435 -1.6711  0.8056  0.1825
 3748TIP3   OH232658   1.835   4.875   1.383 -0.1287  0.5915 -0.3053
 3748TIP3    H132659   1.809   4.789   1.416 -0.0051  0.6158 -0.1420
 3748TIP3    H232660   1.774   4.936   1.427 -0.7841  0.5079 -1.0905
 3749TIP3   OH232661   4.360   5.746   0.810 -0.4500  0.0484  0.9316
 3749TIP3    H132662   4.278   5.715   0.848 -1.7714 -0.1002 -1.9393
 3749TIP3    H232663   4.338   5.830   0.770  0.3805 -0.7426 -1.2456
 3750TIP3   OH232664   3.092   2.643  12.705 -0.1652  0.0015  0.1729
 3750TIP3    H132665   3.097   2.709  12.775  2.9537  0.9561 -0.8959
 3750TIP3    H232666   3.099   2.694  12.624  0.8543 -1.5350 -0.7097
 3751TIP3   OH232667   0.496   3.458  15.967  0.3075  0.5161  0.3601
 3751TIP3    H132668   0.493   3.364  15.987 -1.0702  0.1351 -1.5397
 3751TIP3    H232669   0.440   3.468  15.890  0.8148  2.8390  0.2680
 3752TIP3   OH232670   2.816   3.782  15.055 -0.0590 -0.1675  0.2222
 3752TIP3    H132671   2.740   3.837  15.075 -0.8835 -1.1463 -0.1841
 3752TIP3    H232672   2.836   3.738  15.138  0.4606  0.5583  0.4880
 3753TIP3   OH232673   0.419   0.559  17.157  0.1564  0.4597  0.1588
 3753TIP3    H132674   0.498   0.538  17.206 -0.5804 -0.7843  0.8608
 3753TIP3    H232675   0.408   0.654  17.167  0.4527  0.3398  1.7692
 3754TIP3   OH232676   1.244   3.990  14.706 -0.2685  0.4749 -0.0538
 3754TIP3    H132677   1.306   4.063  14.708  0.0853  0.1235  2.1928
 3754TIP3    H232678   1.164   4.025  14.743 -0.7663  0.3113 -0.9576
 3755TIP3   OH232679   4.669   5.253   0.358 -0.1136 -0.0801 -0.1763
 3755TIP3    H132680   4.636   5.339   0.331 -1.9686 -1.1628 -1.4788
 3755TIP3    H232681   4.748   5.273   0.409  0.4755  2.3025 -1.9158
 3756TIP3   OH232682   1.145   3.268   6.284  0.6948  0.4008  0.4372
 3756TIP3    H132683   1.164   3.233   6.197 -0.5872  2.8839 -0.8905
 3756TIP3    H232684   1.209   3.339   6.296 -0.2077  1.1618  0.8087
 3757TIP3   OH232685   5.448   0.414   3.264 -0.2796  0.3504  0.0447
 3757TIP3    H132686   5.355   0.428   3.284  0.2307 -0.6071  3.3254
 3757TIP3    H232687   5.490   0.497   3.284 -0.1753  0.2870  0.0841
 3758TIP3   OH232688   5.424   0.414  16.600  0.1640  0.0910  0.2752
 3758TIP3    H132689   5.433   0.399  16.506  1.0870 -0.4777  0.4420
 3758TIP3    H232690   5.493   0.477  16.621  0.5118 -0.4206  0.7068
 3759TIP3   OH232691   5.932   4.236  16.856 -0.0290 -0.0792 -0.0056
 3759TIP3    H132692   5.848   4.270  16.824 -0.7424 -1.5696  0.2323
 3759TIP3    H232693   5.928   4.142  16.838  1.1791 -0.3199  0.9347
 3760TIP3   OH232694   0.494   1.774  14.894 -0.4990  0.3106  0.1269
 3760TIP3    H132695   0.442   1.747  14.818 -0.8047 -0.4251  0.6002
 3760TIP3    H232696   0.551   1.843  14.860 -0.3875 -0.2531 -0.8516
 3761TIP3   OH232697   5.672   6.416   2.136  0.7393 -0.1063 -0.2380
 3761TIP3    H132698   5.756   6.371   2.146  1.0846 -0.4318 -4.0105
 3761TIP3    H232699   5.610   6.347   2.111  0.2558  0.7493 -1.4644
 3762TIP3   OH232700   5.851   5.519   3.574 -0.8563 -0.3027  0.5454
 3762TIP3    H132701   5.820   5.606   3.547 -2.3814 -1.2029 -0.6988
 3762TIP3    H232702   5.939   5.512   3.536 -1.3189  0.1211 -0.6266
 3763TIP3   OH232703   1.309   1.245  14.966  0.2845  0.1870  0.1668
 3763TIP3    H132704   1.404   1.252  14.957  0.2942  0.6592  0.5744
 3763TIP3    H232705   1.285   1.321  15.020 -0.3276  0.0991  0.0189
 3764TIP3   OH232706   3.401   2.320   0.249  0.4557  0.7069 -0.1429
 3764TIP3    H132707   3.464   2.339   0.179 -0.3367 -0.4590 -1.1892
 3764TIP3    H232708   3.453   2.276   0.316  0.7086 -0.6190 -1.1790
 3765TIP3   OH232709   5.650   5.842   3.938 -0.2095 -0.0038  0.5798
 3765TIP3    H132710   5.610   5.795   4.011 -0.6909  1.9149  1.5994
 3765TIP3    H232711   5.689   5.774   3.884 -1.9251 -1.6560  1.3511
 3766TIP3   OH232712   1.324   5.193   5.219 -0.1987  0.0501 -0.9469
 3766TIP3    H132713   1.289   5.199   5.308 -1.4818 -2.2083 -1.2432
 3766TIP3    H232714   1.411   5.156   5.230 -0.0760  0.4556 -0.5701
 3767TIP3   OH232715   4.304   1.952  15.171  1.0060  0.4223 -0.6332
 3767TIP3    H132716   4.387   2.001  15.171  0.7452  0.8963 -2.2970
 3767TIP3    H232717   4.247   2.002  15.228  2.5143 -1.0676  2.2705
 3768TIP3   OH232718   0.729   2.865   1.322  0.4937 -0.5418 -0.3411
 3768TIP3    H132719   0.728   2.933   1.254  0.3083  1.2395  1.4244
 3768TIP3    H232720   0.645   2.874   1.366  0.7773 -1.4397  0.3927
 3769TIP3   OH232721   5.001   4.133  13.287  0.0792  0.2533 -0.0399
 3769TIP3    H132722   5.018   4.040  13.304  2.3397 -0.0367 -3.5077
 3769TIP3    H232723   4.909   4.135  13.260 -0.1641 -0.8834  0.6419
 3770TIP3   OH232724   2.122   1.877   3.982 -0.5534 -0.0293 -0.1918
 3770TIP3    H132725   2.127   1.868   4.078 -1.7819 -0.5955 -0.1791
 3770TIP3    H232726   2.214   1.884   3.955 -0.2438  2.2178  1.2187
 3771TIP3   OH232727   1.074   5.262   3.366 -0.4326  0.8543  0.3560
 3771TIP3    H132728   1.051   5.186   3.419 -2.1538  2.2364  1.6395
 3771TIP3    H232729   1.012   5.261   3.293  0.9594 -0.1791 -0.8608
 3772TIP3   OH232730   5.500   6.379   4.985 -0.2286  0.0242  0.2458
 3772TIP3    H132731   5.573   6.391   5.046 -0.1614  0.3409  0.0995
 3772TIP3    H232732   5.424   6.362   5.042  0.2942 -2.1467  0.3637
 3773TIP3   OH232733   5.452   1.849   3.727  0.1567 -0.4382 -0.3406
 3773TIP3    H132734   5.430   1.913   3.795 -1.9632 -1.0119 -0.4401
 3773TIP3    H232735   5.513   1.789   3.769  0.0388  0.0959  0.5982
 3774TIP3   OH232736   5.576   2.194  13.212 -0.7548 -0.1215 -0.3666
 3774TIP3    H132737   5.594   2.257  13.142  1.2144  1.1336  1.2379
 3774TIP3    H232738   5.521   2.242  13.273  0.6530  0.0255  0.8027
 3775TIP3   OH232739   3.815   3.279  16.930  0.6183  0.5008  0.0070
 3775TIP3    H132740   3.817   3.204  16.870  0.0235  0.1214  0.4600
 3775TIP3    H232741   3.840   3.354  16.876  0.2813  0.1281 -0.6620
 3776TIP3   OH232742   1.132   6.170  13.491  0.2384 -0.1801 -0.7574
 3776TIP3    H132743   1.106   6.129  13.574 -0.6946  0.2944 -0.8194
 3776TIP3    H232744   1.094   6.257  13.494 -2.6256 -1.2666 -3.1076
 3777TIP3   OH232745   5.023   1.087  15.024  0.3791  0.0062  0.1457
 3777TIP3    H132746   4.978   1.109  14.942 -0.8929 -1.4380  0.4330
 3777TIP3    H232747   5.072   1.166  15.047 -0.3126  0.8689 -1.3209
 3778TIP3   OH232748   2.616   2.289   4.209 -0.0506  0.1005 -0.6080
 3778TIP3    H132749   2.573   2.366   4.173  0.0772  0.7708  0.6284
 3778TIP3    H232750   2.548   2.244   4.259 -0.9247 -2.2427 -3.7178
 3779TIP3   OH232751   0.538   5.111  13.540 -0.3747  0.2193  0.2041
 3779TIP3    H132752   0.498   5.046  13.597 -0.9833  0.7291  0.3616
 3779TIP3    H232753   0.632   5.099  13.553 -0.4698 -0.9314 -0.1230
 3780TIP3   OH232754   2.642   1.773  11.102  0.1055 -0.1917  0.4162
 3780TIP3    H132755   2.704   1.819  11.158  0.5204 -1.5468  1.0861
 3780TIP3    H232756   2.694   1.747  11.025 -0.4886  1.7636 -0.6774
 3781TIP3   OH232757   0.374   5.607   4.311  0.2054 -0.0466 -0.0142
 3781TIP3    H132758   0.317   5.676   4.346 -0.1821  0.2538 -1.2217
 3781TIP3    H232759   0.463   5.640   4.323  0.0532  0.2845  0.2025
 3782TIP3   OH232760   3.402   0.931  16.683 -0.0457 -0.2427  0.0472
 3782TIP3    H132761   3.330   0.919  16.745 -0.0482 -3.9761 -0.5423
 3782TIP3    H232762   3.361   0.969  16.605 -0.2387  3.3829  1.8547
 3783TIP3   OH232763   5.568   5.150  13.760  0.0113 -0.3920 -0.6390
 3783TIP3    H132764   5.608   5.195  13.685 -0.7839  0.9651 -0.2822
 3783TIP3    H232765   5.486   5.115  13.724  1.0999 -2.4441 -1.1638
 3784TIP3   OH232766   6.233   6.198  11.045  0.2421  0.5829 -0.2444
 3784TIP3    H132767   6.203   6.239  11.125 -1.0487 -0.4054 -0.2156
 3784TIP3    H232768   6.293   6.129  11.074  0.5419  0.8737 -0.1775
 3785TIP3   OH232769   2.752   5.827   5.385 -0.6863  0.2549  0.2911
 3785TIP3    H132770   2.828   5.770   5.378 -0.3213  0.6737  0.8631
 3785TIP3    H232771   2.785   5.915   5.371 -0.7231  0.6397  2.4127
 3786TIP3   OH232772   0.609   2.385  11.638  0.3624  0.2799  0.1246
 3786TIP3    H132773   0.651   2.401  11.554  0.3744  0.6843  0.2043
 3786TIP3    H232774   0.578   2.471  11.666 -1.0474 -0.1121 -0.2046
 3787TIP3   OH232775   4.941   0.702  12.922 -0.0088 -0.5537 -0.2914
 3787TIP3    H132776   4.865   0.710  12.980 -0.3565 -2.8092 -0.4075
 3787TIP3    H232777   4.988   0.785  12.933 -2.6035  0.9626 -0.4205
 3788TIP3   OH232778   1.083   4.941   4.073  0.4537  0.1655  0.1762
 3788TIP3    H132779   0.997   4.982   4.076  0.2676  0.1222 -2.8508
 3788TIP3    H232780   1.145   5.014   4.075  0.2521  0.3591 -0.5033
 3789TIP3   OH232781   4.785   0.181   6.595  0.1221  0.0590 -0.2308
 3789TIP3    H132782   4.876   0.158   6.580 -0.3334 -0.7592 -1.7742
 3789TIP3    H232783   4.754   0.218   6.512 -0.1171  3.1968  1.1741
 3790TIP3   OH232784   1.095   1.091   0.600 -0.4440 -0.2280  0.3429
 3790TIP3    H132785   1.181   1.133   0.599 -0.5154 -0.0472  1.5575
 3790TIP3    H232786   1.097   1.031   0.525  0.5352  0.1733  0.0389
 3791TIP3   OH232787   5.993   2.902  12.923 -0.2360  0.1637 -0.1622
 3791TIP3    H132788   5.904   2.904  12.887 -1.4316  0.2294  2.7298
 3791TIP3    H232789   6.033   2.824  12.883 -1.6486  0.0001 -1.2948
 3792TIP3   OH232790   4.092   5.166   0.941  0.1786 -0.0560  0.2402
 3792TIP3    H132791   4.033   5.220   0.994  0.7333  0.4545  0.3487
 3792TIP3    H232792   4.161   5.227   0.913  1.1443 -0.8502  0.8825
 3793TIP3   OH232793   1.624   6.056  12.845 -0.0945 -0.0078 -0.1539
 3793TIP3    H132794   1.645   5.967  12.875 -0.4472 -0.3072 -0.7748
 3793TIP3    H232795   1.702   6.083  12.797 -0.4581 -0.4686 -1.0226
 3794TIP3   OH232796   6.427   3.222  13.287 -0.1685 -1.1660 -0.1370
 3794TIP3    H132797   6.359   3.214  13.354 -0.9377 -1.3747 -0.9272
 3794TIP3    H232798   6.507   3.195  13.330 -0.1736  1.2853  1.4744
 3795TIP3   OH232799   5.687   1.087   2.326  0.1220 -0.3714  0.6099
 3795TIP3    H132800   5.690   1.085   2.230 -0.7866  0.0269  0.5710
 3795TIP3    H232801   5.672   0.996   2.352  0.9994 -0.5836  0.4064
 3796TIP3   OH232802   0.128   0.537  11.454  0.3679 -0.0237 -0.0366
 3796TIP3    H132803   0.206   0.481  11.450  0.2833 -0.2085  0.8511
 3796TIP3    H232804   0.108   0.544  11.548 -2.0514 -1.8677 -0.3701
 3797TIP3   OH232805   2.293   4.835   5.394 -0.0990 -0.2989  0.2942
 3797TIP3    H132806   2.341   4.758   5.363 -0.4858 -0.2392 -0.4766
 3797TIP3    H232807   2.218   4.799   5.442 -0.4465 -0.4240 -0.3210
 3798TIP3   OH232808   1.391   4.031  11.012 -0.3073  0.0904  0.1027
 3798TIP3    H132809   1.414   4.084  10.936  1.7688  1.4889  1.6617
 3798TIP3    H232810   1.456   3.961  11.013  0.1846  0.5422  1.0220
 3799TIP3   OH232811   3.231   3.188  16.609 -0.3243  0.2951 -0.2087
 3799TIP3    H132812   3.301   3.138  16.567 -1.2989 -0.1902 -1.2725
 3799TIP3    H232813   3.201   3.132  16.680  1.4328  1.1829  1.2802
 3800TIP3   OH232814   4.995   5.249   4.407  0.5044 -0.3434  0.0589
 3800TIP3    H132815   4.962   5.337   4.424  0.9978 -0.3646  1.1618
 3800TIP3    H232816   4.918   5.192   4.413  0.0484  0.0829 -1.4001
 3801TIP3   OH232817   1.329   2.588   0.295  0.0438  0.3059 -0.2319
 3801TIP3    H132818   1.268   2.523   0.328  0.5400  0.5458  1.1855
 3801TIP3    H232819   1.405   2.537   0.265  0.4939  0.2256  1.0131
 3802TIP3   OH232820   1.706   0.547  12.297 -0.0651 -0.3260 -0.4822
 3802TIP3    H132821   1.648   0.475  12.323 -0.6921  0.9840  1.9828
 3802TIP3    H232822   1.682   0.567  12.207 -1.1582 -1.9770 -0.5729
 3803TIP3   OH232823   5.104   2.928  17.150  0.1000 -0.3360  0.0478
 3803TIP3    H132824   5.031   2.962  17.203  0.1955 -1.4687  0.9438
 3803TIP3    H232825   5.160   3.003  17.134 -1.1975  0.5188 -0.5216
 3804TIP3   OH232826   6.616   1.963   0.102  0.3289  0.1120 -0.0288
 3804TIP3    H132827   6.651   2.025   0.166  1.1274  0.2437 -0.5912
 3804TIP3    H232828   6.541   1.923   0.146  0.0949  1.1350  0.5091
 3805TIP3   OH232829   5.676   1.161   2.059 -0.3783 -0.2796 -0.4583
 3805TIP3    H132830   5.758   1.204   2.034 -0.4937 -1.2495 -2.5421
 3805TIP3    H232831   5.614   1.233   2.071  0.6192  0.4213  0.6496
 3806TIP3   OH232832   6.722   3.889   6.287 -0.9566 -0.2907 -0.0380
 3806TIP3    H132833   6.746   3.980   6.304  0.9695 -0.4886 -1.6430
 3806TIP3    H232834   6.633   3.881   6.322 -1.3548  2.3506 -0.3733
 3807TIP3   OH232835   1.746   5.209  17.229  0.4223  0.3002 -0.0311
 3807TIP3    H132836   1.685   5.282  17.225  0.8813  0.6880  0.0573
 3807TIP3    H232837   1.728   5.167  17.313  0.1709  0.3133 -0.0791
 3808TIP3   OH232838   5.179   5.179   1.233 -0.0243  0.6051 -0.6520
 3808TIP3    H132839   5.170   5.088   1.261  0.5447  0.2567 -1.5639
 3808TIP3    H232840   5.220   5.223   1.307 -0.7348  0.2219 -0.0282
 3809TIP3   OH232841   1.291   6.631   4.357 -0.1956 -0.0774 -0.3573
 3809TIP3    H132842   1.258   6.699   4.298  0.3633  1.6953  1.3556
 3809TIP3    H232843   1.253   6.550   4.322 -4.1392  1.5382 -0.1363
 3810TIP3   OH232844   0.068   1.142  15.279 -0.7259 -0.5681 -0.1765
 3810TIP3    H132845  -0.008   1.201  15.279 -0.9344 -0.8137 -1.3839
 3810TIP3    H232846   0.144   1.200  15.271 -1.0218 -0.5334 -3.0809
 3811TIP3   OH232847   3.978   5.664  14.276  0.2902  0.0322  0.5798
 3811TIP3    H132848   3.902   5.607  14.271 -0.8116  1.5381 -0.2459
 3811TIP3    H232849   4.023   5.651  14.192 -1.1824  2.0032 -0.5579
 3812TIP3   OH232850   1.171   3.325   3.747 -0.0501  0.3679  0.0435
 3812TIP3    H132851   1.094   3.291   3.702 -0.2307  0.3207  0.3898
 3812TIP3    H232852   1.156   3.305   3.840  0.2926  0.5204  0.1326
 3813TIP3   OH232853   3.383   4.151   3.892  0.2962 -0.4814 -0.0161
 3813TIP3    H132854   3.472   4.124   3.917  0.9415  1.3164 -0.3300
 3813TIP3    H232855   3.353   4.081   3.834  1.4952 -1.1305  0.1147
 3814TIP3   OH232856   5.640   1.124   0.069  0.6872  0.3937  0.0706
 3814TIP3    H132857   5.720   1.072   0.079  0.0661 -0.7774 -0.9286
 3814TIP3    H232858   5.603   1.127   0.158  0.0222 -2.0651 -0.0741
 3815TIP3   OH232859   1.248   0.578   1.943  0.0761  0.7062 -0.1419
 3815TIP3    H132860   1.327   0.524   1.937 -0.1116  0.4947 -0.7701
 3815TIP3    H232861   1.273   0.650   2.001  0.1348 -0.3925  1.2312
 3816TIP3   OH232862   5.856   5.932  14.835  0.1060 -0.3994  0.2337
 3816TIP3    H132863   5.920   5.882  14.885 -0.9982 -3.1811 -1.0292
 3816TIP3    H232864   5.783   5.944  14.895 -0.7040 -2.6401 -0.2712
 3817TIP3   OH232865   2.511   1.997  16.684  0.2623 -0.2294  0.1667
 3817TIP3    H132866   2.578   1.949  16.636  1.3883  1.2351  0.2386
 3817TIP3    H232867   2.429   1.968  16.644  0.9902 -1.3005 -0.5950
 3818TIP3   OH232868   6.562   2.388   3.971  0.3468 -0.4572  0.0735
 3818TIP3    H132869   6.635   2.429   3.925  0.0867 -0.0854 -0.0123
 3818TIP3    H232870   6.547   2.443   4.047  0.5534 -0.8805  0.4241
 3819TIP3   OH232871   5.471   0.033   0.158  0.1735  0.3138  0.0299
 3819TIP3    H132872   5.418  -0.017   0.221 -0.3648 -1.2022 -1.5884
 3819TIP3    H232873   5.492   0.114   0.204 -0.7312 -0.4914  1.9417
 3820TIP3   OH232874   4.888   3.661  13.521  0.4386  0.3669 -0.2955
 3820TIP3    H132875   4.983   3.675  13.516  0.7521 -1.2830  0.6121
 3820TIP3    H232876   4.878   3.587  13.581 -1.3779 -0.0602 -1.0946
 3821TIP3   OH232877   1.352   3.678   0.245 -0.3602  0.2344  0.0810
 3821TIP3    H132878   1.307   3.721   0.172 -0.6255 -0.8199 -0.3896
 3821TIP3    H232879   1.363   3.587   0.216 -1.2413 -0.4114  1.6997
 3822TIP3   OH232880   0.219   2.525  17.067 -0.3253 -0.0848  0.5391
 3822TIP3    H132881   0.155   2.506  16.998  0.3061 -1.6411  0.3442
 3822TIP3    H232882   0.181   2.598  17.116 -1.1678  0.4950 -0.9492
 3823TIP3   OH232883   5.663   5.121   3.026  0.6751  0.3833 -0.3229
 3823TIP3    H132884   5.743   5.170   3.007  0.2444  1.3705  0.3832
 3823TIP3    H232885   5.592   5.180   3.002  0.1436  0.7696  2.1053
 3824TIP3   OH232886   6.784   6.575   2.485  0.0700  0.2279 -0.3140
 3824TIP3    H132887   6.714   6.511   2.499 -0.4287  0.5124 -1.4966
 3824TIP3    H232888   6.815   6.558   2.396  1.3116  0.2939  0.0971
 3825TIP3   OH232889   5.215   4.788   4.765  0.2230  0.4046 -0.2449
 3825TIP3    H132890   5.305   4.815   4.752  0.2963 -0.0156 -0.6197
 3825TIP3    H232891   5.221   4.712   4.824  0.2626 -0.8011 -1.7581
 3826TIP3   OH232892   3.289   6.569   3.843 -0.2713 -0.9290  0.1740
 3826TIP3    H132893   3.248   6.613   3.770 -0.2650 -1.2065  0.0015
 3826TIP3    H232894   3.291   6.634   3.913  0.2865 -0.4609 -0.2687
 3827TIP3   OH232895   0.385   5.235  16.392 -0.2951  0.6656 -0.6945
 3827TIP3    H132896   0.421   5.155  16.353  1.2252  0.4889  0.9456
 3827TIP3    H232897   0.414   5.305  16.334  0.3130  0.2264 -0.9364
 3828TIP3   OH232898   0.537   3.868  16.189 -0.8023 -0.2823 -0.7358
 3828TIP3    H132899   0.514   3.961  16.189  0.7249  0.1545  3.2129
 3828TIP3    H232900   0.632   3.867  16.174 -0.9751 -1.3206 -1.9007
 3829TIP3   OH232901   0.802   4.298  11.790 -0.6835 -0.4176  0.1429
 3829TIP3    H132902   0.757   4.265  11.713  0.4858  2.2605 -1.7718
 3829TIP3    H232903   0.731   4.325  11.850 -1.6157 -0.6061 -0.8659
 3830TIP3   OH232904   5.180   1.648  11.736 -0.2797  0.2002 -0.1090
 3830TIP3    H132905   5.211   1.608  11.655  0.3973 -1.2590  0.8555
 3830TIP3    H232906   5.190   1.742  11.721  0.7804 -0.0926 -1.3469
 3831TIP3   OH232907   2.620   3.477  14.917 -0.4225 -0.6176  0.3949
 3831TIP3    H132908   2.569   3.556  14.938  0.0472 -0.5240  1.1768
 3831TIP3    H232909   2.679   3.466  14.991 -0.3932 -1.6337  0.2220
 3832TIP3   OH232910   3.913   1.147  12.544  0.3053  0.3619 -0.2966
 3832TIP3    H132911   3.826   1.157  12.506  0.1656  0.4249  0.0322
 3832TIP3    H232912   3.940   1.237  12.565  0.0180  0.2631  0.5395
 3833TIP3   OH232913   3.387   5.546  16.918 -0.5642 -0.6550  0.2426
 3833TIP3    H132914   3.405   5.577  17.006  0.0313 -1.8755  0.5662
 3833TIP3    H232915   3.313   5.486  16.928 -0.6494 -0.6115 -0.1160
 3834TIP3   OH232916   0.291   4.758   6.155  0.3662 -0.1786 -0.3777
 3834TIP3    H132917   0.290   4.820   6.082  0.7270 -0.2034 -0.4063
 3834TIP3    H232918   0.356   4.693   6.130  1.6526  0.6791  0.6966
 3835TIP3   OH232919   6.596   6.637  13.963  0.4293  0.7555 -0.7052
 3835TIP3    H132920   6.656   6.638  13.888 -0.7000  0.1209 -1.6435
 3835TIP3    H232921   6.633   6.698  14.025  1.3853  1.3018 -1.8043
 3836TIP3   OH232922   4.924   3.405  13.635  0.0612 -0.0728 -0.1796
 3836TIP3    H132923   4.847   3.356  13.664  1.1808 -0.5357  2.1320
 3836TIP3    H232924   4.953   3.359  13.556 -1.2123 -0.7355 -0.2811
 3837TIP3   OH232925   2.979   5.302   3.636 -0.6828 -0.1952  0.1179
 3837TIP3    H132926   3.008   5.393   3.635 -0.5559 -0.2057  1.6948
 3837TIP3    H232927   3.050   5.255   3.679 -1.2024 -0.8763  0.2330
 3838TIP3   OH232928   2.246   1.460  14.774 -0.1893 -0.2500 -0.1752
 3838TIP3    H132929   2.152   1.462  14.793 -0.1010 -0.3130  0.2796
 3838TIP3    H232930   2.253   1.493  14.684 -0.8593 -2.6670 -1.1409
 3839TIP3   OH232931   0.494   4.209   0.359  0.1629  0.0832 -0.4469
 3839TIP3    H132932   0.573   4.257   0.382 -0.1969  0.1117  0.7348
 3839TIP3    H232933   0.473   4.240   0.271  1.3579  0.2099 -0.6997
 3840TIP3   OH232934   0.605   1.894   5.070  0.4393 -0.1063  0.4910
 3840TIP3    H132935   0.555   1.876   5.149 -1.3012  0.3298 -0.4700
 3840TIP3    H232936   0.538   1.916   5.004  1.9291  0.9595 -0.7035
 3841TIP3   OH232937   2.692   0.877  14.297 -0.3971 -0.1582  0.4344
 3841TIP3    H132938   2.670   0.784  14.294  1.0887 -0.5184 -0.0276
 3841TIP3    H232939   2.767   0.882  14.357 -0.9748  0.8536  1.0854
 3842TIP3   OH232940   5.522   3.883   0.727 -0.0912 -0.4014  0.4931
 3842TIP3    H132941   5.500   3.976   0.735 -0.8138 -0.7804  3.3509
 3842TIP3    H232942   5.600   3.872   0.781 -0.7094 -1.6776  1.1592
 3843TIP3   OH232943   0.532   1.526  13.186 -0.1968  0.3779 -0.3658
 3843TIP3    H132944   0.499   1.508  13.275 -0.9218  0.4908 -0.6042
 3843TIP3    H232945   0.482   1.603  13.158  0.8711  1.0601 -0.4248
 3844TIP3   OH232946   5.203   1.841   0.001 -0.1140  0.1840 -0.1529
 3844TIP3    H132947   5.168   1.929  -0.010 -0.3940  0.1960  0.8161
 3844TIP3    H232948   5.134   1.784  -0.034 -0.3241  0.3058  0.0564
 3845TIP3   OH232949   2.877   4.896  16.193 -0.3794 -0.8828  0.0601
 3845TIP3    H132950   2.912   4.981  16.220 -1.5460 -0.8699  1.5790
 3845TIP3    H232951   2.944   4.833  16.220  1.2559 -0.3532 -2.5314
 3846TIP3   OH232952   5.170   1.553   6.495 -0.2073 -0.7975  0.1696
 3846TIP3    H132953   5.089   1.562   6.544 -0.5000 -1.5448 -0.1600
 3846TIP3    H232954   5.236   1.596   6.549 -0.4202 -2.0923  1.5028
 3847TIP3   OH232955   1.202   2.694   1.021 -0.1510 -0.2281 -0.0730
 3847TIP3    H132956   1.157   2.695   1.106 -0.8585 -1.0409 -0.4367
 3847TIP3    H232957   1.233   2.604   1.011 -2.8007 -0.9627 -2.0929
 3848TIP3   OH232958   0.146   1.087   5.933 -0.0184  0.0971 -0.2225
 3848TIP3    H132959   0.083   1.035   5.982  1.6677 -1.9560 -0.2012
 3848TIP3    H232960   0.182   1.149   5.997  1.0152 -1.5037  0.7517
 3849TIP3   OH232961   1.160   1.020  11.688 -0.5968 -0.3239 -0.4308
 3849TIP3    H132962   1.111   0.941  11.713  0.8992 -1.5634 -1.3165
 3849TIP3    H232963   1.119   1.090  11.738 -1.9555 -1.6609  0.3897
 3850TIP3   OH232964   1.341   6.562  10.270 -0.3601 -0.3572 -0.3237
 3850TIP3    H132965   1.364   6.477  10.308 -0.3346 -0.3261 -0.2688
 3850TIP3    H232966   1.425   6.604  10.253 -0.3606  0.4322  1.4230
 3851TIP3   OH232967   4.189   2.039  13.808  0.1235 -0.6159  0.0187
 3851TIP3    H132968   4.256   2.061  13.743  1.2502 -1.5570  0.8495
 3851TIP3    H232969   4.116   2.098  13.788  0.5587 -0.7030 -1.9218
 3852TIP3   OH232970   1.247   4.204   3.758 -0.1879 -0.1866  0.3463
 3852TIP3    H132971   1.232   4.159   3.675  0.5225 -0.3408  0.2986
 3852TIP3    H232972   1.196   4.285   3.751 -2.6962 -1.6547  1.0386
 3853TIP3   OH232973   6.115   6.247   4.110 -0.3038  0.1322 -0.4533
 3853TIP3    H132974   6.058   6.272   4.037 -0.9305 -0.6276 -0.2311
 3853TIP3    H232975   6.187   6.310   4.106 -0.5097  0.3250 -1.5097
 3854TIP3   OH232976   5.333   4.039  11.754 -0.3412 -0.1688 -0.0080
 3854TIP3    H132977   5.259   4.084  11.793  0.0548  0.7578 -0.3091
 3854TIP3    H232978   5.391   4.020  11.828  1.2955  3.2639 -0.3189
 3855TIP3   OH232979   6.685   4.035   5.362 -0.2046 -0.1259  0.4482
 3855TIP3    H132980   6.766   4.086   5.359 -0.8546  0.8537 -0.9048
 3855TIP3    H232981   6.693   3.982   5.441  1.0759  1.0950  1.1572
 3856TIP3   OH232982   1.119   5.408  14.413  0.7866  0.0138  0.0887
 3856TIP3    H132983   1.208   5.442  14.424  0.4552  1.4039 -1.3997
 3856TIP3    H232984   1.094   5.378  14.500  3.0618 -1.2906  0.3451
 3857TIP3   OH232985   1.643   6.219   0.402 -1.0162 -0.4165 -0.0421
 3857TIP3    H132986   1.690   6.215   0.319 -0.4118 -3.0986  0.3942
 3857TIP3    H232987   1.704   6.182   0.466 -1.4793  1.5878  1.6248
 3858TIP3   OH232988   1.577   0.858   3.428  0.4194  0.6080  0.2394
 3858TIP3    H132989   1.581   0.918   3.503  1.3751 -0.4300  1.0269
 3858TIP3    H232990   1.484   0.853   3.407  0.2186  1.5078  0.8708
 3859TIP3   OH232991   1.621   5.498   4.414 -0.4768  0.4347  0.4334
 3859TIP3    H132992   1.629   5.594   4.410 -0.3938  0.4151  0.1402
 3859TIP3    H232993   1.690   5.471   4.474  0.3435  0.4476 -0.4851
 3860TIP3   OH232994   2.278   3.587   5.460 -0.3210 -0.4662 -0.2755
 3860TIP3    H132995   2.345   3.551   5.518  0.7074  1.8940  0.0660
 3860TIP3    H232996   2.235   3.511   5.422  1.0538 -2.0268  1.2323
 3861TIP3   OH232997   6.625   6.061  16.102  0.4700  0.6240  0.4023
 3861TIP3    H132998   6.715   6.064  16.070 -0.3599  1.5278 -1.9338
 3861TIP3    H232999   6.594   6.152  16.094 -0.0937  0.6902  2.8911
 3862TIP3   OH233000   6.183   4.181   3.105  0.2156  0.2555 -0.5144
 3862TIP3    H133001   6.168   4.228   3.023 -0.7404  1.4473  0.3294
 3862TIP3    H233002   6.097   4.176   3.146  0.6433 -0.5677  0.3113
 3863TIP3   OH233003   1.912   3.787  12.489  0.0351 -0.2682 -0.5089
 3863TIP3    H133004   1.938   3.788  12.397  1.4932  0.9713 -0.1161
 3863TIP3    H233005   1.980   3.736  12.532  0.1980  0.4445  0.0916
 3864TIP3   OH233006   5.696   0.930  11.875  0.5855 -0.0501 -0.2691
 3864TIP3    H133007   5.778   0.936  11.924  0.1852  2.8920  0.1059
 3864TIP3    H233008   5.716   0.968  11.790 -0.1095 -0.4096 -0.5952
 3865TIP3   OH233009   4.398   3.669  11.963 -0.5478  0.4759  0.4110
 3865TIP3    H133010   4.400   3.679  11.868  1.2446 -1.6347  0.2101
 3865TIP3    H233011   4.305   3.681  11.986 -0.7286  2.9130 -1.3472
 3866TIP3   OH233012   4.005   1.202  16.172  0.4008  0.6325 -0.1921
 3866TIP3    H133013   4.006   1.113  16.207 -1.7282  0.9314  0.6846
 3866TIP3    H233014   3.919   1.237  16.197  0.3328  2.1714 -2.4089
 3867TIP3   OH233015   1.559   3.678   5.507  0.7603 -0.0389 -0.4950
 3867TIP3    H133016   1.585   3.657   5.597  1.8371  1.9376 -0.3320
 3867TIP3    H233017   1.476   3.725   5.517  1.9694  2.1045 -0.3710
 3868TIP3   OH233018   1.702   5.953  17.129  0.5286  0.5492  0.1962
 3868TIP3    H133019   1.650   5.923  17.055  1.1475  1.7780 -0.7642
 3868TIP3    H233020   1.748   5.875  17.159 -2.6237 -0.8058  1.7439
 3869TIP3   OH233021   5.854   5.892  16.378  0.3299  0.3503  0.1346
 3869TIP3    H133022   5.926   5.879  16.440 -0.9200  0.4468  1.6440
 3869TIP3    H233023   5.869   5.980  16.343  1.3959  0.0518 -0.1984
 3870TIP3   OH233024   1.333   5.840   3.072  0.3642 -0.3512  0.1403
 3870TIP3    H133025   1.413   5.831   3.020 -0.0058 -0.4411 -0.4121
 3870TIP3    H233026   1.262   5.830   3.009 -0.0836 -0.0500  0.5953
 3871TIP3   OH233027   4.396   3.573  16.091 -0.2573 -0.0799 -0.4766
 3871TIP3    H133028   4.333   3.545  16.024 -1.1591 -0.1881  0.4040
 3871TIP3    H233029   4.407   3.667  16.077 -0.2177 -0.1523 -0.9494
 3872TIP3   OH233030   3.289   3.087   5.004 -0.0235 -0.4869  0.7630
 3872TIP3    H133031   3.327   3.174   4.992 -0.6864 -0.3159 -0.1111
 3872TIP3    H233032   3.364   3.028   5.008  0.3648 -0.0910 -0.4433
 3873TIP3   OH233033   3.107   1.879  10.694 -0.6309 -0.0444  0.1981
 3873TIP3    H133034   3.170   1.809  10.711  0.5350  0.7510 -0.7664
 3873TIP3    H233035   3.036   1.836  10.645  0.6427 -0.3131 -1.4415
 3874TIP3   OH233036   0.361   4.640   2.712 -0.2471 -0.8281 -0.7831
 3874TIP3    H133037   0.284   4.601   2.671 -0.2890 -1.3184 -0.2365
 3874TIP3    H233038   0.420   4.660   2.639 -1.3550  0.5809 -1.3154
 3875TIP3   OH233039   4.145   4.091   2.812  0.4291 -0.0736  0.2594
 3875TIP3    H133040   4.215   4.063   2.753 -0.7981 -0.4330 -1.0465
 3875TIP3    H233041   4.066   4.051   2.776 -0.6465  1.3350  1.0064
 3876TIP3   OH233042   3.762   0.313  13.272  0.3501  0.7345  0.0512
 3876TIP3    H133043   3.713   0.231  13.264  1.7178 -0.2442  1.5545
 3876TIP3    H233044   3.702   0.374  13.314  0.5217 -0.5707  2.2354
 3877TIP3   OH233045   6.118   5.399  16.487 -0.3540 -0.2526  0.3470
 3877TIP3    H133046   6.176   5.458  16.440  0.5714 -1.5953 -0.2265
 3877TIP3    H233047   6.168   5.317  16.496 -1.2468 -0.6589  1.9422
 3878TIP3   OH233048   0.124   0.991  16.625 -0.0997  0.0394  0.5760
 3878TIP3    H133049   0.122   0.962  16.534 -1.3648 -0.2135  0.6755
 3878TIP3    H233050   0.159   1.081  16.621 -1.0162  0.3633 -0.2451
 3879TIP3   OH233051   0.202   3.886   4.260 -0.2230  0.3083 -0.2584
 3879TIP3    H133052   0.202   3.971   4.304 -0.5474  1.2054 -1.9437
 3879TIP3    H233053   0.293   3.858   4.262 -0.0202  0.9639 -0.1928
 3880TIP3   OH233054   5.536   2.461  15.866 -0.2491  0.0633 -0.2114
 3880TIP3    H133055   5.488   2.505  15.936  1.3206  0.8763  0.3807
 3880TIP3    H233056   5.510   2.369  15.874  0.2226  0.0646  1.7242
 3881TIP3   OH233057   4.915   4.341  16.471  0.2663 -0.2076 -0.4724
 3881TIP3    H133058   4.889   4.368  16.383  3.9065 -2.1536 -2.2805
 3881TIP3    H233059   4.918   4.246  16.468  1.0064 -0.2902  1.5777
 3882TIP3   OH233060   4.229   3.627  13.127  0.3454 -0.1657  0.6809
 3882TIP3    H133061   4.165   3.667  13.187 -0.6339  1.4113 -1.3482
 3882TIP3    H233062   4.184   3.550  13.092 -0.1666  0.4819 -0.1185
 3883TIP3   OH233063   0.085   0.112  16.227  0.1514 -0.2245  0.5382
 3883TIP3    H133064   0.020   0.169  16.185 -0.7298 -1.4949  0.1695
 3883TIP3    H233065   0.154   0.172  16.256 -1.1016  1.1262  0.7878
 3884TIP3   OH233066   2.165   1.065  10.939  0.2916 -0.3092 -0.1738
 3884TIP3    H133067   2.233   1.054  10.874  0.1643  1.1960 -0.5767
 3884TIP3    H233068   2.092   1.106  10.892  1.0205  2.9100  1.3673
 3885TIP3   OH233069   4.146   4.420   4.976 -0.0791  0.1901  0.0541
 3885TIP3    H133070   4.101   4.444   4.895 -1.3452  1.3314  1.0743
 3885TIP3    H233071   4.237   4.408   4.950 -0.6246 -0.3573 -1.7092
 3886TIP3   OH233072   1.257   4.921  12.762  0.3239  0.5140  0.5060
 3886TIP3    H133073   1.229   4.944  12.673  1.3009 -0.1529  0.0265
 3886TIP3    H233074   1.177   4.928  12.814 -0.5337 -0.3303 -0.6688
 3887TIP3   OH233075   5.639   3.440  14.063  0.3069 -0.6382 -0.4256
 3887TIP3    H133076   5.677   3.447  14.151  0.7838 -1.9748 -0.5173
 3887TIP3    H233077   5.574   3.510  14.060 -0.3999 -1.1738  1.3483
 3888TIP3   OH233078   0.967   4.736   6.149 -0.0498  0.5168 -0.7408
 3888TIP3    H133079   0.986   4.705   6.238  0.0167  0.5861 -0.7301
 3888TIP3    H233080   1.025   4.812   6.138 -0.8135  1.1495 -0.4577
 3889TIP3   OH233081   5.121   0.550   5.167  0.6182  0.2496  0.0942
 3889TIP3    H133082   5.178   0.537   5.092  0.1100 -2.2976  0.1065
 3889TIP3    H233083   5.159   0.495   5.236 -0.3885  0.5247  0.8879
 3890TIP3   OH233084   1.417   1.610  14.638 -0.0373  0.4553  0.0913
 3890TIP3    H133085   1.348   1.642  14.580 -0.3557 -1.1840 -0.4439
 3890TIP3    H233086   1.381   1.532  14.679  1.6353 -0.6675 -0.5033
 3891TIP3   OH233087   6.395   1.503   1.840  0.3847 -0.7910 -0.1477
 3891TIP3    H133088   6.467   1.565   1.855 -1.1521  0.5005  2.1793
 3891TIP3    H233089   6.404   1.440   1.912 -0.8664 -0.5330  0.2399
 3892TIP3   OH233090   3.966   2.962   2.445  0.4846 -0.5328  0.3298
 3892TIP3    H133091   3.926   2.876   2.463 -3.3311  0.8885 -0.7527
 3892TIP3    H233092   3.943   3.016   2.520  1.8373 -0.1075  0.4485
 3893TIP3   OH233093   0.969   6.444   1.249  0.3588 -0.0467 -0.0996
 3893TIP3    H133094   1.033   6.412   1.185 -0.5982 -1.3148 -0.4426
 3893TIP3    H233095   0.983   6.391   1.327  0.2169  0.1814  0.0838
 3894TIP3   OH233096   3.401   3.562  13.517  0.0848  0.2128  0.2791
 3894TIP3    H133097   3.358   3.581  13.433  1.9292  0.1443 -0.7098
 3894TIP3    H233098   3.330   3.566  13.582 -1.1104  1.7442 -1.0809
 3895TIP3   OH233099   4.694   2.799  11.656  0.6738 -0.3218 -0.1740
 3895TIP3    H133100   4.746   2.817  11.578 -0.3277 -2.1181 -1.2889
 3895TIP3    H233101   4.716   2.870  11.717  2.3605  0.4312 -1.6295
 3896TIP3   OH233102   6.179   1.445   6.808 -0.1893  0.5385  0.3453
 3896TIP3    H133103   6.141   1.525   6.845  0.2788  1.1207 -0.4125
 3896TIP3    H233104   6.263   1.474   6.771 -0.3919 -0.1458 -0.6629
 3897TIP3   OH233105   3.888   3.130  13.021  0.2368 -0.2595 -0.6315
 3897TIP3    H133106   3.947   3.063  12.987  0.3233 -0.5071 -0.0012
 3897TIP3    H233107   3.801   3.091  13.015  0.3749 -0.7646  0.5291
 3898TIP3   OH233108   4.485   3.060   5.282  0.0323 -0.6976  0.1870
 3898TIP3    H133109   4.396   3.058   5.317  1.3241  0.4017  3.7399
 3898TIP3    H233110   4.534   2.999   5.337  1.8763  0.0493 -0.5648
 3899TIP3   OH233111   3.260   5.896  10.628  0.1396 -0.0831  0.6629
 3899TIP3    H133112   3.197   5.900  10.700 -0.3271  3.4714  0.1472
 3899TIP3    H233113   3.217   5.941  10.555  1.2828 -2.1308 -1.3294
 3900TIP3   OH233114   3.997   5.888  15.532 -0.1089 -0.1210 -0.0449
 3900TIP3    H133115   3.909   5.873  15.565 -0.1008 -2.1054 -0.8313
 3900TIP3    H233116   4.013   5.981  15.545 -0.9026 -0.4322  3.5483
 3901TIP3   OH233117   3.401   5.239   5.755 -0.7256  0.3002  0.5144
 3901TIP3    H133118   3.392   5.282   5.841  1.1906 -1.1038  1.4484
 3901TIP3    H233119   3.427   5.310   5.696  0.2478  0.8713  1.5937
 3902TIP3   OH233120   6.519   6.467   2.598  0.4146 -0.3129  0.0977
 3902TIP3    H133121   6.502   6.520   2.676  1.6852  0.0262  0.1442
 3902TIP3    H233122   6.535   6.379   2.632 -3.1972 -1.1232 -0.0712
 3903TIP3   OH233123   1.141   6.407   3.746  0.4523  0.2675  0.2041
 3903TIP3    H133124   1.212   6.343   3.752  0.3288  0.2222  1.2101
 3903TIP3    H233125   1.148   6.459   3.827 -0.3207  0.6184  0.0533
 3904TIP3   OH233126   1.013   6.543  14.383 -0.4189 -0.3123  0.4354
 3904TIP3    H133127   0.993   6.615  14.442  1.6630 -0.3853  1.2891
 3904TIP3    H233128   1.101   6.562  14.350 -1.3694 -0.5046 -2.3236
 3905TIP3   OH233129   3.294   3.699   5.342  0.6778  0.2057  0.0771
 3905TIP3    H133130   3.363   3.765   5.341 -1.7865  2.8648  0.6707
 3905TIP3    H233131   3.268   3.691   5.433  0.1988 -0.7911 -0.1321
 3906TIP3   OH233132   4.578   0.619  12.824  0.2637  0.0487 -0.0824
 3906TIP3    H133133   4.523   0.540  12.824  0.3021  0.0219  0.1083
 3906TIP3    H233134   4.558   0.663  12.906  1.5081 -0.6502  0.6099
 3907TIP3   OH233135   2.157   3.201  16.937 -0.3224 -0.1379  0.4536
 3907TIP3    H133136   2.090   3.147  16.896 -0.1494  0.2554 -0.3721
 3907TIP3    H233137   2.114   3.284  16.955 -0.2431 -0.1152  0.5395
 3908TIP3   OH233138   0.421   6.464   5.766  0.2411 -0.0116  0.3349
 3908TIP3    H133139   0.508   6.503   5.766  0.2624 -0.0527  1.1398
 3908TIP3    H233140   0.363   6.534   5.797  0.2043 -0.4519  1.2760
 3909TIP3   OH233141   6.785   1.278   1.988  0.2405 -0.0565 -0.5568
 3909TIP3    H133142   6.794   1.209   2.054  1.4429 -0.2103 -0.8657
 3909TIP3    H233143   6.701   1.318   2.007 -0.5094 -1.6520 -0.4134
 3910TIP3   OH233144   0.208   2.931   0.330 -0.0797  0.3000 -0.3555
 3910TIP3    H133145   0.131   2.887   0.294 -0.3468 -0.4500  1.1123
 3910TIP3    H233146   0.245   2.868   0.392 -0.8741  2.3900  2.3085
 3911TIP3   OH233147   3.808   2.017  11.238  0.0122  0.1983  0.6785
 3911TIP3    H133148   3.853   1.933  11.229  0.9367  0.7726 -0.0849
 3911TIP3    H233149   3.749   2.020  11.162 -0.2879  0.0795  0.9058
 3912TIP3   OH233150   5.623   5.024  12.100 -0.2952 -0.1406  0.4361
 3912TIP3    H133151   5.537   4.982  12.100 -0.0469 -0.6628  1.0437
 3912TIP3    H233152   5.654   5.013  12.190 -0.1475  1.1950  0.5560
 3913TIP3   OH233153   2.514   3.569   0.483  0.6021  0.6681 -0.4600
 3913TIP3    H133154   2.419   3.578   0.481  0.7476  2.5057  0.2609
 3913TIP3    H233155   2.545   3.646   0.530  2.4291 -0.1247 -0.3090
 3914TIP3   OH233156   6.651   4.537  13.769  0.1093 -0.7492 -0.8301
 3914TIP3    H133157   6.564   4.520  13.804 -1.0111  0.0091 -3.1126
 3914TIP3    H233158   6.683   4.613  13.818 -0.8954 -0.4621 -0.6083
 3915TIP3   OH233159   5.351   6.604  16.771 -0.3821  0.0795  0.0037
 3915TIP3    H133160   5.382   6.645  16.852 -0.4035  1.0354 -0.4689
 3915TIP3    H233161   5.386   6.514  16.775 -0.8845 -0.0672  1.3436
 3916TIP3   OH233162   2.801   4.046   1.674 -0.4835 -0.0847  0.4394
 3916TIP3    H133163   2.874   4.056   1.613 -0.4650 -0.2408  0.4351
 3916TIP3    H233164   2.729   4.094   1.634 -0.9194 -1.4616 -0.4556
 3917TIP3   OH233165   3.650   2.508  12.589  0.1838  0.1962  0.3501
 3917TIP3    H133166   3.656   2.564  12.512 -0.8675  1.7320  1.3383
 3917TIP3    H233167   3.678   2.422  12.559  1.5506  1.1816 -1.2820
 3918TIP3   OH233168   2.049   5.254  16.352 -0.0087 -0.1262  0.6695
 3918TIP3    H133169   2.087   5.331  16.310  0.2184 -0.8624 -0.4782
 3918TIP3    H233170   1.961   5.247  16.314  0.7788 -1.7275 -0.9051
 3919TIP3   OH233171   1.723   1.396  16.385 -0.2280  0.3056 -0.0361
 3919TIP3    H133172   1.754   1.317  16.429  1.2885  1.2623  0.6567
 3919TIP3    H233173   1.724   1.374  16.292 -0.5240 -0.7147  0.1913
 3920TIP3   OH233174   1.161   4.804   0.133 -0.1102  0.2488 -0.2199
 3920TIP3    H133175   1.238   4.751   0.153 -0.4865 -0.6713 -1.1045
 3920TIP3    H233176   1.090   4.761   0.181 -0.2696  0.4163 -0.3048
 3921TIP3   OH233177   0.730   2.093  10.830 -0.5379 -0.0568 -0.3867
 3921TIP3    H133178   0.766   2.004  10.826  2.7061  1.2149 -1.0833
 3921TIP3    H233179   0.722   2.119  10.738  1.1388  1.3460 -0.1513
 3922TIP3   OH233180   6.632   3.360  15.397  0.1601  0.3284  0.0596
 3922TIP3    H133181   6.724   3.345  15.417 -0.4883 -0.2217  2.7652
 3922TIP3    H233182   6.630   3.450  15.363  1.5655  0.6855  0.8684
 3923TIP3   OH233183   0.781   0.109   0.060 -0.3030 -0.1852  0.0638
 3923TIP3    H133184   0.739   0.054  -0.007 -2.4852  1.3604  0.1023
 3923TIP3    H233185   0.871   0.119   0.030 -0.9529 -0.4542 -2.0655
 3924TIP3   OH233186   6.050   5.257  15.054 -0.3814 -0.2756 -0.1139
 3924TIP3    H133187   5.961   5.282  15.076  0.0465  0.4884  0.7607
 3924TIP3    H233188   6.101   5.338  15.063  0.8104 -1.2024  1.6737
 3925TIP3   OH233189   6.137   0.074   1.268  0.1273 -0.7359  0.8557
 3925TIP3    H133190   6.181  -0.010   1.275  5.2826  1.5639 -1.2773
 3925TIP3    H233191   6.076   0.064   1.194  1.1818 -2.4130  0.1896
 3926TIP3   OH233192   5.580   3.520   1.156  0.2975 -0.9073 -0.4765
 3926TIP3    H133193   5.515   3.458   1.188 -0.2567  1.4111  3.3279
 3926TIP3    H233194   5.529   3.588   1.111  0.1814  0.0989  1.1248
 3927TIP3   OH233195   4.757   4.776  12.292  0.0821 -0.2982 -0.7553
 3927TIP3    H133196   4.744   4.756  12.385  0.0528 -0.3173 -0.7626
 3927TIP3    H233197   4.845   4.743  12.273  0.3531  0.3250 -0.5678
 3928TIP3   OH233198   1.952   0.436  12.280 -0.2086  0.2106  0.2750
 3928TIP3    H133199   2.015   0.498  12.243  1.3389  0.4345  3.1386
 3928TIP3    H233200   1.876   0.489  12.303  0.4635  0.8021  1.1774
 3929TIP3   OH233201   0.370   3.915   6.148  0.2166  0.1243  0.2766
 3929TIP3    H133202   0.286   3.872   6.161  0.1031  0.5417  0.9285
 3929TIP3    H233203   0.350   3.997   6.103  0.4367 -0.5044 -0.9914
 3930TIP3   OH233204   5.431   5.336   0.963 -0.1535  0.1507  0.1126
 3930TIP3    H133205   5.488   5.316   0.889  0.3799 -1.8354  1.0211
 3930TIP3    H233206   5.361   5.271   0.957 -0.1107 -0.0136  1.3195
 3931TIP3   OH233207   4.473   6.473  11.022 -0.0771  0.7870  0.5349
 3931TIP3    H133208   4.557   6.433  11.000  0.3010  1.4977  0.6648
 3931TIP3    H233209   4.438   6.504  10.938 -0.0996  0.7070  0.5150
 3932TIP3   OH233210   6.076   6.520  17.204 -0.4376  0.2028  0.5099
 3932TIP3    H133211   6.152   6.476  17.167  0.1046  2.0973 -0.7040
 3932TIP3    H233212   6.013   6.450  17.220  2.1717 -1.6973  3.2089
 3933TIP3   OH233213   3.521   0.823   5.959 -0.1675  0.5470 -0.4890
 3933TIP3    H133214   3.560   0.906   5.985  0.0718  0.4548 -0.5566
 3933TIP3    H233215   3.521   0.770   6.038  1.6544 -0.1651 -0.9477
 3934TIP3   OH233216   5.824   5.355  12.031  0.2453 -0.0896  0.2000
 3934TIP3    H133217   5.878   5.278  12.016  0.1951 -0.1861  0.5076
 3934TIP3    H233218   5.884   5.419  12.069  0.7075  0.6524 -1.7068
 3935TIP3   OH233219   4.744   4.577  13.972  0.1537  0.6197 -0.7594
 3935TIP3    H133220   4.715   4.620  14.053 -0.1305 -0.9081 -0.0446
 3935TIP3    H233221   4.837   4.562  13.986 -0.1370 -0.7338 -0.2069
 3936TIP3   OH233222   4.997   3.026  13.072  0.8441 -0.5775 -0.0882
 3936TIP3    H133223   4.930   2.986  13.018 -0.1729  0.5123  0.3276
 3936TIP3    H233224   5.078   2.984  13.046  0.3393 -0.2512 -2.2801
 3937TIP3   OH233225   5.759   0.027  12.556 -0.0595  0.1846 -0.1884
 3937TIP3    H133226   5.669  -0.002  12.560  0.4591 -1.3829  0.2559
 3937TIP3    H233227   5.810  -0.043  12.596  1.2790  1.4018  0.3177
 3938TIP3   OH233228   4.118   3.053  11.549 -0.2412  0.3059 -0.5605
 3938TIP3    H133229   4.029   3.084  11.531  0.0206  0.4080 -1.7875
 3938TIP3    H233230   4.164   3.130  11.583 -0.3041  0.5910 -1.1034
 3939TIP3   OH233231   6.241   1.304  17.118 -0.6142  0.5847 -0.3913
 3939TIP3    H133232   6.288   1.339  17.193 -0.4214  0.9647 -0.6913
 3939TIP3    H233233   6.230   1.211  17.138  0.7175  0.3815 -0.5573
 3940TIP3   OH233234   4.823   0.525  11.769  0.2274  0.3413 -0.3396
 3940TIP3    H133235   4.766   0.448  11.775  1.4350 -0.5170  0.3454
 3940TIP3    H233236   4.912   0.491  11.782  0.7283  1.9456  0.6599
 3941TIP3   OH233237   1.053   5.662   3.365 -0.0427  0.2050  0.3575
 3941TIP3    H133238   1.025   5.595   3.427  0.7472  1.2410  1.8527
 3941TIP3    H233239   1.048   5.744   3.414  0.4101  1.0554 -0.9972
 3942TIP3   OH233240   5.745   0.080   1.722  0.5401 -0.1960 -0.2478
 3942TIP3    H133241   5.700   0.140   1.662  2.3530  0.4070 -1.0647
 3942TIP3    H233242   5.829   0.123   1.739  1.1993 -1.7391  0.4727
 3943TIP3   OH233243   5.322   0.114   2.285  0.2979 -0.6243  0.0905
 3943TIP3    H133244   5.283   0.056   2.350 -0.1047  0.7466  1.1153
 3943TIP3    H233245   5.248   0.140   2.229 -0.0647  0.9190  1.2230
 3944TIP3   OH233246   6.606   1.886   6.512  0.1028 -0.0734 -0.0401
 3944TIP3    H133247   6.679   1.825   6.513 -0.1011 -0.3515 -1.5714
 3944TIP3    H233248   6.638   1.962   6.561  1.3617 -0.2464 -0.5828
 3945TIP3   OH233249   1.766   0.052  11.692 -0.0308  0.3966 -0.3114
 3945TIP3    H133250   1.720   0.128  11.656  1.1433  0.9418 -0.6649
 3945TIP3    H233251   1.809   0.085  11.771  0.4983  0.1017 -0.4746
 3946TIP3   OH233252   4.588   5.607   5.517  0.0237 -0.8117  0.4698
 3946TIP3    H133253   4.659   5.547   5.493  0.4678 -0.1652  0.1505
 3946TIP3    H233254   4.567   5.585   5.608  2.0614  0.3894  1.2627
 3947TIP3   OH233255   1.998   1.624   0.224 -0.0067  0.0853 -0.2507
 3947TIP3    H133256   1.923   1.571   0.196 -1.3323  1.4928  0.6196
 3947TIP3    H233257   2.002   1.612   0.319  0.3858  0.6646 -0.1915
 3948TIP3   OH233258   5.369   3.735  16.018 -0.2053  0.1688  0.2164
 3948TIP3    H133259   5.279   3.737  16.050 -0.8199 -0.9958 -1.3727
 3948TIP3    H233260   5.362   3.705  15.927  1.9770 -2.2353  0.7739
 3949TIP3   OH233261   2.595   1.856  15.946 -0.2413  0.6954 -0.4738
 3949TIP3    H133262   2.518   1.912  15.945 -1.9094 -1.5336 -0.1541
 3949TIP3    H233263   2.658   1.903  16.000 -1.4148  2.4614 -0.5847
 3950TIP3   OH233264   5.836   1.610   2.425  0.0910 -0.5844  0.3111
 3950TIP3    H133265   5.805   1.699   2.409  0.7883 -0.3572  0.2332
 3950TIP3    H233266   5.778   1.577   2.494 -0.2985 -0.1459  0.1988
 3951TIP3   OH233267   1.081   1.824  16.948  0.9001 -0.6711  0.2814
 3951TIP3    H133268   1.161   1.870  16.975  1.1159  0.0378 -1.5037
 3951TIP3    H233269   1.092   1.735  16.983  1.1523  0.2091  2.4838
 3952TIP3   OH233270   4.401   4.954   3.118  0.3470 -0.4777 -0.5481
 3952TIP3    H133271   4.404   4.958   3.214 -1.3057 -0.9324 -0.4565
 3952TIP3    H233272   4.345   4.879   3.099 -0.4827  0.4563 -1.8594
 3953TIP3   OH233273   5.058   1.132  16.687  0.0935  0.1392 -0.6198
 3953TIP3    H133274   4.978   1.144  16.738  1.2054 -1.9306  1.6885
 3953TIP3    H233275   5.102   1.217  16.690 -1.3153  0.8792 -0.7297
 3954TIP3   OH233276   0.142   0.564  11.141  0.2592  0.6286 -0.0049
 3954TIP3    H133277   0.166   0.638  11.085  2.5794 -0.3600 -0.3698
 3954TIP3    H233278   0.212   0.501  11.128 -2.2879 -2.1581 -0.5721
 3955TIP3   OH233279   5.357   4.956  15.857 -0.2842  0.3063 -0.3824
 3955TIP3    H133280   5.324   4.920  15.940  0.3874  2.1699  0.7063
 3955TIP3    H233281   5.324   5.046  15.855  0.2034  0.4643 -1.8644
 3956TIP3   OH233282   5.702   0.114  12.057  0.2387  0.0971  0.7809
 3956TIP3    H133283   5.667   0.100  12.145 -1.6205  0.4464  0.1181
 3956TIP3    H233284   5.719   0.208  12.052 -1.4500  0.3771  0.1312
 3957TIP3   OH233285   1.781   2.435  10.255  0.4129  0.4191 -0.2756
 3957TIP3    H133286   1.821   2.383  10.325  0.4601  1.3786  0.4207
 3957TIP3    H233287   1.845   2.432  10.184  0.6435 -0.0518 -0.0494
 3958TIP3   OH233288   6.061   2.069   2.679  0.1309 -0.1348  0.1917
 3958TIP3    H133289   5.975   2.039   2.710 -1.9709  2.1608 -3.1164
 3958TIP3    H233290   6.049   2.086   2.586  4.0363  0.9083 -0.2239
 3959TIP3   OH233291   0.231   2.662  14.739 -0.2700  0.7096 -0.2139
 3959TIP3    H133292   0.235   2.728  14.808  1.1714 -0.1715  0.5768
 3959TIP3    H233293   0.142   2.626  14.745 -0.8493  2.0961 -0.2243
 3960TIP3   OH233294   4.118   0.396  17.208  0.2718 -0.1421 -0.1476
 3960TIP3    H133295   4.147   0.305  17.213 -0.4651 -0.4442 -1.1728
 3960TIP3    H233296   4.158   0.429  17.128 -2.3716 -0.6405 -1.7246
 3961TIP3   OH233297   1.508   3.291  15.769 -0.0565 -0.1049  0.6500
 3961TIP3    H133298   1.515   3.285  15.864  0.6909  0.9860  0.6731
 3961TIP3    H233299   1.415   3.305  15.753 -0.1327  0.0767  1.2371
 3962TIP3   OH233300   4.763   3.288  14.376 -0.2242 -0.6424 -0.4974
 3962TIP3    H133301   4.678   3.243  14.384 -0.8463  0.3614 -1.3196
 3962TIP3    H233302   4.781   3.321  14.464 -0.9904 -0.3494 -0.4407
 3963TIP3   OH233303   0.623   0.487  14.571  0.0666 -0.4487  0.2589
 3963TIP3    H133304   0.629   0.582  14.570 -0.8882 -0.3729  0.9118
 3963TIP3    H233305   0.673   0.461  14.649  2.7760 -0.6896 -1.5097
 3964TIP3   OH233306   3.432   4.979  16.980  0.5321 -0.1144 -0.3841
 3964TIP3    H133307   3.505   5.025  17.022  0.3874  1.9471 -2.3296
 3964TIP3    H233308   3.373   4.959  17.052  1.5762  0.9218  0.8006
 3965TIP3   OH233309   4.420   5.239  16.222 -0.5954  0.4744  0.2788
 3965TIP3    H133310   4.497   5.207  16.269 -0.3183 -0.8672 -1.0585
 3965TIP3    H233311   4.454   5.265  16.136 -1.3524  1.5071  0.2769
 3966TIP3   OH233312   6.287   3.124   1.244  0.6920  0.2375  0.3415
 3966TIP3    H133313   6.268   3.190   1.178  1.9253  1.2013  0.9364
 3966TIP3    H233314   6.252   3.042   1.208  0.7109  0.8869 -1.1547
 3967TIP3   OH233315   4.445   1.929  12.216  0.2011  0.3963  0.9360
 3967TIP3    H133316   4.357   1.958  12.195 -0.5329 -1.5992  1.1721
 3967TIP3    H233317   4.459   1.957  12.307 -0.8808 -0.8591  1.4986
 3968TIP3   OH233318   6.639   3.741   5.052 -0.0064 -0.7135 -0.4297
 3968TIP3    H133319   6.722   3.758   5.006  0.8081  2.1468  1.8899
 3968TIP3    H233320   6.630   3.646   5.052  3.7655 -1.1636 -0.0201
 3969TIP3   OH233321   2.082   6.478  13.392 -0.2504 -0.4401  0.0667
 3969TIP3    H133322   2.087   6.551  13.454  2.0538  1.2689 -2.0643
 3969TIP3    H233323   1.992   6.481  13.359 -0.2593  1.2179  0.2295
 3970TIP3   OH233324   1.474   0.828   5.506  0.0121 -0.1500  0.2960
 3970TIP3    H133325   1.487   0.787   5.592 -1.7942 -1.5613 -0.0838
 3970TIP3    H233326   1.379   0.830   5.494  0.2091  0.9081 -1.2731
 3971TIP3   OH233327   1.131   3.125   4.586  0.0096  0.0689 -0.3791
 3971TIP3    H133328   1.220   3.091   4.597 -1.1703 -2.9537  0.1421
 3971TIP3    H233329   1.102   3.090   4.501 -1.3074 -0.4152  0.2632
 3972TIP3   OH233330   0.097   0.941   0.698  0.3531 -0.0685  0.2767
 3972TIP3    H133331   0.078   1.026   0.739 -0.9427 -0.3870  0.3552
 3972TIP3    H233332   0.166   0.904   0.753 -1.2729 -0.4297  2.1244
 3973TIP3   OH233333   4.143   6.781   4.459 -0.2200  0.1102 -0.1506
 3973TIP3    H133334   4.231   6.807   4.485 -0.5386  0.7292  0.3371
 3973TIP3    H233335   4.110   6.855   4.408 -0.6436  0.1034  0.1072
 3974TIP3   OH233336   5.136   0.807  12.081 -0.1396 -0.1526  0.0307
 3974TIP3    H133337   5.190   0.762  12.016 -0.0090  0.1375 -0.0657
 3974TIP3    H233338   5.046   0.792  12.052 -0.0923 -0.2592 -0.0602
 3975TIP3   OH233339   0.456   6.670   0.772  0.0813  0.0943 -0.7873
 3975TIP3    H133340   0.418   6.754   0.749  0.7043  0.6971  0.3168
 3975TIP3    H233341   0.530   6.660   0.713  0.7705  0.9258 -0.0823
 3976TIP3   OH233342   5.345   1.684  12.944  0.3202  0.0797 -0.0747
 3976TIP3    H133343   5.258   1.701  12.980  0.4861 -0.9523  0.8620
 3976TIP3    H233344   5.390   1.635  13.013  0.5550 -2.1973 -1.7738
 3977TIP3   OH233345   3.564   6.511   0.997 -0.0661  0.1261 -0.0134
 3977TIP3    H133346   3.516   6.511   0.914 -2.4658  1.8222  1.3237
 3977TIP3    H233347   3.496   6.503   1.064  1.7120  0.3615  1.8659
 3978TIP3   OH233348   1.416   0.189   5.737 -0.2243 -0.4450  0.6089
 3978TIP3    H133349   1.486   0.201   5.673 -0.0137 -0.4412  0.8399
 3978TIP3    H233350   1.443   0.240   5.813 -0.2569 -0.8104  0.8687
 3979TIP3   OH233351   1.149   6.135  11.716 -0.0802  0.4113 -0.2802
 3979TIP3    H133352   1.069   6.159  11.762 -0.8401  0.3501 -1.5579
 3979TIP3    H233353   1.187   6.219  11.688  0.8792  0.5093  1.2558
 3980TIP3   OH233354   5.281   4.636   3.145  0.0460 -0.2883  0.1554
 3980TIP3    H133355   5.355   4.580   3.168  1.0249  1.1411  0.5531
 3980TIP3    H233356   5.313   4.690   3.073 -1.0110 -0.4672 -0.4712
 3981TIP3   OH233357   0.940   2.379   1.127  0.3305  0.1697  0.3840
 3981TIP3    H133358   0.845   2.387   1.129  0.2363 -0.5371 -0.7659
 3981TIP3    H233359   0.963   2.345   1.214 -0.7162 -1.9968 -0.1352
 3982TIP3   OH233360   2.735   0.315  16.069 -0.0482  0.1465  0.0174
 3982TIP3    H133361   2.789   0.394  16.071  0.3133 -0.1278  2.2331
 3982TIP3    H233362   2.672   0.331  15.999 -0.5094  2.7509  0.9794
 3983TIP3   OH233363   5.777   2.910  14.169 -0.1149 -0.3335  0.3298
 3983TIP3    H133364   5.775   3.001  14.140  2.0050 -0.5243 -0.5552
 3983TIP3    H233365   5.769   2.859  14.089  0.7872 -0.9087  0.6004
 3984TIP3   OH233366   6.050   2.173   3.289  0.3143 -0.5969 -0.2093
 3984TIP3    H133367   6.002   2.180   3.207 -0.0258 -0.9011 -0.0402
 3984TIP3    H233368   6.040   2.081   3.315 -0.9374 -0.1503  0.9810
 3985TIP3   OH233369   2.970   3.618  11.488 -0.0626 -0.2690  0.6711
 3985TIP3    H133370   3.027   3.543  11.473  0.9796  0.1597  2.2760
 3985TIP3    H233371   2.882   3.586  11.469  0.6414 -1.1286 -1.2165
 3986TIP3   OH233372   1.068   2.653   0.386  0.0455  0.0147  0.9303
 3986TIP3    H133373   0.981   2.625   0.415 -0.6148  1.6441  0.6066
 3986TIP3    H233374   1.083   2.603   0.305 -0.9693  0.3464  0.5185
 3987TIP3   OH233375   4.792   6.710   0.660  0.2472  0.2585 -0.2657
 3987TIP3    H133376   4.755   6.798   0.661 -1.9251 -0.6102  1.9544
 3987TIP3    H233377   4.863   6.712   0.724  2.0031  1.0683 -2.1812
 3988TIP3   OH233378   5.085   2.500   3.824 -0.4031  0.2059  0.0811
 3988TIP3    H133379   5.059   2.505   3.916 -0.0917  0.9200  0.1339
 3988TIP3    H233380   5.151   2.432   3.821  1.4263  1.8897  0.8369
 3989TIP3   OH233381   0.467   5.449   5.225 -0.0987 -0.0180 -0.1117
 3989TIP3    H133382   0.377   5.467   5.197 -0.5443 -2.0523 -0.0610
 3989TIP3    H233383   0.462   5.440   5.320  0.1678 -0.0388 -0.0975
 3990TIP3   OH233384   4.357   5.551   4.065  0.0746 -0.3759 -0.4688
 3990TIP3    H133385   4.312   5.605   4.131 -1.6018 -1.4456 -0.6986
 3990TIP3    H233386   4.390   5.613   4.001 -0.8771  0.4752 -0.1483
 3991TIP3   OH233387   1.900   2.654   2.597 -0.0048  0.2208 -0.0612
 3991TIP3    H133388   1.947   2.578   2.630  0.8142  0.4193 -0.7721
 3991TIP3    H233389   1.912   2.652   2.503 -1.8659 -0.0066 -0.3238
 3992TIP3   OH233390   1.681   5.769  12.125 -0.2136 -0.2222 -0.1754
 3992TIP3    H133391   1.597   5.767  12.079 -0.2096  0.3206 -0.2083
 3992TIP3    H233392   1.659   5.791  12.216 -0.0725  0.3869 -0.2817
 3993TIP3   OH233393   4.378   1.617   0.294 -0.2851  0.1078  0.0800
 3993TIP3    H133394   4.457   1.608   0.241 -0.5279  1.1626 -0.4819
 3993TIP3    H233395   4.359   1.528   0.324  1.3942 -0.0820  0.6353
 3994TIP3   OH233396   5.626   3.950  12.241  0.0010 -0.6537  0.2884
 3994TIP3    H133397   5.619   3.885  12.170 -0.7838  1.5272 -1.6984
 3994TIP3    H233398   5.719   3.972  12.245  0.0199 -0.6369 -0.2131
 3995TIP3   OH233399   5.667   1.760  15.699  0.5002  0.4973 -0.6214
 3995TIP3    H133400   5.645   1.854  15.702  2.0644  0.9480 -2.7840
 3995TIP3    H233401   5.720   1.746  15.778  1.6025  1.7877 -1.1160
 3996TIP3   OH233402   1.676   2.775   0.805 -0.2876 -0.2889  0.1358
 3996TIP3    H133403   1.584   2.754   0.789 -0.3708 -0.0304  0.2813
 3996TIP3    H233404   1.698   2.725   0.884 -0.6123  0.5273  0.7451
 3997TIP3   OH233405   5.542   5.501  13.537 -0.4651 -0.0899 -0.4290
 3997TIP3    H133406   5.552   5.570  13.603  0.8352 -0.9891  0.3447
 3997TIP3    H233407   5.489   5.540  13.468  0.9386  1.9525 -0.3777
 3998TIP3   OH233408   3.677   4.865   1.389 -0.3738  0.0729  0.1715
 3998TIP3    H133409   3.665   4.946   1.438 -0.0994 -0.1920  0.6808
 3998TIP3    H233410   3.770   4.844   1.401 -0.6600 -0.8366  0.8506
 3999TIP3   OH233411   4.407   2.249  15.512 -0.3517 -1.2632  0.4727
 3999TIP3    H133412   4.419   2.285  15.425  0.1778  0.4063  1.2159
 3999TIP3    H233413   4.491   2.210  15.535  0.7389  1.7645  1.7772
 4000TIP3   OH233414   1.901   5.407   1.573 -0.6618  0.8040 -0.8010
 4000TIP3    H133415   1.990   5.416   1.539 -0.0211 -0.9794  0.3509
 4000TIP3    H233416   1.845   5.435   1.500  0.8183  2.0584 -1.4943
 4001TIP3   OH233417   1.246   2.826  11.450 -0.0259 -0.1065 -0.0140
 4001TIP3    H133418   1.234   2.921  11.440  0.2674 -0.0229  0.3985
 4001TIP3    H233419   1.160   2.789  11.432  0.5817 -0.0276 -3.4141
 4002TIP3   OH233420   0.825   0.418  17.060  0.2775 -0.2195 -0.4290
 4002TIP3    H133421   0.802   0.328  17.034  0.9854 -0.9979  1.4884
 4002TIP3    H233422   0.911   0.433  17.020 -1.3412  0.9233 -3.6256
 4003TIP3   OH233423   0.915   0.019   4.370 -0.1351  0.4412 -0.2832
 4003TIP3    H133424   0.992   0.057   4.327 -0.3393 -0.3318 -1.3632
 4003TIP3    H233425   0.950  -0.049   4.427  0.1045  1.1776  0.4570
 4004TIP3   OH233426   3.795   4.189  15.721  0.0878  0.0046 -0.6902
 4004TIP3    H133427   3.867   4.238  15.762  1.6026 -2.7187 -0.0212
 4004TIP3    H233428   3.731   4.257  15.699  2.1979  2.3371  0.0148
 4005TIP3   OH233429   6.313   5.647   1.273  0.2644  0.0174 -0.4516
 4005TIP3    H133430   6.367   5.723   1.296 -1.5732  0.9234  0.9717
 4005TIP3    H233431   6.376   5.583   1.238  2.1870  1.2537  0.6456
 4006TIP3   OH233432   4.859   0.170  14.540 -0.3917  0.0100  0.2275
 4006TIP3    H133433   4.765   0.169  14.554 -0.5783  1.2553 -0.7586
 4006TIP3    H233434   4.897   0.172  14.627 -1.2737 -0.8910  0.6323
 4007TIP3   OH233435   2.067   3.262  14.373 -0.2135 -0.6864 -0.0001
 4007TIP3    H133436   2.083   3.217  14.455  2.0942  0.3975  0.1769
 4007TIP3    H233437   2.134   3.330  14.369 -0.5344 -0.4626 -2.5806
 4008TIP3   OH233438   2.453   4.111   0.874  0.0846  0.7231 -0.1314
 4008TIP3    H133439   2.479   4.189   0.922  0.1938  0.8657 -0.4232
 4008TIP3    H233440   2.358   4.105   0.886 -0.1444  1.7668 -1.4142
 4009TIP3   OH233441   2.912   2.084  14.079  0.2857  0.1556  0.3011
 4009TIP3    H133442   2.927   2.026  14.004  0.7790  1.5782 -0.7386
 4009TIP3    H233443   2.950   2.168  14.051 -1.7152  1.3856  1.1872
 4010TIP3   OH233444   5.082   4.823   5.361 -0.3900  0.4225  0.6930
 4010TIP3    H133445   5.105   4.895   5.420  0.9855  1.1589 -0.7317
 4010TIP3    H233446   5.008   4.857   5.310 -0.1975  0.5634  0.5087
 4011TIP3   OH233447   4.279   4.608  12.646  0.5092  0.1994  0.3372
 4011TIP3    H133448   4.335   4.533  12.629  0.0432 -0.2845  0.9431
 4011TIP3    H233449   4.238   4.626  12.561  4.0339  2.6281 -0.9834
 4012TIP3   OH233450   4.370   4.998  15.922  1.1468 -0.2593  0.3055
 4012TIP3    H133451   4.287   5.012  15.968  0.6680  1.0031 -0.9437
 4012TIP3    H233452   4.412   4.927  15.971 -0.6143 -0.8372  1.0154
 4013TIP3   OH233453   2.538   5.976  11.090  0.5817 -0.2701 -0.4296
 4013TIP3    H133454   2.606   5.923  11.048 -0.7244 -1.4062 -1.1811
 4013TIP3    H233455   2.555   6.065  11.059  1.3304 -0.6505 -1.1452
 4014TIP3   OH233456   6.578   3.966  11.281  0.2238  0.7648  0.3802
 4014TIP3    H133457   6.633   4.010  11.217  1.9081 -1.9852 -0.1741
 4014TIP3    H233458   6.489   3.975  11.246  0.9525  0.6020 -1.5923
 4015TIP3   OH233459   2.173   5.642  15.790  0.1131 -1.1911  0.0165
 4015TIP3    H133460   2.131   5.571  15.838 -1.9492 -0.2443 -0.3128
 4015TIP3    H233461   2.150   5.721  15.839  2.4247 -0.7326  0.4085
 4016TIP3   OH233462   4.075   0.006   2.803 -0.5231 -0.2721 -0.0902
 4016TIP3    H133463   4.061  -0.085   2.831  3.3191 -1.1470 -0.7408
 4016TIP3    H233464   4.076   0.002   2.707  0.8703  0.2298 -0.1076
 4017TIP3   OH233465   2.876   1.290   5.143 -0.1179  0.2621 -0.0292
 4017TIP3    H133466   2.787   1.290   5.179  0.0007 -0.5152  0.2547
 4017TIP3    H233467   2.914   1.207   5.171  1.2571  1.2869  1.2028
 4018TIP3   OH233468   2.064   5.690  16.198  0.0687 -0.1977  0.4667
 4018TIP3    H133469   2.119   5.630  16.249  0.4754  1.2617  1.7551
 4018TIP3    H233470   1.983   5.697  16.249  0.0123  0.3355  0.2996
 4019TIP3   OH233471   6.643   2.703   5.766  0.0780  0.2577  0.3533
 4019TIP3    H133472   6.575   2.644   5.797 -0.6510  1.0157  0.2150
 4019TIP3    H233473   6.621   2.720   5.674  0.7262  0.1255  0.1683
 4020TIP3   OH233474   4.849   4.960   4.254  0.3243  0.6229 -0.2053
 4020TIP3    H133475   4.792   5.001   4.319  0.5910  0.3078  0.2293
 4020TIP3    H233476   4.815   4.871   4.246  0.2693  0.6722 -0.5282
 4021TIP3   OH233477   6.763   5.786   4.588  0.1575  0.7231 -0.8415
 4021TIP3    H133478   6.714   5.769   4.668  0.6000 -0.4221 -0.7965
 4021TIP3    H233479   6.698   5.775   4.518  0.3774 -1.0615 -0.8006
 4022TIP3   OH233480   3.686   0.472   3.730  0.5995 -0.3554  0.2137
 4022TIP3    H133481   3.759   0.492   3.788 -0.2351 -1.3414  1.6712
 4022TIP3    H233482   3.685   0.542   3.666  0.3737  1.8718  2.5717
 4023TIP3   OH233483   5.474   4.545   2.223  0.1955 -0.3754  0.2997
 4023TIP3    H133484   5.450   4.477   2.286 -0.7161 -0.7595 -0.4485
 4023TIP3    H233485   5.569   4.556   2.234  0.1951 -1.1042  1.0768
 4024TIP3   OH233486   1.352   2.305   5.066 -0.0441 -0.0411  0.0870
 4024TIP3    H133487   1.259   2.291   5.081 -0.4656  2.2403 -0.2133
 4024TIP3    H233488   1.372   2.386   5.114  1.6513 -0.2320 -0.2660
 4025TIP3   OH233489   1.462   1.552   2.202  0.9570 -0.8485  0.9298
 4025TIP3    H133490   1.477   1.495   2.126  0.4370  0.7370 -0.3931
 4025TIP3    H233491   1.386   1.605   2.177  0.4974 -0.6312  2.7607
 4026TIP3   OH233492   4.436   2.244   3.725  0.5338 -0.1682 -0.1103
 4026TIP3    H133493   4.486   2.270   3.802  1.0832  0.8001 -0.7761
 4026TIP3    H233494   4.503   2.234   3.657 -0.1366  0.8261 -0.9292
 4027TIP3   OH233495   4.120   4.223   3.881  0.1293  0.3233 -0.1726
 4027TIP3    H133496   4.094   4.198   3.793 -1.6062 -2.2810  0.9807
 4027TIP3    H233497   4.213   4.243   3.875  0.6587 -2.4903 -2.0746
 4028TIP3   OH233498   5.785   6.155  16.237  0.0964 -0.1256  0.5287
 4028TIP3    H133499   5.813   6.192  16.321 -2.5720 -0.5216  1.6345
 4028TIP3    H233500   5.705   6.106  16.258  0.8874 -2.5131 -1.7645
 4029TIP3   OH233501   5.451   6.764   4.760  0.3456 -0.2065 -0.5929
 4029TIP3    H133502   5.382   6.780   4.696  1.2934  1.0173 -1.3214
 4029TIP3    H233503   5.407   6.773   4.845 -0.8022 -1.3595 -1.0423
 4030TIP3   OH233504   6.402   2.739   0.725  0.2468  0.0829  0.2272
 4030TIP3    H133505   6.453   2.755   0.805  1.4001 -0.1440 -0.4596
 4030TIP3    H233506   6.324   2.793   0.736 -0.2269 -0.9585  2.1038
 4031TIP3   OH233507   0.116   3.331   4.258 -0.5971 -0.0283 -0.2853
 4031TIP3    H133508   0.194   3.284   4.227  0.7621  1.6616  0.4587
 4031TIP3    H233509   0.126   3.420   4.223 -2.1649  0.2250 -0.1172
 4032TIP3   OH233510   6.361   1.412   0.119 -0.0086 -0.3809 -0.0751
 4032TIP3    H133511   6.344   1.358   0.196 -1.4198 -0.7754 -0.6372
 4032TIP3    H233512   6.360   1.502   0.151 -0.9235 -0.5292  0.3163
 4033TIP3   OH233513   1.368   0.939   6.601 -0.5624  0.4232 -0.0808
 4033TIP3    H133514   1.407   1.009   6.548  1.2116  0.9781  1.8801
 4033TIP3    H233515   1.309   0.986   6.661  0.8768  0.2952  1.4571
 4034TIP3   OH233516   1.837   2.053   1.276 -0.1493  0.2401 -0.9225
 4034TIP3    H133517   1.804   2.099   1.353 -2.4841 -0.8620 -1.2233
 4034TIP3    H233518   1.830   1.960   1.297  0.3119 -0.0514 -1.9970
 4035TIP3   OH233519   4.094   4.424   5.809  0.1603  0.7405 -0.0642
 4035TIP3    H133520   4.144   4.505   5.818  0.3097  0.4633  1.7727
 4035TIP3    H233521   4.160   4.358   5.785  0.4461  0.6760  0.8773
 4036TIP3   OH233522   1.858   5.920  16.555 -1.0348  0.2722 -0.4758
 4036TIP3    H133523   1.782   5.972  16.529 -1.0587  0.1964 -0.5600
 4036TIP3    H233524   1.860   5.848  16.491 -0.8570  0.3090 -0.5111
 4037TIP3   OH233525   4.525   4.802   2.484 -0.6849 -0.2625  0.3286
 4037TIP3    H133526   4.566   4.807   2.398  2.2106  1.0984  1.7228
 4037TIP3    H233527   4.514   4.708   2.499 -0.3115 -0.5555 -1.1209
 4038TIP3   OH233528   3.338   3.293   5.642 -0.4379 -0.3696  0.2535
 4038TIP3    H133529   3.280   3.239   5.589  1.3342 -0.6051 -1.5278
 4038TIP3    H233530   3.359   3.239   5.718 -0.2473 -1.4217 -0.5356
 4039TIP3   OH233531   0.778   2.291  12.548  0.4478 -0.7129  0.0593
 4039TIP3    H133532   0.707   2.321  12.604  0.9182 -1.0223  0.8256
 4039TIP3    H233533   0.767   2.341  12.467 -0.5504 -0.6495  0.2236
 4040TIP3   OH233534   2.461   5.361  12.292  0.3914 -0.0542  0.2936
 4040TIP3    H133535   2.515   5.437  12.315 -1.2398  1.4103 -0.4896
 4040TIP3    H233536   2.427   5.382  12.205  0.8968 -2.2690 -0.4567
 4041TIP3   OH233537   5.818   3.317   1.827 -0.0925  0.0429 -0.0908
 4041TIP3    H133538   5.817   3.257   1.902 -1.4737  0.3058  0.1227
 4041TIP3    H233539   5.805   3.261   1.751  0.5057 -0.1346 -0.0639
 4042TIP3   OH233540   0.555   0.689  11.592  0.2171  0.4449 -0.0284
 4042TIP3    H133541   0.499   0.760  11.561  0.9133  1.8954  1.9219
 4042TIP3    H233542   0.644   0.724  11.586  0.8940 -1.4404 -2.0643
 4043TIP3   OH233543   3.763   3.098  14.664  0.0385 -0.4630  0.0622
 4043TIP3    H133544   3.746   3.192  14.652 -1.7247 -1.0070 -2.0794
 4043TIP3    H233545   3.730   3.058  14.584  2.4268 -2.7482  0.1734
 4044TIP3   OH233546   3.273   4.091   0.594 -0.2787 -0.1968  0.2844
 4044TIP3    H133547   3.274   4.133   0.680  0.7074 -0.3686  0.3653
 4044TIP3    H233548   3.362   4.104   0.560 -1.0806  1.1382 -1.3377
 4045TIP3   OH233549   2.070   1.885   0.877  0.0648 -0.3436 -0.1319
 4045TIP3    H133550   2.008   1.879   0.804 -0.3471  0.1284  0.1786
 4045TIP3    H233551   2.043   1.962   0.926  0.4246 -0.5794  0.4494
 4046TIP3   OH233552   5.832   5.611  11.148 -0.2993  0.0167  0.2156
 4046TIP3    H133553   5.921   5.579  11.163 -0.3576 -0.3076 -0.1257
 4046TIP3    H233554   5.828   5.629  11.055 -0.9185 -0.9888  0.0377
 4047TIP3   OH233555   0.271   6.384   0.373 -0.1823 -0.7481  0.0924
 4047TIP3    H133556   0.332   6.426   0.312 -0.2263 -0.4400  0.2567
 4047TIP3    H233557   0.233   6.457   0.422 -0.8781 -0.9241 -0.1888
 4048TIP3   OH233558   5.442   2.508   1.066 -0.5103 -0.2490  0.0385
 4048TIP3    H133559   5.357   2.516   1.024 -1.1890  0.2476  1.4829
 4048TIP3    H233560   5.441   2.573   1.137  0.7895 -0.7256  0.5239
 4049TIP3   OH233561   0.824   0.105  12.779  0.0626 -0.1618 -0.7498
 4049TIP3    H133562   0.779   0.137  12.857  0.2880  0.6433 -0.9443
 4049TIP3    H233563   0.825   0.179  12.719  0.7742 -0.4666 -1.1309
 4050TIP3   OH233564   4.701   0.928  11.883  0.0001  0.3834 -0.4000
 4050TIP3    H133565   4.668   0.976  11.959 -2.1267  0.6646 -1.4444
 4050TIP3    H233566   4.763   0.987  11.841 -0.4277  1.0657 -0.0687
 4051TIP3   OH233567   5.127   3.559  11.991 -0.4538  0.6373 -0.2663
 4051TIP3    H133568   5.070   3.574  11.916 -0.4543 -0.0267 -0.3993
 4051TIP3    H233569   5.194   3.627  11.985 -1.2743  1.4609 -0.0715
 4052TIP3   OH233570   2.930   5.796  15.891  0.1917  0.1305  0.2847
 4052TIP3    H133571   2.864   5.852  15.932 -0.3452  0.6480 -1.2436
 4052TIP3    H233572   2.899   5.784  15.801  1.3972 -0.8831 -0.0124
 4053TIP3   OH233573   3.812   0.347  16.622  0.1035  0.5849 -0.4147
 4053TIP3    H133574   3.731   0.385  16.658  0.1369  2.6591 -2.4229
 4053TIP3    H233575   3.782   0.294  16.548  0.5081  0.5690 -0.5666
 4054TIP3   OH233576   3.904   5.251  14.148  1.2081  0.4033  0.4381
 4054TIP3    H133577   3.971   5.251  14.217  1.6562 -0.8663  0.0227
 4054TIP3    H233578   3.843   5.182  14.175 -0.0827  1.7229  0.9445
 4055TIP3   OH233579   2.794   0.648   2.651 -0.1890  0.2623  0.0183
 4055TIP3    H133580   2.789   0.734   2.692 -0.2402 -0.3760  1.3853
 4055TIP3    H233581   2.818   0.589   2.722  0.0816 -0.8192 -0.9549
 4056TIP3   OH233582   4.391   4.965   4.394  0.1300  0.4470 -0.6578
 4056TIP3    H133583   4.445   4.958   4.473  0.2516  0.7294 -0.7182
 4056TIP3    H233584   4.434   4.908   4.331  0.8586  1.3693 -0.9938
 4057TIP3   OH233585   4.247   6.572  15.698  0.5894  0.3423  0.2663
 4057TIP3    H133586   4.278   6.652  15.740  1.3417 -0.6431  1.6440
 4057TIP3    H233587   4.317   6.548  15.637 -0.1678  1.3634 -1.0307
 4058TIP3   OH233588   5.062   3.753   3.459 -0.0237 -0.0504  0.2152
 4058TIP3    H133589   5.086   3.687   3.523 -0.1689 -0.3843 -0.0707
 4058TIP3    H233590   5.066   3.836   3.507  1.3142 -0.1309  0.2655
 4059TIP3   OH233591   4.334   5.124  11.386 -0.1376 -0.1461  0.1270
 4059TIP3    H133592   4.272   5.166  11.326  3.2622  1.1986 -2.6192
 4059TIP3    H233593   4.312   5.031  11.382 -1.4651  0.2143 -1.3624
 4060TIP3   OH233594   3.205   5.744  14.493  0.5449 -0.2121  0.6114
 4060TIP3    H133595   3.171   5.656  14.477 -1.7460  0.7220  0.0864
 4060TIP3    H233596   3.199   5.756  14.588 -0.8563  0.0085  0.5099
 4061TIP3   OH233597   1.053   5.639  12.520  0.2128 -0.9978  0.1999
 4061TIP3    H133598   0.992   5.596  12.459  1.1707 -0.6634 -1.0175
 4061TIP3    H233599   1.089   5.712  12.470  1.3231 -0.9627  1.0341
 4062TIP3   OH233600   3.510   1.227  12.149  0.2981  0.2319  0.4322
 4062TIP3    H133601   3.541   1.236  12.059  2.3591 -0.8499  1.0218
 4062TIP3    H233602   3.537   1.308  12.193  0.1562  0.3314  0.3373
 4063TIP3   OH233603   5.095   3.094   6.299  0.6076  0.5142  0.3414
 4063TIP3    H133604   5.073   3.123   6.387 -0.5504 -0.6218  0.4485
 4063TIP3    H233605   5.114   3.174   6.251 -0.0908  1.2487  1.2759
 4064TIP3   OH233606   4.843   2.573  11.576 -0.0807  0.0429 -0.0539
 4064TIP3    H133607   4.835   2.626  11.496 -0.1741  0.3705  0.1721
 4064TIP3    H233608   4.761   2.587  11.622  0.3401  0.5847  0.5429
 4065TIP3   OH233609   5.044   3.547  12.351 -0.5124  0.5867 -0.8503
 4065TIP3    H133610   5.124   3.597  12.338  0.0625  0.1942  1.1922
 4065TIP3    H233611   4.983   3.610  12.390 -0.9702  0.6628 -1.6613
 4066TIP3   OH233612   5.053   1.826   1.150 -0.0521 -0.7533 -0.3900
 4066TIP3    H133613   4.962   1.799   1.140 -0.5918  0.7123  0.4148
 4066TIP3    H233614   5.054   1.918   1.122  1.1034 -0.6599 -0.0785
 4067TIP3   OH233615   3.916   5.935   3.207  0.6220 -0.3681  0.1840
 4067TIP3    H133616   3.951   5.994   3.274  0.3402 -1.0431  0.9304
 4067TIP3    H233617   3.908   5.990   3.129 -3.2135  1.6067  1.8184
 4068TIP3   OH233618   5.522   2.896  11.339 -0.1625 -0.1709 -0.0935
 4068TIP3    H133619   5.604   2.891  11.289 -0.7873 -0.3571 -1.1228
 4068TIP3    H233620   5.459   2.933  11.277 -0.9700 -0.4542  0.5523
 4069TIP3   OH233621   0.054   1.163  16.192 -0.5907 -0.1180 -0.3659
 4069TIP3    H133622  -0.011   1.226  16.158 -0.8672 -1.2014 -1.8998
 4069TIP3    H233623   0.104   1.137  16.115 -0.4350 -1.7324  0.2719
 4070TIP3   OH233624   4.751   5.365  16.019 -0.0940  0.1262  0.1837
 4070TIP3    H133625   4.683   5.358  15.952  1.2989  1.0618 -1.3699
 4070TIP3    H233626   4.787   5.277  16.027  0.0383  0.1064 -0.6237
 4071TIP3   OH233627   2.941   0.704   0.281  0.2318 -0.3457 -0.4430
 4071TIP3    H133628   2.935   0.800   0.276 -0.0311 -0.4362 -2.3727
 4071TIP3    H233629   2.852   0.674   0.264 -0.1765 -0.9108  2.4303
 4072TIP3   OH233630   1.463   4.630   3.753  0.1588 -0.4267  0.6078
 4072TIP3    H133631   1.556   4.617   3.737  0.5341  1.5365  1.1101
 4072TIP3    H233632   1.433   4.547   3.788  1.9576 -0.7278  1.4897
 4073TIP3   OH233633   0.227   3.999   2.283 -0.0325  0.0063 -0.0342
 4073TIP3    H133634   0.159   4.065   2.297 -1.1128 -1.2265  0.7441
 4073TIP3    H233635   0.277   3.997   2.365 -0.1592 -0.2926  0.0397
 4074TIP3   OH233636   3.791   1.205   3.831 -0.1147 -0.1236 -0.5056
 4074TIP3    H133637   3.716   1.250   3.793  0.5176  1.0417 -0.3833
 4074TIP3    H233638   3.868   1.248   3.793  0.5132  0.3049  1.1696
 4075TIP3   OH233639   2.578   1.128  11.893 -0.3106 -0.5765 -0.3439
 4075TIP3    H133640   2.570   1.083  11.978 -0.7185 -0.6908 -0.4437
 4075TIP3    H233641   2.664   1.170  11.897  0.0276 -1.2745 -0.2051
 4076TIP3   OH233642   5.945   4.024   6.611  0.3275 -0.6230 -0.2044
 4076TIP3    H133643   6.021   4.006   6.666  0.0418 -0.6404  0.1888
 4076TIP3    H233644   5.981   4.045   6.526  0.8076  0.1261  0.1816
 4077TIP3   OH233645   3.974   0.921  16.238  0.0159 -0.5793  0.3701
 4077TIP3    H133646   3.964   0.929  16.143  0.8331 -0.7991  0.2690
 4077TIP3    H233647   3.901   0.865  16.264 -1.5900  1.3790  0.1918
 4078TIP3   OH233648   6.388   4.653   5.410 -0.1199 -0.6052 -0.2611
 4078TIP3    H133649   6.393   4.749   5.403 -2.7093 -0.5341 -1.6893
 4078TIP3    H233650   6.434   4.633   5.492 -0.7182  1.9712  0.7599
 4079TIP3   OH233651   3.101   1.459  12.831  0.2709  0.1241 -0.1349
 4079TIP3    H133652   3.169   1.404  12.871  1.0140  1.8340  1.0101
 4079TIP3    H233653   3.065   1.405  12.761  0.2538 -2.2185  1.6306
 4080TIP3   OH233654   1.593   3.309   2.509  0.1016  0.2536 -0.4559
 4080TIP3    H133655   1.507   3.272   2.488  0.5298 -0.7105 -0.5253
 4080TIP3    H233656   1.629   3.336   2.425  0.0275  0.2959 -0.4735
 4081TIP3   OH233657   5.811   3.264   5.926  0.2857  0.8555 -0.0897
 4081TIP3    H133658   5.825   3.357   5.944  1.4230  0.8621 -0.9492
 4081TIP3    H233659   5.771   3.229   6.006 -0.7732  2.2203 -0.0116
 4082TIP3   OH233660   4.509   4.521   2.454  1.2554  0.1954  0.5042
 4082TIP3    H133661   4.473   4.442   2.495  0.8636 -0.2735 -0.7404
 4082TIP3    H233662   4.585   4.490   2.405  0.0087  0.2729 -1.5338
 4083TIP3   OH233663   1.389   2.329   5.626  0.3132  0.5806  0.4316
 4083TIP3    H133664   1.426   2.293   5.545  1.3378  0.2799  1.0148
 4083TIP3    H233665   1.441   2.408   5.643 -0.9850  1.5519 -0.0811
 4084TIP3   OH233666   4.338   1.839  13.592  0.1521  0.6211 -0.2993
 4084TIP3    H133667   4.360   1.764  13.537  0.8191  0.7847 -0.2710
 4084TIP3    H233668   4.378   1.914  13.547  1.1771  0.6810  0.6801
 4085TIP3   OH233669   5.371   1.489  15.043 -0.5054  0.7372 -0.3526
 4085TIP3    H133670   5.384   1.556  14.975 -0.9531  0.6033 -0.5752
 4085TIP3    H233671   5.457   1.479  15.084 -0.2934  1.0065 -0.7277
 4086TIP3   OH233672   1.508   4.641  12.772 -0.3892 -0.2204 -0.0302
 4086TIP3    H133673   1.547   4.614  12.689  0.0098  0.2545  0.0010
 4086TIP3    H233674   1.460   4.721  12.750  0.3482  0.3303  0.3495
 4087TIP3   OH233675   5.179   5.356  11.275  0.0245  0.1583  0.4510
 4087TIP3    H133676   5.089   5.326  11.289  0.2080 -0.3897  0.4434
 4087TIP3    H233677   5.230   5.313  11.344  0.5394 -0.7435 -0.4778
 4088TIP3   OH233678   3.914   5.314   1.152  0.1284  0.4243 -0.2204
 4088TIP3    H133679   3.915   5.409   1.156  0.9663  0.3765  0.8440
 4088TIP3    H233680   3.830   5.289   1.190  0.6247  0.6737  1.0497
 4089TIP3   OH233681   5.513   5.679  14.701 -0.1689 -0.3132  0.2315
 4089TIP3    H133682   5.492   5.592  14.735 -0.3621 -0.2653  0.2381
 4089TIP3    H233683   5.568   5.663  14.625  0.7443 -0.4083  0.8948
 4090TIP3   OH233684   5.266   0.911  11.159 -0.2313 -0.0548 -0.7659
 4090TIP3    H133685   5.262   0.825  11.201  0.5847  0.1108 -0.3380
 4090TIP3    H233686   5.176   0.929  11.132 -0.4508 -0.9302 -0.6259
 4091TIP3   OH233687   1.798   6.189   4.900 -0.5906 -0.4532  0.3552
 4091TIP3    H133688   1.814   6.126   4.830 -0.3167  0.2841 -0.2468
 4091TIP3    H233689   1.711   6.224   4.881 -1.2954 -1.5654  1.4084
 4092TIP3   OH233690   3.067   0.532  17.068  0.3044  0.4621  0.2067
 4092TIP3    H133691   2.989   0.489  17.105  1.3862 -0.4144  1.4897
 4092TIP3    H233692   3.116   0.462  17.026  1.1301  0.7512  0.6678
 4093TIP3   OH233693   0.385   1.328  15.737 -0.5901  0.2773 -1.0532
 4093TIP3    H133694   0.381   1.423  15.743 -0.9840  0.2821 -1.3961
 4093TIP3    H233695   0.457   1.303  15.796 -2.5001  0.5572  1.4941
 4094TIP3   OH233696   2.398   3.433   3.306  1.1714 -0.3908  0.4660
 4094TIP3    H133697   2.426   3.506   3.250  0.9371  1.3359  2.5611
 4094TIP3    H233698   2.461   3.363   3.287  2.9748  1.2311  0.3416
 4095TIP3   OH233699   3.789   4.081   6.749 -0.3087 -0.0660  0.6001
 4095TIP3    H133700   3.873   4.037   6.736 -1.0262 -1.2042 -0.2688
 4095TIP3    H233701   3.792   4.157   6.691 -0.8472 -1.4789 -1.3291
 4096TIP3   OH233702   6.526   3.225   5.654  0.3882  0.0819  0.3512
 4096TIP3    H133703   6.462   3.155   5.643 -0.6474  1.1129 -0.2812
 4096TIP3    H233704   6.611   3.183   5.639 -0.2833 -0.8691 -0.8089
 4097TIP3   OH233705   0.800   5.433  13.026 -0.1114  0.0495  0.4558
 4097TIP3    H133706   0.866   5.420  13.094  1.9180 -1.2757 -1.6605
 4097TIP3    H233707   0.832   5.508  12.975 -1.3051  0.6714  0.6086
 4098TIP3   OH233708   2.721   3.970   2.047 -0.4426 -0.0606 -0.1008
 4098TIP3    H133709   2.793   4.017   2.090 -0.3011  0.7718 -1.2459
 4098TIP3    H233710   2.759   3.935   1.967 -1.2004 -0.0330 -0.4748
 4099TIP3   OH233711   4.222   3.606  16.628  0.4465  0.8183 -0.1356
 4099TIP3    H133712   4.127   3.605  16.632  0.4908 -0.6999  0.8104
 4099TIP3    H233713   4.247   3.691  16.666 -0.4487  0.3355  1.5596
 4100TIP3   OH233714   2.299   6.495  12.084  0.1144  0.3587 -0.2886
 4100TIP3    H133715   2.328   6.479  11.994  1.5674 -1.3758  0.4490
 4100TIP3    H233716   2.256   6.414  12.110  0.5317  0.5140  0.8912
 4101TIP3   OH233717   3.388   6.747  14.357  0.1774  0.1993 -0.1021
 4101TIP3    H133718   3.417   6.829  14.317  0.2287  0.1861 -0.0921
 4101TIP3    H233719   3.296   6.739  14.331  1.2386 -1.7786 -3.5056
 4102TIP3   OH233720   0.397   2.835  13.735  0.1126 -0.2031 -0.8168
 4102TIP3    H133721   0.436   2.766  13.681  1.1631 -1.4169  1.4158
 4102TIP3    H233722   0.467   2.899  13.747  0.2955 -0.5792  0.1622
 4103TIP3   OH233723   5.605   6.039   3.662  0.0809 -0.1397 -0.2620
 4103TIP3    H133724   5.577   6.083   3.742  2.8136 -1.4568  1.4970
 4103TIP3    H233725   5.560   5.955   3.664  1.3355 -0.8121  0.7469
 4104TIP3   OH233726   5.587   0.082   1.162 -0.1031 -0.0195 -0.4378
 4104TIP3    H133727   5.501   0.043   1.174 -0.0886  0.1480  0.2068
 4104TIP3    H233728   5.574   0.176   1.178 -0.0028  0.1519 -1.3131
 4105TIP3   OH233729   5.314   2.111  16.213  0.2355  0.1455  0.2014
 4105TIP3    H133730   5.303   2.020  16.240 -0.9137  1.1125  3.1256
 4105TIP3    H233731   5.405   2.132  16.232  0.8871 -0.7818 -1.7962
 4106TIP3   OH233732   3.455   0.551   0.255  0.4328 -0.4007  0.6927
 4106TIP3    H133733   3.367   0.529   0.226  0.9658  0.3878 -1.6065
 4106TIP3    H233734   3.449   0.640   0.288  0.3206 -0.4644  0.8474
 4107TIP3   OH233735   0.575   1.295  14.073  0.3783 -0.2435 -0.1814
 4107TIP3    H133736   0.662   1.334  14.077 -0.5324  1.7394  0.9454
 4107TIP3    H233737   0.515   1.369  14.078 -1.4034 -1.6978  0.6452
 4108TIP3   OH233738   1.931   2.343   0.695  0.1116  0.6011 -0.7150
 4108TIP3    H133739   1.917   2.317   0.786 -2.6194 -0.5144 -1.3960
 4108TIP3    H233740   1.942   2.438   0.699  1.4598  0.3968  0.9097
 4109TIP3   OH233741   3.533   0.935   3.363 -1.0034  0.0396  0.7465
 4109TIP3    H133742   3.524   0.942   3.458 -2.2338  3.8989  0.4319
 4109TIP3    H233743   3.451   0.972   3.328  0.5051  1.1223 -1.8073
 4110TIP3   OH233744   5.471   4.429  16.469 -0.4434  0.5666 -0.3807
 4110TIP3    H133745   5.535   4.358  16.477 -0.7462  0.3049 -0.2492
 4110TIP3    H233746   5.404   4.395  16.409 -0.0999  1.1106 -1.0780
 4111TIP3   OH233747   5.423   2.843   4.694 -0.1126  0.2322 -0.5465
 4111TIP3    H133748   5.505   2.794   4.706 -1.2498 -1.7097 -0.4304
 4111TIP3    H233749   5.408   2.843   4.600 -0.6898 -0.6981 -0.4738
 4112TIP3   OH233750   5.211   3.859   0.091 -0.3186 -0.3744  0.4828
 4112TIP3    H133751   5.152   3.822   0.025 -0.6638  1.4074 -0.2320
 4112TIP3    H233752   5.297   3.821   0.070 -0.5194 -0.2067 -0.6908
 4113TIP3   OH233753   0.674   5.650   0.249  0.3353 -0.5742  0.2605
 4113TIP3    H133754   0.666   5.625   0.157 -0.8934 -1.3819  0.5699
 4113TIP3    H233755   0.656   5.744   0.250 -1.6266 -0.9249 -0.0882
 4114TIP3   OH233756   3.946   0.155  12.227 -0.7146 -0.1340 -0.1619
 4114TIP3    H133757   3.851   0.158  12.223 -0.6585 -0.1483 -2.5594
 4114TIP3    H233758   3.971   0.092  12.159  0.9637 -0.9027  1.1289
 4115TIP3   OH233759   2.303   5.580   3.333  0.0035 -0.0056  0.6966
 4115TIP3    H133760   2.234   5.626   3.286 -0.7523 -1.0673  0.7389
 4115TIP3    H233761   2.370   5.564   3.267 -0.1530  0.3154  0.4593
 4116TIP3   OH233762   4.689   2.801   1.571 -0.1070 -0.2269  0.4307
 4116TIP3    H133763   4.642   2.745   1.508 -0.5991  1.0933 -0.4039
 4116TIP3    H233764   4.623   2.824   1.636 -0.3752  0.7686 -0.1710
 4117TIP3   OH233765   5.873   3.275   3.749 -0.4129 -0.2417 -0.1497
 4117TIP3    H133766   5.797   3.333   3.746 -0.4720 -0.2037  1.6570
 4117TIP3    H233767   5.836   3.187   3.756 -0.3038 -0.3825 -1.2634
 4118TIP3   OH233768   1.301   2.629   2.597 -0.3286 -0.3342 -0.3469
 4118TIP3    H133769   1.340   2.679   2.669  2.5158 -1.2118 -1.2206
 4118TIP3    H233770   1.317   2.537   2.619 -1.1970 -0.6945 -1.1427
 4119TIP3   OH233771   1.657   1.205  15.929  0.8364  0.0468  0.7587
 4119TIP3    H133772   1.566   1.225  15.951  1.2231  0.5028  1.9669
 4119TIP3    H233773   1.652   1.168  15.841 -0.5189  0.0686  0.8089
 4120TIP3   OH233774   0.118   0.044  13.635  0.5778  0.0714 -0.0984
 4120TIP3    H133775   0.193   0.067  13.690  1.8669 -1.3596 -1.2538
 4120TIP3    H233776   0.147  -0.030  13.583 -1.3063  0.1503 -1.3110
 4121TIP3   OH233777   0.143   0.226   3.422  0.1688 -0.0321 -0.7734
 4121TIP3    H133778   0.135   0.267   3.337  0.6284  0.3167 -0.6535
 4121TIP3    H233779   0.093   0.281   3.481  1.8119  1.0826 -0.3791
 4122TIP3   OH233780   6.175   1.167   2.395 -0.4022 -0.2870 -0.9720
 4122TIP3    H133781   6.240   1.185   2.327  1.5130  0.4830  1.0127
 4122TIP3    H233782   6.130   1.088   2.365  0.4507  0.0159 -3.0989
 4123TIP3   OH233783   0.635   6.763   3.020 -0.2779  0.1719  0.3748
 4123TIP3    H133784   0.698   6.833   3.002  1.2664 -1.1019  0.6554
 4123TIP3    H233785   0.678   6.684   2.987 -0.1627 -1.2441  3.7269
 4124TIP3   OH233786   5.712   2.547   3.381  0.0196 -0.1163  0.0445
 4124TIP3    H133787   5.675   2.603   3.312  0.2825  1.6754  1.3325
 4124TIP3    H233788   5.797   2.587   3.401 -0.1432 -0.4981  1.5274
 4125TIP3   OH233789   6.721   6.169   5.288 -0.0254  0.2510 -0.2418
 4125TIP3    H133790   6.638   6.176   5.334 -0.4267  0.8711 -1.0341
 4125TIP3    H233791   6.719   6.082   5.249  0.1917 -0.1637  0.6803
 4126TIP3   OH233792   0.877   3.587  14.544 -0.1471  0.5886 -0.3972
 4126TIP3    H133793   0.960   3.627  14.568  0.3201 -0.4259 -0.3252
 4126TIP3    H233794   0.839   3.557  14.626 -0.1613  0.2291 -0.5347
 4127TIP3   OH233795   5.063   3.989  11.224  0.2255 -0.3949 -0.9662
 4127TIP3    H133796   5.087   4.081  11.218  0.3323 -0.2942  0.7103
 4127TIP3    H233797   5.123   3.945  11.163  3.2883  0.1116  1.5118
 4128TIP3   OH233798   6.395   6.414   0.792 -0.0460 -0.7838  0.7337
 4128TIP3    H133799   6.366   6.458   0.872  1.7665 -0.3800  1.1822
 4128TIP3    H233800   6.449   6.341   0.823  0.5765 -0.6906 -0.1162
 4129TIP3   OH233801   0.579   6.530  13.988 -0.2254 -0.3644 -0.7822
 4129TIP3    H133802   0.663   6.574  14.004  0.0809 -0.8094 -1.1749
 4129TIP3    H233803   0.562   6.544  13.895 -0.3585 -0.6828 -0.8038
 4130TIP3   OH233804   2.064   2.885   5.229 -0.4471 -0.1411  0.0541
 4130TIP3    H133805   2.062   2.809   5.287 -0.7616 -0.7576 -0.7535
 4130TIP3    H233806   2.157   2.896   5.208 -0.2068  0.7161  1.4795
 4131TIP3   OH233807   1.212   2.411   1.034  0.8036  0.2482 -0.5796
 4131TIP3    H133808   1.251   2.329   1.005  2.7629  0.1426  2.2259
 4131TIP3    H233809   1.121   2.387   1.055  0.9967 -0.9166 -1.0066
 4132TIP3   OH233810   4.403   5.466  15.335 -0.5284  0.2746 -0.4572
 4132TIP3    H133811   4.387   5.485  15.428  0.9861 -0.4908 -0.0104
 4132TIP3    H233812   4.316   5.463  15.296 -1.2440 -0.0385  1.0799
 4133TIP3   OH233813   4.671   1.348   1.003  0.1411 -0.4885 -0.1858
 4133TIP3    H133814   4.618   1.399   1.064 -0.0390  0.1752 -0.8976
 4133TIP3    H233815   4.643   1.257   1.018  1.1429 -0.5000  1.7473
 4134TIP3   OH233816   3.175   6.476  13.944  0.1040 -0.3576  0.2000
 4134TIP3    H133817   3.164   6.385  13.972 -1.1065 -0.7801 -1.5947
 4134TIP3    H233818   3.137   6.527  14.015 -3.2208 -1.4354 -0.6966
 4135TIP3   OH233819   6.694   1.612  13.908 -0.1343 -0.3517  0.2819
 4135TIP3    H133820   6.602   1.609  13.934  0.1504  0.6652  1.4529
 4135TIP3    H233821   6.720   1.703  13.924  0.7898 -0.3649 -1.0444
 4136TIP3   OH233822   2.737   2.634   4.173 -0.0529 -0.0425  0.0879
 4136TIP3    H133823   2.760   2.726   4.178 -0.4548  0.0883 -0.4705
 4136TIP3    H233824   2.695   2.624   4.088  3.2966 -1.4683 -1.5122
 4137TIP3   OH233825   4.695   5.271   4.699  0.0261 -0.0416  0.1619
 4137TIP3    H133826   4.668   5.348   4.750  0.2149  0.0470  0.1264
 4137TIP3    H233827   4.742   5.307   4.624 -0.5100 -0.1613 -0.2309
 4138TIP3   OH233828   3.884   3.792   2.295 -0.0866 -0.5081  0.3435
 4138TIP3    H133829   3.872   3.873   2.345 -0.6440 -0.6270  0.4098
 4138TIP3    H233830   3.797   3.773   2.261 -0.1249 -1.5380  1.0192
 4139TIP3   OH233831   4.410   0.759   3.524  0.5121 -0.3072 -0.2962
 4139TIP3    H133832   4.383   0.699   3.593 -1.2512  0.8970  0.1210
 4139TIP3    H233833   4.500   0.784   3.546  0.9824 -2.1752 -0.0663
 4140TIP3   OH233834   1.924   1.733   1.196  0.1019 -0.0070  0.2304
 4140TIP3    H133835   1.949   1.648   1.233 -0.0402 -1.0503 -2.0038
 4140TIP3    H233836   1.830   1.726   1.179  0.3777  0.0175 -1.3974
 4141TIP3   OH233837   2.552   1.224   1.286  0.0627  0.0264 -0.1970
 4141TIP3    H133838   2.502   1.152   1.324  0.4195 -0.4035 -0.5308
 4141TIP3    H233839   2.640   1.213   1.322  0.4747 -0.5510 -1.3598
 4142TIP3   OH233840   5.408   4.911   0.579 -0.5420  0.1306 -0.0314
 4142TIP3    H133841   5.346   4.983   0.572  0.6594  1.4169  1.8074
 4142TIP3    H233842   5.457   4.930   0.660  1.0656 -1.7410 -0.5275
 4143TIP3   OH233843   1.457   2.166   1.777 -0.1787  0.2761 -0.2891
 4143TIP3    H133844   1.415   2.239   1.732 -0.2679  0.6337  0.3731
 4143TIP3    H233845   1.401   2.090   1.759 -1.4097  0.8568  1.0434
 4144TIP3   OH233846   2.736   1.434   3.093  0.0051  0.0015 -0.3691
 4144TIP3    H133847   2.723   1.525   3.065 -2.4098 -0.3253 -0.4103
 4144TIP3    H233848   2.750   1.386   3.011  2.2345  0.4443 -0.2843
 4145TIP3   OH233849   3.963   2.249  11.113  0.4836 -0.3083  0.1543
 4145TIP3    H133850   4.033   2.189  11.088  1.4618  1.6104 -2.0028
 4145TIP3    H233851   3.887   2.193  11.128  2.3295 -2.3967  2.1244
 4146TIP3   OH233852   4.645   6.418   4.277 -0.5155 -0.1748  0.3957
 4146TIP3    H133853   4.732   6.438   4.310 -0.8719  3.3548 -0.5495
 4146TIP3    H233854   4.588   6.424   4.354 -0.5403  2.3041  0.2293
 4147TIP3   OH233855   3.148   1.513   2.474 -0.0714 -0.0478 -0.5549
 4147TIP3    H133856   3.105   1.532   2.390  0.2309 -0.2403 -0.7523
 4147TIP3    H233857   3.201   1.591   2.492 -2.3861  1.2602  0.8965
 4148TIP3   OH233858   6.045   2.507   1.881  0.2026  0.1157  0.0790
 4148TIP3    H133859   5.977   2.446   1.852 -0.3840  0.3107  1.0173
 4148TIP3    H233860   6.098   2.456   1.943 -0.7658  0.7866  1.4732
 4149TIP3   OH233861   6.217   3.697  14.891 -0.3977 -0.0497 -0.0730
 4149TIP3    H133862   6.202   3.624  14.831 -0.8507 -0.8381  0.9708
 4149TIP3    H233863   6.277   3.662  14.957 -0.5222  0.5504  0.3623
 4150TIP3   OH233864   3.520   5.813  12.056 -0.2433  0.7038 -0.3184
 4150TIP3    H133865   3.493   5.903  12.040  0.3334  1.1217  0.9746
 4150TIP3    H233866   3.534   5.808  12.151 -2.8186 -1.4474  0.0300
 4151TIP3   OH233867   1.335   3.049  15.387 -0.1788 -0.0282 -0.2132
 4151TIP3    H133868   1.276   3.120  15.364  0.8425  0.7676 -0.4469
 4151TIP3    H233869   1.342   2.996  15.308 -2.0546 -1.2170  0.3896
 4152TIP3   OH233870   5.527   6.082  16.308 -0.8530  0.3208 -0.5431
 4152TIP3    H133871   5.446   6.102  16.356 -0.9435  0.9085 -0.9354
 4152TIP3    H233872   5.537   5.987  16.317 -1.7038  0.2145 -0.6716
 4153TIP3   OH233873   1.045   3.804   5.593 -0.2550  0.5843 -0.2409
 4153TIP3    H133874   1.115   3.808   5.658  1.4409  0.9993 -2.0681
 4153TIP3    H233875   1.083   3.756   5.519 -1.9132  0.7713 -1.2312
 4154TIP3   OH233876   2.029   5.704   5.360 -0.2520 -0.0143  0.3461
 4154TIP3    H133877   2.003   5.616   5.385 -3.0570  0.5499 -0.3646
 4154TIP3    H233878   2.083   5.692   5.281 -0.7364 -1.0912  0.1749
 4155TIP3   OH233879   2.071   4.884   2.066  0.3115 -0.2084  0.1692
 4155TIP3    H133880   2.034   4.886   1.977  0.1053 -1.7209  0.2155
 4155TIP3    H233881   2.025   4.954   2.112 -1.0007 -0.6954 -0.3774
 4156TIP3   OH233882   5.803   0.538  15.956  0.8112  0.0461  0.0761
 4156TIP3    H133883   5.779   0.600  15.887 -1.1949  0.0411  0.7381
 4156TIP3    H233884   5.726   0.482  15.967  1.4227 -0.5359  1.6805
 4157TIP3   OH233885   2.276   1.957  11.655  0.2513 -0.6202 -0.0853
 4157TIP3    H133886   2.254   1.978  11.746  0.9437 -1.2845  0.2371
 4157TIP3    H233887   2.311   2.038  11.620  0.2393 -0.4368  0.3178
 4158TIP3   OH233888   3.548   5.776  14.972  0.2427 -0.1276 -0.1302
 4158TIP3    H133889   3.461   5.801  15.002  0.0887  1.3723 -1.7847
 4158TIP3    H233890   3.558   5.685  15.002 -1.1540  0.2625  1.6218
 4159TIP3   OH233891   3.199   2.270   0.438  0.2878  0.7177 -0.5091
 4159TIP3    H133892   3.223   2.280   0.346  4.7122  1.0005  0.5554
 4159TIP3    H233893   3.221   2.179   0.459 -3.2352 -0.1577 -0.3529
 4160TIP3   OH233894   1.832   0.781  12.508 -0.6157  0.1928  0.6046
 4160TIP3    H133895   1.898   0.821  12.565 -0.6180  0.8564  0.1395
 4160TIP3    H233896   1.849   0.687  12.514  1.9832  0.4706 -1.4752
 4161TIP3   OH233897   4.730   2.132   4.886 -0.2368  0.2095 -0.2405
 4161TIP3    H133898   4.815   2.147   4.847 -0.0312 -2.4985 -0.9332
 4161TIP3    H233899   4.691   2.219   4.895  2.6099  1.4698  0.1708
 4162TIP3   OH233900   5.810   6.044   4.071 -0.1323  0.2001  0.0724
 4162TIP3    H133901   5.757   5.983   4.020 -1.1375  0.2602  1.0380
 4162TIP3    H233902   5.899   6.031   4.038 -0.1149 -2.7140  1.1057
 4163TIP3   OH233903   1.181   2.995   1.528  0.0427  0.1535 -0.2328
 4163TIP3    H133904   1.126   3.002   1.450  0.0707 -0.5835 -0.3192
 4163TIP3    H233905   1.200   2.902   1.536 -1.2801  0.0066  1.5583
 4164TIP3   OH233906   4.336   6.483   0.583 -0.0370  0.4900 -0.2900
 4164TIP3    H133907   4.338   6.578   0.570  1.8691  0.4937 -0.0648
 4164TIP3    H233908   4.327   6.447   0.494 -0.4108  0.8610 -0.4044
 4165TIP3   OH233909   6.318   4.219  13.534  0.5369  0.5475 -0.2985
 4165TIP3    H133910   6.234   4.177  13.513  0.3352  1.2251 -0.8484
 4165TIP3    H233911   6.343   4.181  13.618 -0.2523  0.2382 -0.1978
 4166TIP3   OH233912   0.409   4.015   5.823 -0.3253 -0.5720  0.6330
 4166TIP3    H133913   0.343   4.054   5.881 -1.3226 -0.0825 -0.7944
 4166TIP3    H233914   0.375   3.928   5.804 -0.3789 -0.4521  0.1790
 4167TIP3   OH233915   5.865   5.830   2.930 -0.2932 -0.4773 -0.4242
 4167TIP3    H133916   5.856   5.736   2.946  3.6566 -1.0220 -0.7744
 4167TIP3    H233917   5.855   5.840   2.836 -1.6549 -0.3795 -0.2806
 4168TIP3   OH233918   3.863   5.425   4.223 -0.0321  0.0337  0.2013
 4168TIP3    H133919   3.953   5.455   4.228  0.2716 -0.9517  0.7065
 4168TIP3    H233920   3.833   5.453   4.136  0.6084  0.7596  0.2160
 4169TIP3   OH233921   1.472   0.076   0.960 -0.3498 -0.0893  0.4834
 4169TIP3    H133922   1.504   0.163   0.983  1.8039 -0.4833 -0.8463
 4169TIP3    H233923   1.398   0.093   0.902  0.9453  0.9025 -0.9407
 4170TIP3   OH233924   4.300   0.524  13.597  0.0843  0.0408 -0.2241
 4170TIP3    H133925   4.393   0.506  13.582  0.3502 -0.0801  1.4407
 4170TIP3    H233926   4.299   0.578  13.677 -1.2067  0.8938 -0.8034
 4171TIP3   OH233927   6.435   5.027  11.809  0.3279  0.2893 -0.3320
 4171TIP3    H133928   6.451   5.087  11.736  0.8959  0.1130 -0.3542
 4171TIP3    H233929   6.514   4.974  11.814  1.1642  1.6636  1.7144
 4172TIP3   OH233930   1.973   0.089  12.839 -0.0229 -0.4742 -0.0663
 4172TIP3    H133931   2.039   0.020  12.830  0.5453  0.2899 -2.1125
 4172TIP3    H233932   1.889   0.042  12.837  0.4015 -1.2940  0.8097
 4173TIP3   OH233933   3.969   1.968   5.376  0.6572  0.8127  0.3159
 4173TIP3    H133934   3.921   1.890   5.403  0.5134  0.9536  0.4715
 4173TIP3    H233935   3.909   2.014   5.317 -0.3938  2.2358  2.4046
 4174TIP3   OH233936   2.132   2.678  12.304  0.1186  0.4932  0.3350
 4174TIP3    H133937   2.056   2.734  12.289  0.0674 -0.1337 -1.9531
 4174TIP3    H233938   2.100   2.607  12.359 -0.6734  0.8357  0.3189
 4175TIP3   OH233939   1.217   6.078  11.102  0.3897 -0.5794 -0.1326
 4175TIP3    H133940   1.134   6.098  11.145  0.6844  1.2474 -0.3837
 4175TIP3    H233941   1.210   6.118  11.016  1.2031 -1.1695 -0.4863
 4176TIP3   OH233942   1.638   2.688  12.144 -0.6788  0.4193  0.7218
 4176TIP3    H133943   1.583   2.614  12.171 -1.7498  0.9483  0.0131
 4176TIP3    H233944   1.591   2.727  12.070 -0.1260  1.8324  1.1095
 4177TIP3   OH233945   2.865   3.662  12.152 -0.6582  0.0690 -0.1678
 4177TIP3    H133946   2.835   3.744  12.113 -1.3674 -0.4794 -0.7960
 4177TIP3    H233947   2.842   3.595  12.087  0.2024 -0.5890  0.1919
 4178TIP3   OH233948   3.192   2.490   5.478 -0.1895  0.1193 -0.2753
 4178TIP3    H133949   3.202   2.487   5.573 -2.3248 -1.6696 -0.0460
 4178TIP3    H233950   3.242   2.415   5.447  0.8351  0.9353 -0.6117
 4179TIP3   OH233951   4.975   4.413  12.415  0.3394 -0.4932 -0.7143
 4179TIP3    H133952   5.052   4.470  12.406 -1.4354  2.0122 -0.6745
 4179TIP3    H233953   5.002   4.345  12.476  2.6222  0.1887 -0.9287
 4180TIP3   OH233954   2.955   4.261  12.016 -0.0429  0.3281 -0.4577
 4180TIP3    H133955   3.027   4.322  12.000 -0.2459  0.7113  0.0791
 4180TIP3    H233956   2.932   4.274  12.108 -0.8404  0.2500 -0.6391
 4181TIP3   OH233957   1.201   0.632  15.139 -0.4264  0.3637  0.9443
 4181TIP3    H133958   1.165   0.716  15.111 -0.0305  0.6617  1.3155
 4181TIP3    H233959   1.125   0.580  15.164 -0.6288  0.8828  1.4360
 4182TIP3   OH233960   5.845   2.405  12.233  0.3891 -0.3859 -0.1362
 4182TIP3    H133961   5.889   2.468  12.290  0.2820  0.1209 -0.6141
 4182TIP3    H233962   5.768   2.378  12.281  0.0692  0.3718 -0.2255
 4183TIP3   OH233963   0.585   1.720   5.685  0.0101 -0.0689 -0.0832
 4183TIP3    H133964   0.534   1.793   5.720 -1.1113  0.1756 -2.1149
 4183TIP3    H233965   0.520   1.653   5.666  1.1019 -1.8869  2.3492
 4184TIP3   OH233966   2.486   2.865  13.163 -0.1185  0.0548 -0.2626
 4184TIP3    H133967   2.533   2.906  13.090 -0.4136  2.1666  0.6809
 4184TIP3    H233968   2.426   2.933  13.193  0.0047 -0.7788  1.9498
 4185TIP3   OH233969   2.255   1.709   5.078 -0.2099  0.0966 -0.0784
 4185TIP3    H133970   2.225   1.787   5.031  0.5009  1.1404  1.1609
 4185TIP3    H233971   2.203   1.638   5.042 -1.5842  1.3051 -0.5230
 4186TIP3   OH233972   3.661   5.898  11.752  0.3309  0.1194 -0.4806
 4186TIP3    H133973   3.696   5.922  11.667  2.5231 -2.9761 -0.5269
 4186TIP3    H233974   3.734   5.912  11.813 -0.9104  1.3551  0.7714
 4187TIP3   OH233975   4.960   0.504  14.625  0.2389  0.3552 -0.0408
 4187TIP3    H133976   4.905   0.547  14.691 -1.1730 -1.0833 -0.2405
 4187TIP3    H233977   4.984   0.420  14.664  0.7633  0.1927 -0.6993
 4188TIP3   OH233978   4.499   5.655   0.595 -0.3722 -0.2483 -0.5388
 4188TIP3    H133979   4.462   5.691   0.675 -0.5247 -1.2331 -0.1580
 4188TIP3    H233980   4.551   5.580   0.625  1.8173  1.0105 -1.0592
 4189TIP3   OH233981   0.497   6.623  13.721  1.2657 -0.1160  0.0823
 4189TIP3    H133982   0.538   6.710  13.713  0.1982  0.3266 -0.6648
 4189TIP3    H233983   0.430   6.622  13.653 -0.9599 -0.2803  2.2329
 4190TIP3   OH233984   2.358   2.557   1.024 -0.3026 -0.1331  0.3775
 4190TIP3    H133985   2.367   2.651   1.036 -0.6871 -0.0671  0.1494
 4190TIP3    H233986   2.436   2.531   0.975 -1.0228  0.3382 -1.0440
 4191TIP3   OH233987   3.359   1.342  11.590  0.2224 -0.3370 -0.2385
 4191TIP3    H133988   3.374   1.250  11.611  2.0393  0.3102  1.5903
 4191TIP3    H233989   3.446   1.375  11.566 -0.6324  0.6171 -2.0720
 4192TIP3   OH233990   0.066   2.590   5.505 -0.1576 -0.4739  0.4947
 4192TIP3    H133991   0.109   2.579   5.421  0.4349  0.4636  0.6661
 4192TIP3    H233992  -0.026   2.566   5.489 -0.0411 -0.3199 -0.4065
 4193TIP3   OH233993   1.517   1.891  15.250 -0.1956 -0.3368 -0.1473
 4193TIP3    H133994   1.555   1.976  15.229  3.1108 -1.4612  0.9880
 4193TIP3    H233995   1.496   1.896  15.343  1.9098 -1.3811  0.4230
 4194TIP3   OH233996   2.247   0.889  10.251  0.1400  0.0801 -0.7762
 4194TIP3    H133997   2.224   0.798  10.229  0.0671  0.1375 -0.9349
 4194TIP3    H233998   2.173   0.921  10.301  0.8587 -0.4597  0.6605
 4195TIP3   OH233999   6.546   1.262   0.726  0.1352 -0.1114 -0.0568
 4195TIP3    H134000   6.554   1.314   0.806  2.0809 -0.8179  0.2415
 4195TIP3    H234001   6.523   1.325   0.658  1.9961  1.0662  0.3886
 4196TIP3   OH234002   6.336   5.388   0.872  0.2344  0.3033  0.1263
 4196TIP3    H134003   6.360   5.456   0.934 -1.7428  0.1519  1.1138
 4196TIP3    H234004   6.412   5.330   0.869  1.4116  1.8138  0.2985
 4197TIP3   OH234005   5.398   6.537  12.809  0.4112 -0.3120  0.5043
 4197TIP3    H134006   5.381   6.463  12.867 -0.5838 -1.1571 -0.8210
 4197TIP3    H234007   5.324   6.538  12.749  1.3445  0.6098 -0.6637
 4198TIP3   OH234008   5.538   3.513  12.417 -0.7310 -0.0504  0.0115
 4198TIP3    H134009   5.468   3.546  12.360 -0.7480 -1.4628 -0.7847
 4198TIP3    H234010   5.492   3.470  12.489 -0.6758 -0.6018 -0.2879
 4199TIP3   OH234011   3.162   0.596  15.513  0.4012 -0.1309 -0.4112
 4199TIP3    H134012   3.098   0.665  15.493  0.2679 -0.0103  0.4137
 4199TIP3    H234013   3.173   0.549  15.431 -1.0423 -0.3886 -0.4692
 4200TIP3   OH234014   5.908   6.187   0.304  0.0343 -0.3766 -0.0123
 4200TIP3    H134015   5.940   6.150   0.387  0.4505  0.4235  0.1894
 4200TIP3    H234016   5.883   6.277   0.326 -1.3315 -0.6411 -0.4149
 4201TIP3   OH234017   5.952   1.652  12.184 -0.3758 -0.5533 -0.0664
 4201TIP3    H134018   5.863   1.675  12.210 -0.8333  0.3573 -2.3273
 4201TIP3    H234019   5.952   1.659  12.088  1.6832 -2.1251 -0.2257
 4202TIP3   OH234020   4.886   2.205   4.597  0.0425 -0.2585 -0.5078
 4202TIP3    H134021   4.901   2.292   4.560 -0.3989  0.5881  1.2655
 4202TIP3    H234022   4.957   2.193   4.661 -1.1482 -0.2681  0.8522
 4203TIP3   OH234023   4.705   1.512  16.940  0.5034 -0.1007 -0.0098
 4203TIP3    H134024   4.715   1.552  17.027 -0.7383  1.2099 -0.4352
 4203TIP3    H234025   4.792   1.480  16.918  1.0008  0.2426  1.4039
 4204TIP3   OH234026   2.009   0.747  14.719 -0.3297 -0.5528  0.1181
 4204TIP3    H134027   2.042   0.678  14.662 -0.6138  0.9585 -1.9552
 4204TIP3    H234028   2.088   0.788  14.755 -0.0875 -0.5808 -0.3707
 4205TIP3   OH234029   4.909   6.692  12.241  0.2587 -0.3388  0.2103
 4205TIP3    H134030   4.883   6.780  12.267 -1.4517 -0.7580 -0.0302
 4205TIP3    H234031   5.003   6.699  12.222  0.2742  1.2694  0.8328
 4206TIP3   OH234032   2.991   6.631  16.063  0.4151 -0.1738  0.3768
 4206TIP3    H134033   2.903   6.664  16.045  0.4170 -0.3016  0.1322
 4206TIP3    H234034   2.989   6.604  16.154  0.0692 -0.6073  0.2416
 4207TIP3   OH234035   2.585   1.465   6.089 -0.0921 -0.6403 -0.0445
 4207TIP3    H134036   2.578   1.549   6.043 -0.0491 -0.9780 -0.6761
 4207TIP3    H234037   2.661   1.423   6.048 -1.4947 -1.9741 -1.3348
 4208TIP3   OH234038   1.998   0.130   5.841  0.7469  0.0805 -0.4287
 4208TIP3    H134039   2.072   0.186   5.862  1.7780 -1.3251 -0.2793
 4208TIP3    H234040   2.033   0.062   5.785 -0.4286 -0.5928 -0.3748
 4209TIP3   OH234041   5.014   2.391   1.689 -0.0770  0.2129  0.5084
 4209TIP3    H134042   5.001   2.483   1.709 -1.7362  0.3076 -0.8774
 4209TIP3    H234043   4.932   2.348   1.715  0.2483 -0.6743  0.1097
 4210TIP3   OH234044   6.423   1.692   0.086  0.3990  0.3889 -0.2274
 4210TIP3    H134045   6.510   1.712   0.053  0.6911 -0.8425 -0.2369
 4210TIP3    H234046   6.377   1.655   0.011 -0.6081  2.3643 -0.6087
 4211TIP3   OH234047   4.618   3.808  10.879  0.1871 -0.2403  0.2088
 4211TIP3    H134048   4.705   3.848  10.868  0.5442 -0.3186  2.6020
 4211TIP3    H234049   4.564   3.878  10.915 -0.9511  0.0052 -1.9071
 4212TIP3   OH234050   2.906   6.557   4.868 -0.3362  0.1379 -0.2240
 4212TIP3    H134051   2.830   6.572   4.812 -0.5281 -1.4517 -0.4215
 4212TIP3    H234052   2.874   6.499   4.937  0.6804 -0.5038 -0.2830
 4213TIP3   OH234053   4.913   6.290   4.802 -0.5058  0.3388  0.1270
 4213TIP3    H134054   4.890   6.198   4.813  3.1752 -0.7490 -0.3638
 4213TIP3    H234055   4.875   6.334   4.878 -0.2824 -2.0295  1.6674
 4214TIP3   OH234056   2.063   4.033  15.462  0.0731 -0.2872  0.3411
 4214TIP3    H134057   2.030   4.114  15.502 -0.8752 -0.6647  0.3422
 4214TIP3    H234058   2.085   4.058  15.373  1.9931  0.5096  1.0086
 4215TIP3   OH234059   6.297   1.405  12.749 -0.0848 -0.6146 -0.2058
 4215TIP3    H134060   6.337   1.443  12.827 -0.0900 -0.2400 -0.3865
 4215TIP3    H234061   6.370   1.373  12.698 -0.0035  0.2154 -0.6129
 4216TIP3   OH234062   0.181   1.689  15.229  0.1370  0.1317  0.2589
 4216TIP3    H134063   0.188   1.765  15.171  0.8102  1.7884  2.4378
 4216TIP3    H234064   0.088   1.668  15.230 -0.0153  0.7520 -0.5739
 4217TIP3   OH234065   2.406   2.868   4.579  0.3502  0.5853  0.3679
 4217TIP3    H134066   2.445   2.841   4.662 -0.8031  1.1837  1.1273
 4217TIP3    H234067   2.367   2.954   4.597  0.0527  0.7090 -0.7797
 4218TIP3   OH234068   1.679   3.499  12.736 -0.1209  0.3390 -0.0825
 4218TIP3    H134069   1.686   3.505  12.831  0.9962 -1.2498 -0.0469
 4218TIP3    H234070   1.594   3.457  12.721 -0.7871  1.5958  0.1739
 4219TIP3   OH234071   1.240   1.764  12.486  0.0080  0.1516  0.0140
 4219TIP3    H134072   1.181   1.733  12.418 -0.7768  1.3369  0.1456
 4219TIP3    H234073   1.306   1.815  12.439  0.4351 -0.4424 -0.0370
 4220TIP3   OH234074   4.684   4.969  11.857 -0.5893 -0.4908  0.0466
 4220TIP3    H134075   4.665   4.897  11.919  0.4610 -0.5475  0.3062
 4220TIP3    H234076   4.600   4.984  11.813 -0.8340 -1.8559  0.0125
 4221TIP3   OH234077   2.307   2.060  13.047 -0.4831  0.5760 -0.2591
 4221TIP3    H134078   2.329   2.113  12.971 -1.7189  1.9975  0.3615
 4221TIP3    H234079   2.219   2.089  13.073 -1.4253 -2.1626 -0.2472
 4222TIP3   OH234080   4.964   6.656  13.938 -0.2069 -0.1617  0.1021
 4222TIP3    H134081   4.886   6.603  13.952 -0.7398  1.1181  2.0910
 4222TIP3    H234082   5.015   6.646  14.018  2.2902 -1.9384 -1.6400
 4223TIP3   OH234083   2.262   4.025   5.769  0.3346  0.7846 -0.3956
 4223TIP3    H134084   2.326   4.034   5.699  0.5652  2.5849  0.0082
 4223TIP3    H234085   2.307   3.978   5.839  0.4705  0.0203 -0.9950
 4224TIP3   OH234086   3.997   3.763  15.935  0.1990  0.8044  0.3243
 4224TIP3    H134087   3.913   3.720  15.950  1.6419 -1.8221  1.1418
 4224TIP3    H234088   4.031   3.723  15.855  1.2018  0.9833  0.6454
 4225TIP3   OH234089   3.823   0.794  16.925  0.1563 -0.0469 -0.2101
 4225TIP3    H134090   3.732   0.795  16.895  0.4163 -0.2737 -1.0146
 4225TIP3    H234091   3.859   0.712  16.892 -0.0831 -1.2515  2.3737
 4226TIP3   OH234092   0.694   4.782  12.288 -0.1995 -0.1551  0.5815
 4226TIP3    H134093   0.683   4.737  12.372  0.7969  0.5623  1.1164
 4226TIP3    H234094   0.673   4.873  12.308  3.0943  0.6190  0.8396
 4227TIP3   OH234095   6.035   6.306   3.775  0.0722  0.2163 -0.8588
 4227TIP3    H134096   6.091   6.301   3.697  1.5185  0.7598  0.1187
 4227TIP3    H234097   5.966   6.368   3.752  0.9732  1.0152 -1.4107
 4228TIP3   OH234098   5.508   4.815  12.888  0.4114 -0.4173 -0.3306
 4228TIP3    H134099   5.416   4.838  12.901  0.3904  0.2279 -1.5415
 4228TIP3    H234100   5.556   4.896  12.907  0.6525 -0.4820 -0.6572
 4229TIP3   OH234101   6.759   2.324   0.444  0.0510  0.1770  0.1380
 4229TIP3    H134102   6.851   2.324   0.471 -0.4844 -0.0067  2.0002
 4229TIP3    H234103   6.742   2.415   0.418  0.2657  0.6194  1.5241
 4230TIP3   OH234104   5.798   2.622   3.857  0.1994  1.1049 -0.3891
 4230TIP3    H134105   5.722   2.607   3.801  0.8519  0.0648 -1.0255
 4230TIP3    H234106   5.823   2.713   3.839  0.4894  0.7371 -1.9307
 4231TIP3   OH234107   2.932   3.065   3.514 -0.0453  0.0301 -0.1995
 4231TIP3    H134108   2.852   3.116   3.503 -0.6087 -1.0201 -0.9800
 4231TIP3    H234109   2.985   3.084   3.436  0.9372  1.5341  0.8022
 4232TIP3   OH234110   3.946   0.496  12.172 -0.3016 -0.1472  0.5052
 4232TIP3    H134111   3.991   0.490  12.256 -0.5192  0.1977  0.6481
 4232TIP3    H234112   3.889   0.419  12.169  1.7367 -1.6409 -0.5326
 4233TIP3   OH234113   4.456   4.130   3.533 -0.2346 -0.1767  0.1772
 4233TIP3    H134114   4.531   4.123   3.473  1.2117  0.2986  1.8998
 4233TIP3    H234115   4.494   4.122   3.620 -2.2604 -0.3281  1.0734
 4234TIP3   OH234116   1.855   5.186   2.780  0.2986  0.0511  0.2249
 4234TIP3    H134117   1.862   5.272   2.739  2.5492 -0.5832 -0.7767
 4234TIP3    H234118   1.856   5.204   2.874 -0.6623  1.2071  0.0283
 4235TIP3   OH234119   2.278   2.358  12.515  0.2411  0.1604  0.1245
 4235TIP3    H134120   2.193   2.403  12.522  1.6302  3.1218 -1.3317
 4235TIP3    H234121   2.324   2.380  12.596 -0.5955 -2.0538  1.2527
 4236TIP3   OH234122   6.097   6.343  11.286 -0.4205  0.4360  0.6776
 4236TIP3    H134123   6.088   6.295  11.368 -1.9584 -1.6885 -0.6680
 4236TIP3    H234124   6.008   6.357  11.256  0.1457 -1.5192 -2.1174
 4237TIP3   OH234125   2.521   0.804   2.648  0.1303 -0.3395  0.1031
 4237TIP3    H134126   2.558   0.859   2.717 -0.5528 -0.2744  0.4150
 4237TIP3    H234127   2.569   0.831   2.569  0.7030 -0.2081  0.4928
 4238TIP3   OH234128   3.286   1.997   0.382 -0.0305  0.2844 -0.5090
 4238TIP3    H134129   3.371   1.959   0.359 -0.8075 -1.1764 -1.0375
 4238TIP3    H234130   3.251   2.028   0.299 -1.0582 -1.2982 -0.6783
 4239TIP3   OH234131   3.791   5.900  14.877 -0.6043 -0.2097 -0.3410
 4239TIP3    H134132   3.867   5.897  14.935 -0.2680  2.1466 -0.5996
 4239TIP3    H234133   3.718   5.871  14.931 -0.1596  1.1598  1.0375
 4240TIP3   OH234134   6.368   4.744  14.969 -0.7688  0.3302 -0.3314
 4240TIP3    H134135   6.348   4.790  14.888 -0.9403  0.4078 -0.2459
 4240TIP3    H234136   6.464   4.740  14.972 -0.5320  4.8543  1.9708
 4241TIP3   OH234137   3.667   3.722  13.521  0.0270  0.2688  0.0257
 4241TIP3    H134138   3.648   3.789  13.586 -1.1387 -1.0296  1.0391
 4241TIP3    H234139   3.610   3.649  13.544  0.4668 -0.6541 -1.7412
 4242TIP3   OH234140   0.046   1.240  16.469 -0.4109 -0.1574 -0.0602
 4242TIP3    H134141  -0.026   1.180  16.487 -1.0890  0.3497 -1.0194
 4242TIP3    H234142   0.059   1.234  16.374  0.0077  0.6615 -0.0595
 4243TIP3   OH234143   1.888   2.155  11.878  0.0481 -0.9770  0.1007
 4243TIP3    H134144   1.878   2.242  11.916 -1.7129 -2.1671  2.6083
 4243TIP3    H234145   1.817   2.148  11.815  0.1018 -0.6276  0.0052
 4244TIP3   OH234146   3.795   6.662  13.356  0.0621 -0.0636 -0.1217
 4244TIP3    H134147   3.723   6.652  13.294  1.8119  1.1778 -2.4120
 4244TIP3    H234148   3.875   6.654  13.303  1.6186  0.2344  2.0814
 4245TIP3   OH234149   5.129   4.676  13.322  0.1879 -0.3799  0.2342
 4245TIP3    H134150   5.131   4.630  13.407 -0.2370  0.0463  0.4748
 4245TIP3    H234151   5.082   4.617  13.264 -1.8822  0.4834  0.9776
 4246TIP3   OH234152   3.974   0.544   5.572  0.5203 -0.3812  0.0981
 4246TIP3    H134153   4.005   0.552   5.482 -1.0862  1.7791 -0.2930
 4246TIP3    H234154   3.903   0.480   5.567  1.2523 -1.1928  0.0474
 4247TIP3   OH234155   0.509   5.562   3.358 -0.1421  0.2842 -0.2411
 4247TIP3    H134156   0.543   5.582   3.445 -1.4052  0.7255  0.1516
 4247TIP3    H234157   0.478   5.472   3.364  2.7510 -0.8363 -1.1639
 4248TIP3   OH234158   4.748   4.379   0.544  0.2291  0.5934 -0.5257
 4248TIP3    H134159   4.678   4.419   0.493  1.0315  0.4591 -1.7341
 4248TIP3    H234160   4.752   4.433   0.624 -0.5474  1.2263 -0.9009
 4249TIP3   OH234161   2.923   6.653   2.955  0.0692  0.0628 -0.9641
 4249TIP3    H134162   3.011   6.634   2.921  1.4074  1.8964  1.2799
 4249TIP3    H234163   2.935   6.658   3.050 -1.7415  3.6173 -0.8325
 4250TIP3   OH234164   1.669   6.264   4.553  0.2028 -0.2947  0.3708
 4250TIP3    H134165   1.762   6.286   4.549  0.5791 -1.7116  1.1488
 4250TIP3    H234166   1.624   6.344   4.524  1.6943 -0.0617 -1.3536
 4251TIP3   OH234167   2.674   0.986   3.883  0.2329  0.0539  0.3404
 4251TIP3    H134168   2.667   0.899   3.921 -1.0184 -1.9547 -4.2025
 4251TIP3    H234169   2.765   1.012   3.898  0.5897 -2.0013  1.8199
 4252TIP3   OH234170   6.228   4.225  14.111 -0.6748  0.5276 -0.5238
 4252TIP3    H134171   6.262   4.310  14.083 -0.4636  0.5275 -0.2688
 4252TIP3    H234172   6.134   4.240  14.124 -0.7274  0.5927 -0.9781
 4253TIP3   OH234173   2.698   5.242  12.590 -0.3795  0.3190 -0.0137
 4253TIP3    H134174   2.620   5.293  12.611  0.1293  0.4753  1.5484
 4253TIP3    H234175   2.749   5.242  12.671 -0.8850 -3.6193  0.3618
 4254TIP3   OH234176   6.221   0.755  14.126  0.3631 -0.1810  0.4207
 4254TIP3    H134177   6.190   0.834  14.169  2.4140  0.8982 -0.0109
 4254TIP3    H234178   6.199   0.684  14.187 -0.4100  0.8619  1.3650
 4255TIP3   OH234179   2.547   2.945   1.432  0.4442 -0.3619  0.7471
 4255TIP3    H134180   2.517   3.035   1.439  2.4803  0.2396  2.2440
 4255TIP3    H234181   2.630   2.951   1.386  0.3900 -1.5369  0.4775
 4256TIP3   OH234182   3.187   2.592   1.053  0.3232 -0.7527  0.2857
 4256TIP3    H134183   3.255   2.631   0.998  0.0291  1.1418  1.2320
 4256TIP3    H234184   3.228   2.514   1.090  1.3158 -0.7211 -0.7087
 4257TIP3   OH234185   2.724   2.509   2.039 -0.0090  0.5328  0.2509
 4257TIP3    H134186   2.711   2.418   2.064  1.2718 -0.2749 -1.8669
 4257TIP3    H234187   2.733   2.556   2.122  1.7404 -1.6439  1.3632
 4258TIP3   OH234188   4.388   6.637  14.461 -0.0650  0.0337  0.3989
 4258TIP3    H134189   4.366   6.552  14.500 -1.0948 -0.9302 -2.2090
 4258TIP3    H234190   4.451   6.616  14.392  0.6627  1.5614  0.5715
 4259TIP3   OH234191   5.818   6.672  11.826 -0.5322 -0.4182 -0.6307
 4259TIP3    H134192   5.736   6.659  11.873 -1.3853  0.7873 -1.7258
 4259TIP3    H234193   5.829   6.767  11.823  0.9316 -0.5666 -0.4637
 4260TIP3   OH234194   0.033   4.611  10.846  0.0587 -0.6081  0.1068
 4260TIP3    H134195   0.026   4.653  10.932 -1.0861 -2.1609  0.7905
 4260TIP3    H234196   0.024   4.683  10.784  0.0053  0.4162  1.2742
 4261TIP3   OH234197   2.051   3.889   1.336  0.3807 -0.3295  0.6137
 4261TIP3    H134198   2.027   3.980   1.353  2.4787  0.4522 -0.4997
 4261TIP3    H234199   2.146   3.888   1.340  0.4062 -2.3216 -0.1500
 4262TIP3   OH234200   4.363   1.659  12.201  0.9781 -0.7688 -0.0613
 4262TIP3    H134201   4.308   1.658  12.122  1.0464  1.0313 -0.1546
 4262TIP3    H234202   4.405   1.745  12.200 -0.3136 -0.0577  2.8568
 4263TIP3   OH234203   6.031   4.082   3.563  0.0783  0.4013 -0.3229
 4263TIP3    H134204   6.043   4.165   3.610 -2.5170 -0.0205  1.1593
 4263TIP3    H234205   6.094   4.023   3.604 -0.0901  0.8525  0.6114
 4264TIP3   OH234206   3.355   2.343  16.958 -0.3729  0.4620  0.1370
 4264TIP3    H134207   3.346   2.427  17.004 -0.3508  0.8640 -0.5913
 4264TIP3    H234208   3.385   2.366  16.871  1.6028 -0.4529  0.5402
 4265TIP3   OH234209   4.778   5.119   1.235 -0.5166 -0.6274 -0.1351
 4265TIP3    H134210   4.722   5.091   1.307 -0.7305 -1.2223 -0.5278
 4265TIP3    H234211   4.795   5.212   1.252 -0.6846 -0.7345  0.5969
 4266TIP3   OH234212   3.034   5.391   2.590  0.2397  0.6023  0.2741
 4266TIP3    H134213   3.012   5.333   2.663 -0.2840 -0.4478 -0.7070
 4266TIP3    H234214   2.950   5.417   2.553  0.5095  0.8819 -0.1529
 4267TIP3   OH234215   2.541   2.160   3.386 -0.2712 -0.4232 -0.0342
 4267TIP3    H134216   2.566   2.231   3.446 -4.7021 -0.3148  1.8853
 4267TIP3    H234217   2.503   2.093   3.442 -0.3797 -2.3352 -2.3068
 4268TIP3   OH234218   4.080   1.364  12.590 -0.5635 -0.3489 -0.3309
 4268TIP3    H134219   4.111   1.453  12.575  1.2466 -0.9428 -0.2154
 4268TIP3    H234220   4.055   1.362  12.682  0.1193 -0.1784 -0.1406
 4269TIP3   OH234221   5.907   0.027  11.384  0.1432  0.6455  0.3521
 4269TIP3    H134222   5.924   0.112  11.344  0.0144  1.4285  1.8998
 4269TIP3    H234223   5.821   0.037  11.425 -0.0090 -0.3324  0.2837
 4270TIP3   OH234224   2.509   3.332  17.089  0.3098 -0.1603 -0.5671
 4270TIP3    H134225   2.440   3.371  17.036  0.1036  0.1491 -0.0805
 4270TIP3    H234226   2.492   3.238  17.086  0.4531 -0.1621 -1.2548
 4271TIP3   OH234227   4.905   5.579   3.749 -0.2122  0.2176 -0.3622
 4271TIP3    H134228   4.854   5.532   3.683 -0.7184 -0.1378  0.2792
 4271TIP3    H234229   4.910   5.669   3.716 -1.0100  0.1872 -0.5742
 4272TIP3   OH234230   6.591   3.183  12.711  0.1554  0.0471 -0.1832
 4272TIP3    H134231   6.614   3.266  12.753  1.8855 -0.4581 -0.0990
 4272TIP3    H234232   6.500   3.195  12.683 -0.2153  1.3006  1.4541
 4273TIP3   OH234233   2.362   3.005  13.840  0.4691  0.7209  0.7698
 4273TIP3    H134234   2.311   2.946  13.896 -0.6383 -0.5770 -1.5225
 4273TIP3    H234235   2.311   3.010  13.759  2.5351  1.7587 -0.4961
 4274TIP3   OH234236   0.426   0.418  15.210  0.4958  0.5791 -0.3479
 4274TIP3    H134237   0.452   0.394  15.121 -1.7022 -1.3376 -0.5213
 4274TIP3    H234238   0.340   0.378  15.221 -0.3570  2.9194  1.7795
 4275TIP3   OH234239   4.655   0.644   2.270  0.5491  0.1458 -0.3903
 4275TIP3    H134240   4.708   0.650   2.190 -0.6067  2.1737 -1.0519
 4275TIP3    H234241   4.568   0.675   2.243 -0.2367 -0.5270  1.3263
 4276TIP3   OH234242   3.903   6.107  16.247 -0.0260 -0.1194 -0.0714
 4276TIP3    H134243   3.922   6.069  16.161 -0.2693 -0.0893 -0.1411
 4276TIP3    H234244   3.976   6.081  16.302 -0.4117 -1.0730  0.0016
 4277TIP3   OH234245   1.436   4.802   5.633 -0.3597 -0.0694 -0.5878
 4277TIP3    H134246   1.344   4.828   5.636 -0.3178  0.3201 -2.0116
 4277TIP3    H234247   1.437   4.710   5.660 -0.8038  0.7041  2.2109
 4278TIP3   OH234248   6.087   6.247  12.310 -0.1679 -0.0952  0.3155
 4278TIP3    H134249   6.085   6.269  12.403 -0.7601  0.9919  0.0550
 4278TIP3    H234250   6.019   6.180  12.299 -0.0757 -0.2478  0.6589
 4279TIP3   OH234251   0.720   5.393   0.404 -0.0007  0.4387  0.3415
 4279TIP3    H134252   0.700   5.365   0.314  0.8639  0.2091  0.2110
 4279TIP3    H234253   0.678   5.479   0.412  1.4686  1.3124 -0.9253
 4280TIP3   OH234254   3.619   5.419   0.566 -0.2361  0.0536  0.4251
 4280TIP3    H134255   3.645   5.337   0.608  0.4343 -0.6559 -1.3079
 4280TIP3    H234256   3.527   5.405   0.543 -1.0413  1.0224  2.9702
 4281TIP3   OH234257   2.101   4.705  16.407 -0.2163 -0.4630  0.6224
 4281TIP3    H134258   2.043   4.703  16.331 -0.5542  0.5441  0.8414
 4281TIP3    H234259   2.042   4.689  16.482 -0.4314  1.7008  0.9525
 4282TIP3   OH234260   4.663   1.056  13.054  0.1732  0.2338 -0.1780
 4282TIP3    H134261   4.581   1.047  13.005 -0.2789  0.0142  0.6067
 4282TIP3    H234262   4.711   0.976  13.035  1.0503  1.1878 -2.1576
 4283TIP3   OH234263   0.207   5.011   4.545  0.0923 -0.6152 -0.1686
 4283TIP3    H134264   0.281   4.951   4.546 -0.9544 -1.9392 -0.1076
 4283TIP3    H234265   0.162   4.995   4.627 -1.4039 -1.2938 -1.1018
 4284TIP3   OH234266   3.168   6.099  12.715  0.3249  0.6863 -0.0529
 4284TIP3    H134267   3.100   6.117  12.650  0.7180 -0.4563 -0.8015
 4284TIP3    H234268   3.141   6.148  12.792 -1.4209  0.1645 -0.3068
 4285TIP3   OH234269   2.724   1.053  16.598 -0.0383  0.5675 -0.0930
 4285TIP3    H134270   2.646   1.033  16.650  1.8640 -0.1982  2.5417
 4285TIP3    H234271   2.762   0.967  16.579  1.9802  1.0552  1.5558
 4286TIP3   OH234272   4.147   5.833  11.404  0.6193  1.1392  0.7535
 4286TIP3    H134273   4.229   5.867  11.441  0.9527  2.1764 -0.8761
 4286TIP3    H234274   4.117   5.903  11.346  1.2323 -1.2839 -2.6195
 4287TIP3   OH234275   3.795   4.168   6.238 -0.3265  0.0730 -0.6087
 4287TIP3    H134276   3.888   4.169   6.215  0.0538  2.2785  0.9547
 4287TIP3    H234277   3.777   4.076   6.259  1.9473 -0.0793  0.8616
 4288TIP3   OH234278   4.817   2.897  13.599 -0.2581  0.2075  0.5760
 4288TIP3    H134279   4.809   2.931  13.688 -1.3413  1.3957  0.0513
 4288TIP3    H234280   4.866   2.965  13.552 -0.8290  0.1889 -0.0468
 4289TIP3   OH234281   1.175   2.634  15.332  0.2787  0.0160  0.0540
 4289TIP3    H134282   1.223   2.683  15.265  2.3801 -1.1740  0.6381
 4289TIP3    H234283   1.101   2.597  15.286  1.1806 -0.0036 -1.4113
 4290TIP3   OH234284   5.423   2.304   4.112  0.4615  0.0075  0.0793
 4290TIP3    H134285   5.441   2.367   4.182  1.7733  1.2385 -1.3260
 4290TIP3    H234286   5.452   2.348   4.032 -0.8676 -1.4289 -1.2394
 4291TIP3   OH234287   4.813   1.677  11.411 -0.4155  0.3706  0.1294
 4291TIP3    H134288   4.766   1.599  11.440 -1.7509  1.2454  0.3367
 4291TIP3    H234289   4.902   1.646  11.392 -0.3809 -0.8068  2.1445
 4292TIP3   OH234290   2.223   5.650   4.321  0.4471  0.5225  0.1520
 4292TIP3    H134291   2.271   5.597   4.385  0.6676  0.6992  0.1333
 4292TIP3    H234292   2.269   5.637   4.239  0.4609  0.6861  0.1321
 4293TIP3   OH234293   5.814   1.714  15.462  0.0558  0.0541  0.0385
 4293TIP3    H134294   5.795   1.706  15.555 -0.0823 -0.0188  0.0024
 4293TIP3    H234295   5.731   1.697  15.418 -0.2067  1.4893 -0.0479
 4294TIP3   OH234296   5.662   0.944   1.827 -0.1720  0.3936 -0.0162
 4294TIP3    H134297   5.670   0.959   1.921 -1.0338  0.0907  0.1114
 4294TIP3    H234298   5.601   1.012   1.797  0.2419  0.6010 -0.3839
 4295TIP3   OH234299   3.124   4.492   5.694 -0.4013 -0.3411 -0.4849
 4295TIP3    H134300   3.064   4.567   5.690 -0.5915 -0.4905 -0.4895
 4295TIP3    H234301   3.183   4.512   5.766 -1.4225 -0.8924  0.5288
 4296TIP3   OH234302   4.048   4.840   2.814 -0.1154 -0.4563 -0.3412
 4296TIP3    H134303   3.996   4.920   2.812 -1.2202 -1.1677 -1.0177
 4296TIP3    H234304   4.136   4.868   2.789 -0.1326  0.7759  0.9050
 4297TIP3   OH234305   2.213   1.732   4.539  0.6066  0.6875  0.2969
 4297TIP3    H134306   2.148   1.720   4.609 -0.2872 -0.6003 -0.7100
 4297TIP3    H234307   2.273   1.658   4.549 -0.6316 -0.6125 -1.4184
 4298TIP3   OH234308   3.717   3.729   4.252 -0.1960 -0.1716  0.2241
 4298TIP3    H134309   3.755   3.752   4.337  0.1944  0.3472 -0.0903
 4298TIP3    H234310   3.680   3.811   4.219 -0.1050 -0.3120 -0.2350
 4299TIP3   OH234311   0.612   3.912  13.707 -0.0036 -0.2015 -0.3438
 4299TIP3    H134312   0.669   3.950  13.774  1.2917  0.0783 -1.5879
 4299TIP3    H234313   0.669   3.854  13.657 -1.0369 -0.6521 -1.0220
 4300TIP3   OH234314   6.233   2.813   6.195  0.6524 -0.1505  0.0119
 4300TIP3    H134315   6.160   2.765   6.234  1.6381 -0.4556  1.5202
 4300TIP3    H234316   6.219   2.904   6.222  0.3035 -0.0364 -0.5347
 4301TIP3   OH234317   3.072   0.178  11.001  0.4932 -0.4088 -0.0021
 4301TIP3    H134318   3.056   0.258  10.951  0.8242  0.0615  0.6452
 4301TIP3    H234319   3.128   0.205  11.074 -1.9087 -0.5944  1.9919
 4302TIP3   OH234320   3.533   3.862  10.655  0.3846 -0.1034 -1.2383
 4302TIP3    H134321   3.557   3.798  10.721  2.2647  0.0215 -1.7534
 4302TIP3    H234322   3.472   3.816  10.597 -0.6645 -0.4446  0.1432
 4303TIP3   OH234323   3.582   5.116  15.523  0.2499 -0.3994  0.2777
 4303TIP3    H134324   3.561   5.036  15.572 -1.6651  0.4579  0.9101
 4303TIP3    H234325   3.645   5.162  15.578  2.2417 -1.9806 -0.6116
 4304TIP3   OH234326   3.157   5.025  16.649 -0.2170  0.1317 -0.8028
 4304TIP3    H134327   3.084   4.968  16.623  0.3042 -0.5001 -0.9043
 4304TIP3    H234328   3.180   5.072  16.568 -0.9192  0.8025 -0.6146
 4305TIP3   OH234329   3.572   0.512  16.295  0.0822  0.4489  0.2753
 4305TIP3    H134330   3.583   0.602  16.325  1.3676  0.1410  0.7469
 4305TIP3    H234331   3.499   0.516  16.232  0.5987  1.9256 -0.2304
 4306TIP3   OH234332   3.791   0.186   1.978 -0.2132 -0.2125  0.2671
 4306TIP3    H134333   3.760   0.106   1.935 -1.0078  0.7174 -0.9249
 4306TIP3    H234334   3.881   0.195   1.949  0.6570 -1.9248  2.2782
 4307TIP3   OH234335   4.792   6.512  11.680 -0.2294  0.1249 -1.0576
 4307TIP3    H134336   4.791   6.432  11.627  1.8134 -0.9438  0.4411
 4307TIP3    H234337   4.796   6.481  11.771 -1.3315  1.9326 -0.3673
 4308TIP3   OH234338   4.029   1.470  11.123  0.0604 -0.1111  0.6262
 4308TIP3    H134339   4.034   1.450  11.217  3.1545 -0.6754  0.4170
 4308TIP3    H234340   4.109   1.431  11.087 -1.9824 -1.4883 -2.5660
 4309TIP3   OH234341   0.557   6.105  13.168  0.0539  0.7843 -0.5344
 4309TIP3    H134342   0.559   6.015  13.135 -2.2640  0.3633  0.3702
 4309TIP3    H234343   0.588   6.158  13.096 -1.5026 -0.4700 -2.1692
 4310TIP3   OH234344   5.614   4.400   3.517 -0.2480 -0.1528  0.8870
 4310TIP3    H134345   5.668   4.322   3.505  0.2526 -0.0546  2.3544
 4310TIP3    H234346   5.580   4.391   3.606 -1.5303  0.4830  0.4713
 4311TIP3   OH234347   4.985   3.603  12.690 -0.5119  0.2067 -0.1878
 4311TIP3    H134348   4.934   3.526  12.661  0.1299 -0.2052 -0.2274
 4311TIP3    H234349   4.919   3.665  12.720 -1.0764 -0.1336 -0.7024
 4312TIP3   OH234350   1.212   6.230  12.073 -0.0273 -0.1381 -0.0040
 4312TIP3    H134351   1.288   6.257  12.123 -0.4774 -2.5004  2.0164
 4312TIP3    H234352   1.241   6.154  12.023 -0.4907  0.2071 -0.8151
 4313TIP3   OH234353   3.862   5.500  14.002 -0.1010 -0.1428 -0.5153
 4313TIP3    H134354   3.949   5.525  14.033 -2.0084  1.2515  4.0602
 4313TIP3    H234355   3.846   5.414  14.041 -1.0549 -0.1092 -0.8048
 4314TIP3   OH234356   4.122   4.898  15.614  0.0173 -0.2138  0.1875
 4314TIP3    H134357   4.123   4.841  15.690  0.2324 -3.1888 -1.9419
 4314TIP3    H234358   4.208   4.886  15.574 -0.6413  0.0890 -1.3661
 4315TIP3   OH234359   2.806   4.674   5.200  0.7384  0.2517 -0.1263
 4315TIP3    H134360   2.817   4.667   5.105  0.5192 -0.3958 -0.1078
 4315TIP3    H234361   2.847   4.758   5.223 -0.7254  1.2489 -1.0303
 4316TIP3   OH234362   3.602   4.091  14.964  0.0639 -0.2262  0.1518
 4316TIP3    H134363   3.507   4.095  14.952  0.1214 -1.1982 -0.7652
 4316TIP3    H234364   3.617   4.002  14.996  0.6091  0.1560  0.9810
 4317TIP3   OH234365   3.947   3.497   1.901  0.4950  0.4766  0.0599
 4317TIP3    H134366   3.891   3.478   1.976 -0.5459  0.7994 -0.6305
 4317TIP3    H234367   3.942   3.592   1.891 -0.5539  0.2808 -1.3405
 4318TIP3   OH234368   6.655   6.297   3.644 -0.1936 -0.1046 -0.2572
 4318TIP3    H134369   6.627   6.308   3.734  2.1830  1.5359  0.3114
 4318TIP3    H234370   6.653   6.384   3.606 -0.4421 -0.6634 -1.5734
 4319TIP3   OH234371   0.004   0.280  16.905 -0.1508  0.1149  0.5124
 4319TIP3    H134372  -0.021   0.356  16.852  0.8733  1.1724  1.5142
 4319TIP3    H234373   0.100   0.284  16.908 -0.2272  0.7101  3.3335
 4320TIP3   OH234374   4.718   1.520   2.437  0.2599 -0.2265  0.4463
 4320TIP3    H134375   4.628   1.544   2.413  0.5455  1.0141  0.5918
 4320TIP3    H234376   4.709   1.436   2.482 -1.0089  0.6483  1.8667
 4321TIP3   OH234377   2.585   5.544   6.034  0.0409 -0.3339  0.1403
 4321TIP3    H134378   2.601   5.636   6.055  1.6548 -0.7469  0.7638
 4321TIP3    H234379   2.496   5.528   6.064  0.5429  0.4361  2.1131
 4322TIP3   OH234380   3.956   5.184  13.392 -0.2423  0.1948 -0.0554
 4322TIP3    H134381   3.899   5.191  13.469 -0.0785  2.0512 -0.0887
 4322TIP3    H234382   3.909   5.124  13.333 -1.3774  0.4165  0.6088
 4323TIP3   OH234383   1.956   4.139   5.199  0.0828  0.1777  0.0963
 4323TIP3    H134384   1.861   4.149   5.213  0.3082  0.7650  1.2544
 4323TIP3    H234385   1.996   4.180   5.276  1.2710 -0.5999 -0.0991
 4324TIP3   OH234386   6.737   6.364   4.052 -0.0833 -0.2163  0.4555
 4324TIP3    H134387   6.690   6.348   4.134  3.4211  0.7657  2.7261
 4324TIP3    H234388   6.786   6.283   4.037  1.6469  0.7221  0.9748
 4325TIP3   OH234389   2.108   4.510   1.889  1.1861 -0.5518  0.8479
 4325TIP3    H134390   2.203   4.499   1.888  1.0981 -1.3387 -2.3718
 4325TIP3    H234391   2.082   4.486   1.978  4.1016  0.8901  2.1743
 4326TIP3   OH234392   4.538   3.254   3.325 -0.2733  0.2748  0.4236
 4326TIP3    H134393   4.472   3.255   3.395  0.3541  1.2623  0.9969
 4326TIP3    H234394   4.558   3.346   3.309  0.4357  0.0031 -0.2699
 4327TIP3   OH234395   2.584   3.063   3.041 -0.1209 -0.8014 -0.1792
 4327TIP3    H134396   2.565   2.970   3.049 -0.5615 -0.6365  0.6856
 4327TIP3    H234397   2.663   3.067   2.987 -0.1496 -1.6672 -0.2841
 4328TIP3   OH234398   6.015   4.927   1.685  0.3582 -0.1403 -0.6001
 4328TIP3    H134399   6.009   4.972   1.770 -0.3956 -0.5470 -0.4339
 4328TIP3    H234400   6.108   4.914   1.671  0.5411  0.7686 -0.2684
 4329TIP3   OH234401   1.804   3.453   3.791 -0.2429 -0.3646 -0.4959
 4329TIP3    H134402   1.786   3.469   3.884 -0.7687 -2.1128 -0.2901
 4329TIP3    H234403   1.782   3.536   3.748  0.1521  0.5126  0.9396
 4330TIP3   OH234404   6.312   3.556  12.021 -0.2001  0.2394 -0.1856
 4330TIP3    H134405   6.318   3.548  11.925  0.3322 -0.3052 -0.1067
 4330TIP3    H234406   6.401   3.541  12.052 -0.2112  1.2417  0.3449
 4331TIP3   OH234407   1.850   5.328  13.914  0.0527 -0.1926 -0.0494
 4331TIP3    H134408   1.834   5.346  14.007  2.4252  0.1684  0.3251
 4331TIP3    H234409   1.926   5.381  13.892 -1.6041  1.1782 -2.7230
 4332TIP3   OH234410   5.644   4.624  14.790 -0.3081 -0.2325  0.2175
 4332TIP3    H134411   5.558   4.665  14.780 -1.1707 -1.8940  0.8210
 4332TIP3    H234412   5.681   4.664  14.868 -1.8620 -1.8286  1.7964
 4333TIP3   OH234413   1.596   1.978  14.862  0.1432 -0.1483 -0.2628
 4333TIP3    H134414   1.582   1.886  14.883 -1.2685  0.3186  0.9701
 4333TIP3    H234415   1.582   1.984  14.768 -1.2560 -0.9659 -0.1306
 4334TIP3   OH234416   1.323   4.021  16.714 -0.1142  0.4713  0.2504
 4334TIP3    H134417   1.362   4.046  16.630 -0.2366  1.2611  0.4312
 4334TIP3    H234418   1.388   3.962  16.753  1.6807  3.0493  1.2913
 4335TIP3   OH234419   3.048   4.338   2.577 -0.3106 -0.7975 -0.0735
 4335TIP3    H134420   3.108   4.265   2.560 -1.2860 -1.0669 -2.4923
 4335TIP3    H234421   2.962   4.305   2.551 -0.5481  1.6645 -2.5522
 4336TIP3   OH234422   2.781   1.991  14.651 -0.0026 -0.1570  0.1451
 4336TIP3    H134423   2.837   2.049  14.704  1.8068 -1.1155 -0.6768
 4336TIP3    H234424   2.709   1.968  14.710  1.0370  0.2149  1.6185
 4337TIP3   OH234425   3.037   2.076   3.713  0.1378 -0.6737 -0.6558
 4337TIP3    H134426   2.964   2.131   3.741  1.6156  0.2708  1.4476
 4337TIP3    H234427   3.001   1.987   3.712 -1.0711 -0.2002  0.2066
 4338TIP3   OH234428   4.787   4.643  13.560  0.0831 -0.1870  0.0891
 4338TIP3    H134429   4.713   4.585  13.578 -0.0518 -0.5363 -1.5548
 4338TIP3    H234430   4.843   4.635  13.637  0.8793 -3.7671 -0.8014
 4339TIP3   OH234431   1.630   1.177  12.345 -0.2703 -0.2523 -0.6548
 4339TIP3    H134432   1.535   1.177  12.332 -0.4441 -0.5261  0.5705
 4339TIP3    H234433   1.666   1.181  12.257 -1.4239  1.5439 -1.0552
 4340TIP3   OH234434   6.699   0.150   5.978 -0.0076 -0.2431  0.1153
 4340TIP3    H134435   6.721   0.057   5.982  1.8727  0.1732  0.0890
 4340TIP3    H234436   6.781   0.192   5.952  0.0965  1.7467  3.4305
 4341TIP3   OH234437   0.224   1.384  13.528  0.3209  0.9085  0.1186
 4341TIP3    H134438   0.164   1.379  13.602  1.1782  0.3568  0.7947
 4341TIP3    H234439   0.244   1.293  13.507  1.3573  1.0945  0.2713
 4342TIP3   OH234440   0.494   0.355  14.022  0.3411 -0.4204  0.2171
 4342TIP3    H134441   0.519   0.446  14.038  0.2585  0.0402 -2.1453
 4342TIP3    H234442   0.559   0.322  13.961 -2.1930 -0.5322 -2.5120
 4343TIP3   OH234443   1.024   1.182   1.544  0.3168 -0.5291 -0.1282
 4343TIP3    H134444   1.033   1.113   1.609 -0.8115  0.1939  0.8100
 4343TIP3    H234445   1.030   1.264   1.593 -0.9131  0.0199 -0.8585
 4344TIP3   OH234446   2.128   0.635  13.301  0.8119  0.9478 -0.1256
 4344TIP3    H134447   2.165   0.651  13.387  0.7848  0.1132  0.0493
 4344TIP3    H234448   2.057   0.699  13.292  1.0306  1.2529  0.3346
 4345TIP3   OH234449   0.945   6.774  14.540 -0.3005 -0.1868 -0.2420
 4345TIP3    H134450   0.911   6.773  14.630  0.1484 -0.6993 -0.0680
 4345TIP3    H234451   0.872   6.805  14.487 -0.4631  0.4558  0.3447
 4346TIP3   OH234452   2.059   5.591  17.140  0.1213  0.1113  0.2115
 4346TIP3    H134453   2.138   5.563  17.186 -0.3164  0.0266  0.9208
 4346TIP3    H234454   2.090   5.616  17.053  1.1869  1.5806  0.9767
 4347TIP3   OH234455   2.062   1.837   5.368  0.9846 -0.8103 -0.1100
 4347TIP3    H134456   2.076   1.871   5.279  0.0600 -1.9712 -0.7190
 4347TIP3    H234457   2.078   1.912   5.425  0.4150  0.2779 -1.3437
 4348TIP3   OH234458   0.269   5.842  15.723 -0.1210  0.5676 -0.6735
 4348TIP3    H134459   0.197   5.802  15.674 -0.6783 -0.5770  1.0283
 4348TIP3    H234460   0.238   5.931  15.742 -0.2339  0.7498 -1.7016
 4349TIP3   OH234461   5.825   6.441   0.403  0.2590  0.0884 -0.6710
 4349TIP3    H134462   5.747   6.457   0.350  0.3391  0.8449 -0.5682
 4349TIP3    H234463   5.897   6.478   0.351  0.6977 -1.5853 -1.2701
 4350TIP3   OH234464   0.426   6.762  15.748  0.1689 -0.1360 -0.3870
 4350TIP3    H134465   0.367   6.809  15.807 -1.0438  1.9292 -3.1304
 4350TIP3    H234466   0.495   6.825  15.728  1.3673 -1.3233 -0.0302
 4351TIP3   OH234467   0.295   4.492   1.097  0.4613 -0.3465 -0.0819
 4351TIP3    H134468   0.334   4.557   1.156  0.2125 -1.8300  1.7641
 4351TIP3    H234469   0.214   4.532   1.067  0.9500  0.7228 -0.0113
 4352TIP3   OH234470   3.010   4.762  11.539 -0.9852  0.4880 -0.5581
 4352TIP3    H134471   2.921   4.746  11.573 -0.7198 -0.3997 -0.2670
 4352TIP3    H234472   3.059   4.683  11.562 -0.3060  0.6660 -1.3719
 4353TIP3   OH234473   5.102   0.083  13.826 -0.7396 -0.2244 -0.0670
 4353TIP3    H134474   5.035   0.033  13.873 -1.1130 -0.4063 -0.7850
 4353TIP3    H234475   5.113   0.036  13.743 -0.2864  0.2507 -0.2773
 4354TIP3   OH234476   5.710   6.083   4.800  0.3917  0.1309 -0.0736
 4354TIP3    H134477   5.696   6.050   4.711 -0.0512  1.3945 -0.4793
 4354TIP3    H234478   5.694   6.177   4.794  1.3646  0.3879  1.1369
 4355TIP3   OH234479   2.153   3.792   5.623 -0.1564  0.5097 -0.0458
 4355TIP3    H134480   2.166   3.778   5.529  0.3647  1.2342 -0.0799
 4355TIP3    H234481   2.186   3.880   5.639  0.1003  0.2449  0.8899
 4356TIP3   OH234482   4.951   6.754  16.096  0.4481  0.1610  0.0308
 4356TIP3    H134483   4.869   6.796  16.122 -0.4634 -1.5177 -0.0895
 4356TIP3    H234484   4.956   6.765  16.001 -0.4433 -1.1525 -0.1691
 4357TIP3   OH234485   0.030   2.692   1.293 -0.0061 -0.0844 -0.0434
 4357TIP3    H134486   0.124   2.693   1.310 -0.3021  0.0879  1.7095
 4357TIP3    H234487   0.021   2.652   1.207  1.7620  1.1687 -0.8448
 4358TIP3   OH234488   3.553   0.345  13.731  0.3334 -0.3717  0.2980
 4358TIP3    H134489   3.573   0.420  13.786  0.1937 -0.0770 -0.0526
 4358TIP3    H234490   3.633   0.331  13.680  0.1539 -0.0922 -0.0616
 4359TIP3   OH234491   6.178   3.257  10.721 -0.0397 -0.1678 -0.3160
 4359TIP3    H134492   6.156   3.177  10.769 -0.7680  0.7659  0.9246
 4359TIP3    H234493   6.237   3.304  10.779  0.4480  0.1717 -1.0819
 4360TIP3   OH234494   2.830   5.035  17.044  0.4083 -0.0116 -0.9221
 4360TIP3    H134495   2.798   5.074  16.962  0.8071  0.1442 -1.0033
 4360TIP3    H234496   2.851   4.945  17.021 -0.0923 -0.1504 -0.8382
 4361TIP3   OH234497   3.280   4.793   6.633 -0.1934  0.4359 -0.0273
 4361TIP3    H134498   3.245   4.798   6.545 -0.8177 -0.2540  0.1812
 4361TIP3    H234499   3.226   4.853   6.685 -1.1834 -0.7632  0.3318
 4362TIP3   OH234500   6.175   2.461   1.552  0.5920  0.6265 -0.1656
 4362TIP3    H134501   6.256   2.506   1.528  0.0750  2.4988  1.4360
 4362TIP3    H234502   6.182   2.448   1.647 -0.7982  0.4727 -0.0727
 4363TIP3   OH234503   4.526   2.215   0.639  0.4241 -0.0395  0.3567
 4363TIP3    H134504   4.482   2.169   0.711 -1.1327  1.6835  0.5350
 4363TIP3    H234505   4.517   2.156   0.564 -0.0151 -0.7984  0.9975
 4364TIP3   OH234506   0.795   1.203   4.879  0.4396 -0.0273  0.0469
 4364TIP3    H134507   0.758   1.226   4.794  0.9149  0.6383  0.0157
 4364TIP3    H234508   0.889   1.196   4.864  1.0691  4.0194  1.2762
 4365TIP3   OH234509   4.233   0.326  15.318  0.0816 -0.9000 -0.0274
 4365TIP3    H134510   4.182   0.246  15.330 -0.4338 -0.8651 -1.7939
 4365TIP3    H234511   4.191   0.390  15.376 -2.9893 -0.4190 -2.6059
 4366TIP3   OH234512   2.845   0.431  17.194 -0.1202 -0.4564  0.9006
 4366TIP3    H134513   2.752   0.454  17.191 -0.1083 -0.4281  0.7010
 4366TIP3    H234514   2.864   0.420  17.287 -0.5320 -1.2887  0.8980
 4367TIP3   OH234515   3.421   4.461   5.580 -0.2357 -0.0049 -0.4287
 4367TIP3    H134516   3.334   4.455   5.542 -1.3372  0.8605  1.8406
 4367TIP3    H234517   3.413   4.420   5.666  1.3882  0.7903  0.1381
 4368TIP3   OH234518   6.533   5.960   1.879  0.0549 -0.1960 -0.9886
 4368TIP3    H134519   6.577   5.961   1.964  0.3578 -0.4903 -1.1401
 4368TIP3    H234520   6.483   5.878   1.879 -0.8130  0.3280 -0.6565
 4369TIP3   OH234521   0.995   1.625   3.678 -0.0330  0.7774  0.2894
 4369TIP3    H134522   0.926   1.618   3.612 -0.7467 -1.6647  1.2193
 4369TIP3    H234523   0.977   1.552   3.739  3.1798  0.2643  0.7002
 4370TIP3   OH234524   6.453   6.150   2.256 -0.0600 -0.3539 -0.1403
 4370TIP3    H134525   6.426   6.068   2.298 -1.5341 -1.1024 -2.4513
 4370TIP3    H234526   6.546   6.159   2.278  0.1239 -2.6411  0.1548
 4371TIP3   OH234527   1.863   0.070   1.946 -0.2495  0.6425 -0.0971
 4371TIP3    H134528   1.848   0.142   2.007 -1.1245  1.2119 -0.9723
 4371TIP3    H234529   1.824  -0.006   1.989  1.3413  0.5173  1.1702
 4372TIP3   OH234530   6.089   3.139  14.520  0.6427  0.3687  0.1329
 4372TIP3    H134531   6.033   3.066  14.492 -0.6407  1.0354  0.9091
 4372TIP3    H234532   6.121   3.112  14.606  0.8697  0.3383  0.0379
 4373TIP3   OH234533   1.555   0.173   2.860  0.6023 -0.1695 -0.2065
 4373TIP3    H134534   1.612   0.238   2.818  0.7674 -0.6024 -0.6732
 4373TIP3    H234535   1.529   0.213   2.943  1.3672  0.1534 -0.1133
 4374TIP3   OH234536   6.588   4.261  14.082  0.2064  0.1231 -0.1581
 4374TIP3    H134537   6.540   4.284  14.162  1.0784  1.9621 -0.1515
 4374TIP3    H234538   6.674   4.232  14.114  0.0144 -0.6628 -0.3402
 4375TIP3   OH234539   6.730   2.086  12.051 -0.3540  0.3594 -0.0366
 4375TIP3    H134540   6.765   2.071  12.139  0.9480  2.3991 -0.1671
 4375TIP3    H234541   6.807   2.081  11.994 -0.7373  1.7657 -0.7085
 4376TIP3   OH234542   4.530   1.604   5.437 -0.5915  0.4266 -0.3019
 4376TIP3    H134543   4.501   1.611   5.346  0.7464  1.7423 -0.6396
 4376TIP3    H234544   4.450   1.614   5.488 -1.5418 -1.4836 -1.3236
 4377TIP3   OH234545   1.092   6.061  16.178 -0.4608  0.3244 -0.0291
 4377TIP3    H134546   1.087   6.020  16.264  1.0315 -0.3438 -0.2514
 4377TIP3    H234547   1.105   6.154  16.196  0.7695  0.0626  0.4834
 4378TIP3   OH234548   5.845   6.265   1.216  0.3767 -0.0138 -0.0732
 4378TIP3    H134549   5.877   6.212   1.143 -1.1893  0.2617 -0.9778
 4378TIP3    H234550   5.774   6.213   1.254  0.1832  0.5270  0.3107
 4379TIP3   OH234551   2.147   4.392  14.219  0.7131  0.2974 -0.3588
 4379TIP3    H134552   2.182   4.441  14.144  1.2136 -0.4344 -0.6140
 4379TIP3    H234553   2.211   4.406  14.289  0.9148 -0.0864 -0.4676
 4380TIP3   OH234554   5.831   4.088  16.091 -0.2075  0.0455  0.3361
 4380TIP3    H134555   5.740   4.061  16.110  0.4012 -1.2915  1.5281
 4380TIP3    H234556   5.841   4.072  15.997 -1.3702  0.7177  0.0808
 4381TIP3   OH234557   4.398   3.667  11.696 -0.5797 -0.1277 -0.2352
 4381TIP3    H134558   4.448   3.608  11.640  3.3515  1.6868  1.1621
 4381TIP3    H234559   4.361   3.731  11.635  1.3576  0.2278 -1.0984
 4382TIP3   OH234560   3.806   1.535  17.140 -0.0799 -0.3442 -0.0291
 4382TIP3    H134561   3.731   1.541  17.199 -0.3542 -0.6422 -0.3480
 4382TIP3    H234562   3.768   1.526  17.053  0.2838  2.8586 -0.6078
 4383TIP3   OH234563   1.872   1.703  12.049  0.0334 -0.7865  0.4097
 4383TIP3    H134564   1.884   1.655  12.131 -0.4469 -0.6564  0.5617
 4383TIP3    H234565   1.894   1.793  12.070 -0.6250 -0.6522  0.5427
 4384TIP3   OH234566   3.445   1.417  15.220 -0.0455  0.7414 -0.0641
 4384TIP3    H134567   3.462   1.494  15.166 -1.8563  1.6391  0.5822
 4384TIP3    H234568   3.440   1.451  15.309  2.7531 -0.6980  0.7161
 4385TIP3   OH234569   1.406   2.280  14.503 -0.0503 -0.5331  0.2106
 4385TIP3    H134570   1.454   2.306  14.581 -0.0397 -0.5792  0.2203
 4385TIP3    H234571   1.473   2.272  14.435 -0.3665  1.8807 -0.4080
 4386TIP3   OH234572   2.860   5.265  15.214 -0.4236 -0.8019 -0.4414
 4386TIP3    H134573   2.903   5.270  15.129 -0.1368 -0.7273 -0.2931
 4386TIP3    H234574   2.916   5.317  15.272 -1.9185  1.2015 -0.7492
 4387TIP3   OH234575   1.734   0.261   2.120  0.3652  0.3710 -0.7904
 4387TIP3    H134576   1.650   0.227   2.150 -0.6680  1.2540 -2.6065
 4387TIP3    H234577   1.746   0.343   2.167  0.5245 -0.0779 -0.0465
 4388TIP3   OH234578   2.945   2.948  13.147  0.0728 -0.5870  0.1235
 4388TIP3    H134579   2.922   3.037  13.175 -2.3454 -1.0952 -0.0983
 4388TIP3    H234580   2.978   2.905  13.226 -0.1007  0.0742  0.5584
 4389TIP3   OH234581   2.157   1.839   4.269 -0.2281 -0.1683 -0.5249
 4389TIP3    H134582   2.151   1.830   4.364 -1.6919 -0.1940 -0.6041
 4389TIP3    H234583   2.132   1.930   4.252  1.5512  0.2876 -0.7708
 4390TIP3   OH234584   0.261   6.290   4.061 -0.0020  0.2221  0.1128
 4390TIP3    H134585   0.282   6.381   4.040 -0.8482  0.3567 -0.1642
 4390TIP3    H234586   0.264   6.286   4.157  1.2770  0.2372  0.0784
 4391TIP3   OH234587   2.033   2.249  12.853  0.3596  0.1699  0.5414
 4391TIP3    H134588   1.981   2.171  12.836 -0.8091  1.0340  0.0473
 4391TIP3    H234589   2.121   2.227  12.823  0.1047 -1.0544  0.6978
 4392TIP3   OH234590   2.440   2.093   4.916  0.3273  0.3711  0.4692
 4392TIP3    H134591   2.432   2.031   4.845 -0.2046  0.4739  0.4401
 4392TIP3    H234592   2.451   2.039   4.995 -0.3511  0.2332  0.4736
 4393TIP3   OH234593   4.806   4.642   4.044  0.0591  0.1507 -0.4275
 4393TIP3    H134594   4.844   4.695   3.974  1.2175  0.0737  0.1421
 4393TIP3    H234595   4.835   4.553   4.025 -2.5925 -0.4463 -1.8718
 4394TIP3   OH234596   3.010   2.291  14.525  0.7266  0.1521  0.8035
 4394TIP3    H134597   3.102   2.270  14.545  0.8960  0.8810  0.7947
 4394TIP3    H234598   2.984   2.225  14.461  0.8105 -0.9397  1.8814
 4395TIP3   OH234599   5.657   1.969   4.630 -0.0145  0.0673 -0.4081
 4395TIP3    H134600   5.566   1.946   4.651 -0.0767  0.3485 -0.3729
 4395TIP3    H234601   5.705   1.887   4.639 -0.2814 -0.1017 -0.5125
 4396TIP3   OH234602   1.505   4.978  12.935 -0.4376  0.2698 -0.2101
 4396TIP3    H134603   1.442   4.975  12.862 -2.2434  0.7285  1.2786
 4396TIP3    H234604   1.455   4.949  13.011  1.3154  0.1595  0.9260
 4397TIP3   OH234605   1.922   2.769  15.845  0.6220  0.1798  0.0230
 4397TIP3    H134606   1.960   2.727  15.922 -1.2742 -0.0460  0.8720
 4397TIP3    H234607   1.895   2.696  15.789  0.9427  0.3310 -0.3301
 4398TIP3   OH234608   5.521   0.491   5.399 -0.1899 -0.6154 -0.1291
 4398TIP3    H134609   5.440   0.476   5.351  0.5019 -0.5268 -1.3411
 4398TIP3    H234610   5.542   0.583   5.384  1.9422 -1.4740 -2.6923
 4399TIP3   OH234611   2.607   5.521  16.332  0.0627 -0.4216  0.0883
 4399TIP3    H134612   2.679   5.543  16.391 -0.9123 -0.1068  1.1853
 4399TIP3    H234613   2.576   5.605  16.299  0.2513 -0.5616 -0.4531
 4400TIP3   OH234614   4.743   6.289  10.928  0.3438  0.4204 -0.1076
 4400TIP3    H134615   4.723   6.344  10.852  0.7699 -1.9949 -2.0506
 4400TIP3    H234616   4.837   6.299  10.941  0.2573  0.8953  0.1543
 4401TIP3   OH234617   5.295   4.100   0.099  0.1173  0.0264  0.2058
 4401TIP3    H134618   5.291   4.104   0.194  0.8149 -0.3801  0.2584
 4401TIP3    H234619   5.249   4.019   0.076 -0.6049  0.4500  0.1538
 4402TIP3   OH234620   3.908   1.370   5.173 -0.0970 -0.2890 -0.0795
 4402TIP3    H134621   3.869   1.445   5.218  0.2542  0.0315 -0.3078
 4402TIP3    H234622   3.946   1.317   5.242 -0.3869 -0.2774  0.0878
 4403TIP3   OH234623   3.518   0.343   1.471  0.2104 -0.5825  0.0119
 4403TIP3    H134624   3.458   0.287   1.522  0.5967 -0.5750  0.4793
 4403TIP3    H234625   3.605   0.308   1.491  0.5229  0.7129  0.9704
 4404TIP3   OH234626   2.020   4.032  13.566  0.2165  0.7198 -0.3699
 4404TIP3    H134627   2.040   3.958  13.509  1.4369 -1.3103  2.5631
 4404TIP3    H234628   1.945   4.074  13.524 -1.2602 -2.8476 -1.5671
 4405TIP3   OH234629   2.496   2.161  12.238 -0.1743 -0.0286  0.3369
 4405TIP3    H134630   2.529   2.239  12.283  0.2801 -0.3271  0.5290
 4405TIP3    H234631   2.424   2.130  12.293  0.9839 -0.9369  1.3886
 4406TIP3   OH234632   5.076   6.671  10.601  0.2218 -0.4940  0.0443
 4406TIP3    H134633   5.118   6.656  10.517 -1.0661 -0.4660 -0.6148
 4406TIP3    H234634   5.108   6.757  10.630 -0.4285  0.1281 -1.0799
 4407TIP3   OH234635   2.415   1.005   1.401 -0.1911 -0.3568 -0.2193
 4407TIP3    H134636   2.354   1.041   1.465  0.5302 -0.0417  0.2996
 4407TIP3    H234637   2.406   0.910   1.410  0.3391 -0.3200  0.7852
 4408TIP3   OH234638   6.775   4.100  12.026 -0.1340 -0.0415  0.5323
 4408TIP3    H134639   6.722   4.031  12.065 -0.7002  0.3193  0.4063
 4408TIP3    H234640   6.712   4.161  11.989  0.3791 -0.4417 -1.0823
 4409TIP3   OH234641   4.278   6.763   0.586  0.2841 -0.6311  0.1470
 4409TIP3    H134642   4.277   6.851   0.550 -2.1648 -1.2916 -1.5262
 4409TIP3    H234643   4.242   6.772   0.674 -3.3480 -0.4282 -1.2973
 4410TIP3   OH234644   3.008   5.778  14.963  0.0665  0.6084  0.7008
 4410TIP3    H134645   3.077   5.777  15.029  2.0093  3.4511 -1.1312
 4410TIP3    H234646   2.934   5.821  15.005  0.3350 -0.0675  1.8667
 4411TIP3   OH234647   1.229   6.604  15.725 -0.0797 -0.1929  0.1558
 4411TIP3    H134648   1.315   6.574  15.698 -0.7598 -1.8206 -0.2688
 4411TIP3    H234649   1.186   6.526  15.760 -1.3321  0.6267  0.4931
 4412TIP3   OH234650   0.601   0.704  15.485 -0.2720  0.4414 -0.2881
 4412TIP3    H134651   0.611   0.732  15.393 -1.4013 -1.2407 -0.9355
 4412TIP3    H234652   0.510   0.723  15.506 -0.4944 -0.8306 -0.0855
 4413TIP3   OH234653   5.124   4.498  10.855  0.1852 -0.6566  0.0828
 4413TIP3    H134654   5.071   4.531  10.783  0.5716 -0.4928 -0.1237
 4413TIP3    H234655   5.208   4.543  10.847 -0.2219  0.3967  1.4416
 4414TIP3   OH234656   2.476   2.790  15.824 -0.1748  0.3779 -0.2966
 4414TIP3    H134657   2.407   2.805  15.889 -1.3646 -0.3848 -1.3713
 4414TIP3    H234658   2.483   2.874  15.778  0.4582  0.8249  0.5903
 4415TIP3   OH234659   1.750   2.550  15.327 -0.0153  0.3405 -0.1284
 4415TIP3    H134660   1.789   2.481  15.274  0.5308  1.1191 -0.7430
 4415TIP3    H234661   1.658   2.524  15.336 -0.2160  0.4176 -1.8054
 4416TIP3   OH234662   1.113   3.149  14.373  0.4063 -0.1663  0.1034
 4416TIP3    H134663   1.104   3.159  14.468 -0.0278 -0.0440  0.0492
 4416TIP3    H234664   1.129   3.237  14.341  0.0160 -0.1310  0.0035
 4417TIP3   OH234665   2.976   2.595  15.833  0.4515 -0.2264  0.0485
 4417TIP3    H134666   2.932   2.598  15.749  0.4018 -1.6381  0.0113
 4417TIP3    H234667   2.998   2.686  15.853 -0.7142  0.2482 -0.8555
 4418TIP3   OH234668   4.110   3.914   2.045  0.2167 -0.4298 -0.0677
 4418TIP3    H134669   4.076   3.859   2.116  1.0154 -1.5767 -0.5517
 4418TIP3    H234670   4.044   3.982   2.033 -0.4191 -0.8278  1.0736
 4419TIP3   OH234671   5.219   1.241   0.644 -0.6203  0.4845 -0.2595
 4419TIP3    H134672   5.150   1.307   0.633  0.2263  1.5478  0.6864
 4419TIP3    H234673   5.259   1.261   0.728  2.3436  1.3435 -1.7762
 4420TIP3   OH234674   3.892   3.721  14.177 -0.3929  0.1336 -0.1212
 4420TIP3    H134675   3.958   3.782  14.209 -1.2640  2.3124 -2.4064
 4420TIP3    H234676   3.818   3.732  14.237 -1.2277  2.6843 -1.5493
 4421TIP3   OH234677   3.458   4.828   5.865 -0.3464  0.0118 -0.3332
 4421TIP3    H134678   3.383   4.789   5.911 -0.2058 -1.6990 -1.4954
 4421TIP3    H234679   3.527   4.762   5.873  0.7762  1.1997 -0.0347
 4422TIP3   OH234680   6.211   1.810  16.402  0.0499  0.2241  0.4098
 4422TIP3    H134681   6.156   1.880  16.439 -0.8316 -0.2629  0.0269
 4422TIP3    H234682   6.289   1.855  16.370 -0.0999  0.9157  0.9942
 4423TIP3   OH234683   4.567   1.285  14.542  0.6217  0.3141 -0.3018
 4423TIP3    H134684   4.549   1.225  14.614 -0.1895  1.3909  0.4283
 4423TIP3    H234685   4.543   1.237  14.463  2.0059 -1.0577  0.1108
 4424TIP3   OH234686   2.692   3.913   4.416  0.3591 -0.1544 -0.1551
 4424TIP3    H134687   2.617   3.925   4.358 -0.4281  0.9174  1.0611
 4424TIP3    H234688   2.656   3.924   4.504  2.0962  1.3778  0.4060
 4425TIP3   OH234689   1.904   0.385  13.370 -0.0421 -0.3881 -0.1216
 4425TIP3    H134690   1.853   0.434  13.434 -0.1376 -0.1887 -0.3523
 4425TIP3    H234691   1.854   0.304  13.358 -0.7311  0.1539 -0.9574
 4426TIP3   OH234692   4.764   2.755   3.745 -0.0094  0.2011  0.3334
 4426TIP3    H134693   4.753   2.841   3.704  1.1187  0.2349  0.0912
 4426TIP3    H234694   4.720   2.762   3.829 -0.6067  0.7593 -0.0190
 4427TIP3   OH234695   2.355   0.273  11.442 -0.3180 -0.6584 -0.1949
 4427TIP3    H134696   2.267   0.289  11.475 -0.0802 -1.5975  0.9136
 4427TIP3    H234697   2.381   0.356  11.401 -2.2836 -0.8270 -1.8483
 4428TIP3   OH234698   5.120   1.506  13.940 -0.4668  0.1072  0.1575
 4428TIP3    H134699   5.154   1.474  13.856 -1.7714 -0.2978 -0.2303
 4428TIP3    H234700   5.148   1.598  13.943 -1.5597  0.5322 -1.3809
 4429TIP3   OH234701   6.478   4.087  17.123  0.6339 -0.5533 -0.3468
 4429TIP3    H134702   6.464   4.139  17.202 -0.8871  0.4288 -1.2516
 4429TIP3    H234703   6.537   4.140  17.070  1.4421 -1.0943 -0.0008
 4430TIP3   OH234704   1.496   2.591   5.680  0.4099  0.3698  0.2298
 4430TIP3    H134705   1.516   2.681   5.655 -1.1569  1.0295  1.2397
 4430TIP3    H234706   1.401   2.584   5.671  0.6137 -1.5012 -0.8429
 4431TIP3   OH234707   6.751   2.701   4.628  0.5141 -0.4003  0.2049
 4431TIP3    H134708   6.828   2.660   4.667  0.7397  1.1584  1.4176
 4431TIP3    H234709   6.685   2.698   4.697  1.1604  3.0999  1.0655
 4432TIP3   OH234710   3.045   6.024  13.692 -0.1101 -0.1314  0.9682
 4432TIP3    H134711   2.954   6.054  13.694  0.4297  1.5627  0.9927
 4432TIP3    H234712   3.045   5.944  13.744 -1.6825 -0.4325  0.5314
 4433TIP3   OH234713   6.073   3.857  13.599 -0.3495  0.1423  0.3500
 4433TIP3    H134714   6.065   3.863  13.504  2.4026 -0.3592  0.0433
 4433TIP3    H234715   6.045   3.768  13.621 -0.0574 -0.0567 -0.0928
 4434TIP3   OH234716   5.906   4.685  11.482 -0.2938 -0.5457 -0.0047
 4434TIP3    H134717   5.825   4.711  11.437  0.4449 -0.8349 -1.5436
 4434TIP3    H234718   5.939   4.612  11.430  2.3793  1.3023 -1.0303
 4435TIP3   OH234719   6.090   1.409  16.924  0.6851  0.1181  0.4295
 4435TIP3    H134720   6.148   1.452  16.861  0.7527 -0.5864 -0.0009
 4435TIP3    H234721   6.145   1.342  16.965  0.0883 -0.7906 -0.2368
 4436TIP3   OH234722   6.105   1.215  12.582 -0.6800  0.6668 -0.3586
 4436TIP3    H134723   6.136   1.303  12.603 -1.2539  0.8145 -0.1300
 4436TIP3    H234724   6.076   1.179  12.665  0.1975 -0.0031 -0.3344
 4437TIP3   OH234725   5.923   4.054  11.773  0.0073  0.7137 -0.4791
 4437TIP3    H134726   5.941   4.120  11.706 -0.3775  1.1577 -0.1486
 4437TIP3    H234727   5.902   3.975  11.723 -0.9749  1.2289 -0.9071
 4438TIP3   OH234728   0.410   2.699  15.086 -0.0039  0.4883 -0.0533
 4438TIP3    H134729   0.385   2.614  15.122 -1.8397  0.5006 -1.2115
 4438TIP3    H234730   0.493   2.683  15.041  0.3855 -0.3602  0.9476
 4439TIP3   OH234731   4.490   3.464  15.030 -0.1167  0.7036  0.0631
 4439TIP3    H134732   4.491   3.450  15.124 -0.1130 -0.4246 -0.1021
 4439TIP3    H234733   4.582   3.455  15.003 -0.3827 -0.8789 -0.3230
 4440TIP3   OH234734   2.119   0.849   1.481  0.2587 -0.2914 -0.1409
 4440TIP3    H134735   2.115   0.876   1.389 -1.8132  1.2395  0.3731
 4440TIP3    H234736   2.212   0.843   1.500  0.7257 -0.7926 -2.3741
 4441TIP3   OH234737   0.260   3.078  15.147  0.2659 -0.0937 -0.7874
 4441TIP3    H134738   0.232   3.001  15.195 -0.1909 -0.5209 -1.7149
 4441TIP3    H234739   0.354   3.086  15.164  0.1253 -0.2990  0.0730
 4442TIP3   OH234740   2.875   5.213  14.600 -0.5385  0.5794 -0.1322
 4442TIP3    H134741   2.786   5.233  14.630 -0.8045  0.1820 -0.6403
 4442TIP3    H234742   2.928   5.286  14.631 -0.6049 -0.3158  2.1927
 4443TIP3   OH234743   2.513   6.755  15.683  0.6252 -0.2220  0.0718
 4443TIP3    H134744   2.563   6.759  15.764  1.4710 -0.8814 -0.3984
 4443TIP3    H234745   2.445   6.821  15.693  1.5536  0.6515  0.7606
 4444TIP3   OH234746   3.787   6.015  12.646  0.9079  0.1221 -0.1768
 4444TIP3    H134747   3.835   5.948  12.596 -0.0865 -1.3768  0.8388
 4444TIP3    H234748   3.695   5.994  12.632  0.5452  2.2239 -1.0802
 4445TIP3   OH234749   4.543   4.860  13.023  0.5747  0.0958  0.2930
 4445TIP3    H134750   4.567   4.871  13.115  0.6000  0.1796  0.2756
 4445TIP3    H234751   4.448   4.855  13.023  0.5911 -0.2435  0.3621
 4446TIP3   OH234752   3.580   2.367  11.936 -0.2845  0.4504  0.8362
 4446TIP3    H134753   3.602   2.372  12.029  1.3070 -0.9405  0.5458
 4446TIP3    H234754   3.663   2.384  11.891 -1.2017  1.9206 -0.3507
 4447TIP3   OH234755   5.155   0.277   0.524  0.2850 -0.0078 -0.3985
 4447TIP3    H134756   5.208   0.356   0.513  1.8334 -0.8815  0.6498
 4447TIP3    H234757   5.072   0.310   0.560  0.8894  1.1509 -0.0200
 4448TIP3   OH234758   5.824   2.230  16.073  0.0537  0.7796 -0.4944
 4448TIP3    H134759   5.846   2.312  16.029  1.8358 -0.1683 -1.4411
 4448TIP3    H234760   5.902   2.175  16.061 -0.8322 -0.7880  0.7467
 4449TIP3   OH234761   0.167   6.029  16.798  0.0400  0.1300  0.6647
 4449TIP3    H134762   0.154   5.934  16.800 -1.6469  0.3061 -0.8112
 4449TIP3    H234763   0.084   6.065  16.828  0.8281  1.1483  1.6532
 4450TIP3   OH234764   0.815   4.706  12.037  0.1976 -0.4562 -0.1175
 4450TIP3    H134765   0.787   4.721  12.128 -1.4769 -0.7751 -0.5515
 4450TIP3    H234766   0.885   4.641  12.044  0.5333  0.0087  0.9922
 4451TIP3   OH234767   4.178   2.121  15.411 -0.1044 -0.6215  0.1798
 4451TIP3    H134768   4.116   2.160  15.472 -1.1645 -0.7297 -0.8106
 4451TIP3    H234769   4.264   2.151  15.442 -0.8648  2.2670 -0.3398
 4452TIP3   OH234770   0.887   4.767   2.747 -0.0101 -0.2808  0.2057
 4452TIP3    H134771   0.908   4.857   2.724 -0.3534 -0.4103 -0.6419
 4452TIP3    H234772   0.930   4.714   2.680  1.1713 -0.8137  1.3748
 4453TIP3   OH234773   3.291   5.179  17.234  0.2892  0.3130 -0.1902
 4453TIP3    H134774   3.363   5.239  17.252  0.2489  0.5350 -0.7680
 4453TIP3    H234775   3.213   5.225  17.264  0.2062  0.7428 -1.0612
 4454TIP3   OH234776   0.511   4.979  10.852  0.0891 -0.5444  0.6120
 4454TIP3    H134777   0.546   5.051  10.800 -3.4425  0.6463 -0.2331
 4454TIP3    H234778   0.513   5.011  10.942  1.2884 -0.5519  0.5915
 4455TIP3   OH234779   0.853   1.654  13.748 -0.0734 -0.0976  0.1653
 4455TIP3    H134780   0.781   1.670  13.809 -0.5812 -0.2942 -0.3722
 4455TIP3    H234781   0.813   1.604  13.677  1.0075 -1.8018  0.7398
 4456TIP3   OH234782   4.010   3.953  11.481 -0.5328 -0.0702  0.7596
 4456TIP3    H134783   4.023   3.989  11.393  1.7408  0.8089  1.4203
 4456TIP3    H234784   3.945   4.011  11.521 -0.8138  0.1353  0.0202
 4457TIP3   OH234785   5.204   5.158   5.312 -0.1348  1.1222 -0.0760
 4457TIP3    H134786   5.300   5.152   5.322  0.1427  1.1469 -2.5666
 4457TIP3    H234787   5.174   5.068   5.318  0.1378  1.0158 -0.3159
 4458TIP3   OH234788   0.101   3.847  11.590  1.0320  0.7538 -0.1832
 4458TIP3    H134789   0.171   3.908  11.569  0.5112  0.5879 -2.5398
 4458TIP3    H234790   0.024   3.882  11.546  1.0272 -2.2742 -2.7678
 4459TIP3   OH234791   6.065   3.476  15.200 -1.1097  0.2666  0.5701
 4459TIP3    H134792   5.976   3.481  15.235 -0.8496  1.7093  1.0241
 4459TIP3    H234793   6.112   3.548  15.241  0.0171  0.1216 -0.4306
 4460TIP3   OH234794   2.803   3.218   6.007  0.2387 -0.2658  0.4796
 4460TIP3    H134795   2.841   3.142   5.965  0.4295 -0.0108  0.1897
 4460TIP3    H234796   2.713   3.192   6.027  0.0135 -0.2323 -0.4869
 4461TIP3   OH234797   1.916   3.702  16.719 -0.5867 -0.2564 -0.2422
 4461TIP3    H134798   1.825   3.687  16.693 -0.9085  0.9937  0.1522
 4461TIP3    H234799   1.950   3.761  16.652  0.1787 -1.3536 -0.8360
 4462TIP3   OH234800   5.377   1.847  16.295  0.7116 -0.6605 -0.0799
 4462TIP3    H134801   5.328   1.765  16.302  3.4627 -2.3784 -0.1195
 4462TIP3    H234802   5.394   1.872  16.386  0.1701 -0.2966 -0.0745
 4463TIP3   OH234803   1.192   1.719  16.557  0.3261  1.0345  0.3025
 4463TIP3    H134804   1.217   1.645  16.612 -1.2982  1.2044  1.3114
 4463TIP3    H234805   1.273   1.746  16.514  1.2202 -0.3855  1.0575
 4464TIP3   OH234806   6.744   6.267  16.348  0.1269  0.3225  0.3624
 4464TIP3    H134807   6.836   6.249  16.366  0.6433  0.7169 -1.7381
 4464TIP3    H234808   6.696   6.207  16.405  1.6733 -0.1253  1.2211
 4465TIP3   OH234809   0.583   6.530   2.394  0.1317  0.3672 -0.7236
 4465TIP3    H134810   0.511   6.593   2.396 -0.1581  0.0967 -2.2525
 4465TIP3    H234811   0.661   6.583   2.407 -0.0933  1.1044 -2.2441
 4466TIP3   OH234812   2.695   3.261  11.820  0.0630 -0.4142 -0.1040
 4466TIP3    H134813   2.640   3.195  11.778 -1.5152  1.7893 -1.5994
 4466TIP3    H234814   2.784   3.239  11.794 -0.3526 -2.4731  0.1623
 4467TIP3   OH234815   4.168   0.013  10.246  0.5170 -0.0374 -0.5261
 4467TIP3    H134816   4.147  -0.003  10.339  1.9549  3.2598  0.4201
 4467TIP3    H234817   4.088   0.051  10.210  0.9424  1.5848  0.1776
 4468TIP3   OH234818   0.545   0.201  13.361  0.0580 -0.2789  0.1020
 4468TIP3    H134819   0.551   0.289  13.323 -2.6584  0.6400  1.6491
 4468TIP3    H234820   0.549   0.142  13.286  1.0868  1.2111 -1.0383
 4469TIP3   OH234821   5.566   5.816  16.379 -0.5427  0.9620 -0.3494
 4469TIP3    H134822   5.545   5.731  16.342  1.2449 -0.0111  0.7906
 4469TIP3    H234823   5.661   5.817  16.384 -0.5890  2.6377  0.5672
 4470TIP3   OH234824   5.707   0.234   4.387 -0.0281 -0.2245 -0.2913
 4470TIP3    H134825   5.622   0.258   4.351  1.0936  0.3983 -2.5760
 4470TIP3    H234826   5.735   0.159   4.335  1.6841  0.7891 -0.8693
 4471TIP3   OH234827   4.707   5.996   0.553  0.9964 -0.1892 -0.7106
 4471TIP3    H134828   4.689   5.937   0.626  0.1187  0.9700  0.0303
 4471TIP3    H234829   4.801   5.989   0.539  0.9786 -1.3623 -0.2828
 4472TIP3   OH234830   3.208   3.235  11.016  0.0017 -0.0768  0.2424
 4472TIP3    H134831   3.228   3.286  10.937 -0.8467 -0.4021 -0.1861
 4472TIP3    H234832   3.222   3.144  10.989  1.1955 -0.0955  0.9102
 4473TIP3   OH234833   5.050   0.969  14.092 -0.0879 -0.6579  0.3551
 4473TIP3    H134834   4.957   0.989  14.095 -0.0688 -0.5373  0.1145
 4473TIP3    H234835   5.072   0.966  13.999  0.3088  0.0628  0.4270
 4474TIP3   OH234836   0.299   3.031  16.307  0.3427  0.2544  0.4854
 4474TIP3    H134837   0.285   3.033  16.212  2.1107  1.1670  0.2368
 4474TIP3    H234838   0.382   2.986  16.318  1.1332  1.9481  1.4896
 4475TIP3   OH234839   0.608   0.332  16.185  0.0651  0.0979  0.3174
 4475TIP3    H134840   0.699   0.331  16.154 -1.3057  1.0364 -4.0640
 4475TIP3    H234841   0.597   0.417  16.227  0.4414  1.1687 -1.7207
 4476TIP3   OH234842   5.628   6.613  12.345 -0.1458 -0.3536 -0.4692
 4476TIP3    H134843   5.601   6.623  12.436 -0.0843 -0.9081 -0.3919
 4476TIP3    H234844   5.589   6.688  12.300 -0.0108  0.0287  0.0482
 4477TIP3   OH234845   6.132   1.418  11.712  0.1261  0.7094 -0.5213
 4477TIP3    H134846   6.198   1.359  11.748  1.3259  1.6166 -1.2016
 4477TIP3    H234847   6.146   1.416  11.618 -0.4570  1.3367 -0.6266
 4478TIP3   OH234848   2.398   1.143  11.676 -0.4357  0.5172  0.2247
 4478TIP3    H134849   2.447   1.140  11.758  0.5181 -0.0936 -0.3541
 4478TIP3    H234850   2.346   1.223  11.682 -0.4049  0.4623  1.4298
 4479TIP3   OH234851   1.275   4.479   2.800 -0.0852  0.3883  0.2302
 4479TIP3    H134852   1.305   4.480   2.891  1.0004  3.2195 -0.1270
 4479TIP3    H234853   1.313   4.398   2.764  1.1346  0.2538  1.7574
 4480TIP3   OH234854   4.250   0.035   2.261  0.0733  0.4402 -0.7140
 4480TIP3    H134855   4.287   0.085   2.189  0.9724 -1.2984 -1.4816
 4480TIP3    H234856   4.155   0.042   2.248  0.1712  2.1810 -0.6176
 4481TIP3   OH234857   6.691   3.774  13.867 -0.5778 -0.2544  0.1226
 4481TIP3    H134858   6.674   3.858  13.825  1.7474  1.1507  1.8563
 4481TIP3    H234859   6.744   3.726  13.804 -1.2012 -0.1101 -0.5220
 4482TIP3   OH234860   3.922   1.510  15.456 -0.2564 -0.0086 -0.0572
 4482TIP3    H134861   3.875   1.593  15.455  1.6548  1.1116 -0.3290
 4482TIP3    H234862   3.855   1.443  15.442 -1.8517  1.4699  0.4268
 4483TIP3   OH234863   1.055   2.273   1.983  0.4345 -0.5076 -0.2539
 4483TIP3    H134864   1.071   2.206   1.916 -1.0598 -1.5544  0.4139
 4483TIP3    H234865   0.992   2.333   1.943  1.4592  0.2843 -0.6997
 4484TIP3   OH234866   2.226   4.339  13.378 -0.3814  0.0814 -0.2379
 4484TIP3    H134867   2.226   4.247  13.404 -0.7180  0.3061  0.5716
 4484TIP3    H234868   2.160   4.380  13.434  1.1698  1.1994  0.8370
 4485TIP3   OH234869   1.813   3.636   4.762 -0.4338 -0.1667 -0.3758
 4485TIP3    H134870   1.899   3.632   4.804 -0.5933  2.1996  0.2396
 4485TIP3    H234871   1.828   3.683   4.680 -0.5636 -2.6902 -1.9071
 4486TIP3   OH234872   2.871   4.692  13.547 -0.3265  0.0797  0.1393
 4486TIP3    H134873   2.800   4.662  13.605  0.8650 -1.6347  0.7750
 4486TIP3    H234874   2.829   4.702  13.462 -1.6919  0.7064  0.8666
 4487TIP3   OH234875   4.093   6.477   4.776 -0.4512 -0.1372 -0.0404
 4487TIP3    H134876   4.103   6.510   4.687 -3.9391  1.1163 -0.0169
 4487TIP3    H234877   4.157   6.527   4.827  0.5686  0.1345 -1.5515
 4488TIP3   OH234878   1.238   0.020  14.587 -0.0689  0.0160 -0.0763
 4488TIP3    H134879   1.271  -0.044  14.651 -1.6150 -0.5203  0.2112
 4488TIP3    H234880   1.143   0.013  14.594 -0.2432  2.0720 -0.3567
 4489TIP3   OH234881   1.089   3.453  16.447 -0.5323  0.3798 -0.4307
 4489TIP3    H134882   1.184   3.461  16.436 -0.2510 -1.2660  0.5895
 4489TIP3    H234883   1.075   3.360  16.463 -2.2628  0.6929 -0.0631
 4490TIP3   OH234884   1.460   4.160   0.707  0.2588 -0.0816 -0.3444
 4490TIP3    H134885   1.544   4.151   0.752 -0.8403 -1.1880  1.5589
 4490TIP3    H234886   1.394   4.152   0.776 -1.4849 -1.2742 -2.0758
 4491TIP3   OH234887   0.500   0.881  13.609  0.4643 -0.1768 -0.2222
 4491TIP3    H134888   0.566   0.877  13.539 -0.0051  3.8485 -1.0639
 4491TIP3    H234889   0.506   0.971  13.641 -2.0652 -0.8352  2.2551
 4492TIP3   OH234890   2.576   3.602  15.732  0.1574  0.5509 -0.3517
 4492TIP3    H134891   2.612   3.682  15.692  1.5033  0.1983  0.1390
 4492TIP3    H234892   2.594   3.533  15.669 -0.3127  0.4939 -0.4268
 4493TIP3   OH234893   4.159   3.336   0.724 -0.4382  0.5980  0.2435
 4493TIP3    H134894   4.123   3.388   0.653  2.2463  0.8714 -0.9899
 4493TIP3    H234895   4.106   3.359   0.801 -2.4836  1.3249 -1.3508
 4494TIP3   OH234896   1.826   3.836   5.520  0.2056 -0.3239  0.2324
 4494TIP3    H134897   1.737   3.808   5.502 -0.5632  2.0981  0.1088
 4494TIP3    H234898   1.827   3.858   5.613  0.4888  0.2745  0.0937
 4495TIP3   OH234899   1.212   1.714  13.422  0.2121 -0.0562 -0.7320
 4495TIP3    H134900   1.127   1.745  13.454  0.8087  0.1458  0.6890
 4495TIP3    H234901   1.196   1.691  13.331 -0.9939  1.4820 -0.9269
 4496TIP3   OH234902   3.642   1.404   4.410  0.2231 -0.0085 -0.4219
 4496TIP3    H134903   3.568   1.404   4.349 -0.0003  0.1134 -0.1512
 4496TIP3    H234904   3.690   1.485   4.389 -2.0521  2.1029  2.2135
 4497TIP3   OH234905   2.219   1.121   5.736  0.2521 -0.1326  0.2464
 4497TIP3    H134906   2.224   1.121   5.831  0.2025 -0.4432  0.2481
 4497TIP3    H234907   2.134   1.084   5.715 -0.2625  1.1079  0.1047
 4498TIP3   OH234908   6.123   0.481   5.772  0.1341 -0.5479  0.2668
 4498TIP3    H134909   6.146   0.448   5.859  2.0638  0.5272  0.1807
 4498TIP3    H234910   6.043   0.532   5.786  0.3684 -0.4737  1.3830
 4499TIP3   OH234911   5.767   0.121   2.566  0.0038 -0.0843  0.2464
 4499TIP3    H134912   5.850   0.166   2.582  0.2511  0.5872 -2.5844
 4499TIP3    H234913   5.742   0.085   2.651  1.7053  2.2098  1.7872
 4500TIP3   OH234914   2.114   3.266   4.337  0.0187 -0.2133 -0.0091
 4500TIP3    H134915   2.086   3.231   4.252  0.6571 -1.2895  0.2071
 4500TIP3    H234916   2.192   3.318   4.316  1.0418 -1.6539  0.0715
 4501TIP3   OH234917   1.237   3.091  11.415  0.5626 -0.2436 -0.0686
 4501TIP3    H134918   1.235   3.181  11.383 -0.8379 -0.1670  0.1859
 4501TIP3    H234919   1.308   3.090  11.480  0.2715  0.7992  0.2781
 4502TIP3   OH234920   1.628   5.543   0.671  0.3745 -0.8777  0.2228
 4502TIP3    H134921   1.536   5.518   0.680  0.3806 -0.8441  0.3660
 4502TIP3    H234922   1.677   5.464   0.691  0.4061 -0.6460  1.0568
 4503TIP3   OH234923   5.543   5.267  14.198  0.3992  0.1313  0.5415
 4503TIP3    H134924   5.494   5.336  14.152 -0.9626 -0.4172  1.1565
 4503TIP3    H234925   5.476   5.215  14.242  1.5622 -0.4939  1.5946
 4504TIP3   OH234926   3.510   5.752  13.781 -0.0047  0.3196 -0.1302
 4504TIP3    H134927   3.527   5.846  13.795  0.2511  0.2931 -0.2684
 4504TIP3    H234928   3.448   5.749  13.708  0.3532  0.3608 -0.4375
 4505TIP3   OH234929   2.673   1.740  12.999  0.0966  0.7325  0.3108
 4505TIP3    H134930   2.579   1.732  12.988  0.3794 -0.2442 -1.6826
 4505TIP3    H234931   2.692   1.695  13.081 -0.7981 -1.8535 -0.8564
 4506TIP3   OH234932   5.639   0.804  10.650 -0.1099  0.2919  0.0179
 4506TIP3    H134933   5.574   0.873  10.632  0.3556  0.5071 -0.8280
 4506TIP3    H234934   5.703   0.811  10.579  0.7109 -0.0871  0.7087
 4507TIP3   OH234935   5.278   1.124   2.386 -0.1256 -0.2779  0.4841
 4507TIP3    H134936   5.238   1.075   2.457 -0.7881 -0.4095  0.0225
 4507TIP3    H234937   5.266   1.068   2.309 -0.0727  0.1957  0.1319
 4508TIP3   OH234938   0.102   4.686   4.626  0.6426  0.7744  0.0717
 4508TIP3    H134939   0.122   4.699   4.533  2.7677  1.7014  0.6081
 4508TIP3    H234940   0.110   4.592   4.640 -1.0032  0.4819 -0.9648
 4509TIP3   OH234941   4.581   3.972  14.337 -0.2716  0.0500 -0.0780
 4509TIP3    H134942   4.495   4.004  14.307 -0.8888  0.7873  2.3180
 4509TIP3    H234943   4.610   4.039  14.399  2.2830  0.0229 -1.1951
 4510TIP3   OH234944   1.373   3.852   0.666  0.2534  0.2074  0.8449
 4510TIP3    H134945   1.307   3.787   0.644  1.6351 -0.8021 -0.4414
 4510TIP3    H234946   1.427   3.811   0.733  0.6875  0.2864  0.5541
 4511TIP3   OH234947   6.016   1.932   4.784  0.4227 -0.4243 -0.7679
 4511TIP3    H134948   6.066   1.910   4.705  1.4101 -0.4296 -0.1514
 4511TIP3    H234949   6.049   1.871   4.850 -2.8853 -2.8202 -1.2280
 4512TIP3   OH234950   3.446   3.639  14.385  0.3438 -0.2349  0.8637
 4512TIP3    H134951   3.370   3.669  14.434 -0.8892  1.0487 -1.7153
 4512TIP3    H234952   3.513   3.707  14.400  0.3667 -0.4208  1.6352
 4513TIP3   OH234953   4.375   1.588   0.623 -0.3957  0.3619  0.2283
 4513TIP3    H134954   4.282   1.593   0.599 -0.5756 -0.7197  0.6691
 4513TIP3    H234955   4.388   1.497   0.650  0.8145  0.4868  0.0969
 4514TIP3   OH234956   4.041   6.736  10.496 -0.3321 -0.1034  0.2443
 4514TIP3    H134957   4.063   6.811  10.551 -0.7352 -0.7912  1.3534
 4514TIP3    H234958   3.945   6.741  10.488 -0.0869  1.3585 -2.3716
 4515TIP3   OH234959   6.556   4.496   3.852  0.0390 -0.6607  0.0154
 4515TIP3    H134960   6.494   4.459   3.915  0.6159 -0.8253  0.4919
 4515TIP3    H234961   6.566   4.588   3.879 -0.0771 -0.6118 -0.1148
 4516TIP3   OH234962   4.368   0.089   4.695 -0.6334 -0.9177  0.0052
 4516TIP3    H134963   4.444   0.074   4.638 -1.9654 -0.6287 -1.8842
 4516TIP3    H234964   4.352   0.184   4.689 -1.5197 -1.0680 -0.1217
 4517TIP3   OH234965   5.202   2.966  14.856  0.3842 -0.5206 -0.2542
 4517TIP3    H134966   5.151   3.030  14.905  0.2252  0.3673 -1.5449
 4517TIP3    H234967   5.144   2.937  14.786  1.5529  0.3642 -1.6252
 4518TIP3   OH234968   1.209   2.799  14.634  0.3214  0.1255  0.0620
 4518TIP3    H134969   1.242   2.711  14.618  0.1442  0.3675 -1.6974
 4518TIP3    H234970   1.288   2.854  14.640  0.4885 -0.3035  2.2996
 4519TIP3   OH234971   1.211   1.398   3.352  0.0134 -0.1607  0.1228
 4519TIP3    H134972   1.261   1.346   3.415  0.7811 -0.1835 -0.4962
 4519TIP3    H234973   1.194   1.339   3.279  0.0798  0.1794 -0.1735
 4520TIP3   OH234974   3.265   0.070   5.597 -0.0673 -0.6869 -0.0048
 4520TIP3    H134975   3.175   0.095   5.575  0.6787  1.5307 -0.5944
 4520TIP3    H234976   3.304   0.045   5.513  1.0716  2.3480 -0.4536
 4521TIP3   OH234977   1.841   1.737  16.041 -0.0172 -0.1294  0.1235
 4521TIP3    H134978   1.817   1.731  16.134 -1.5390 -1.9990 -0.3609
 4521TIP3    H234979   1.813   1.824  16.015  1.2968  0.7774  1.6599
 4522TIP3   OH234980   1.470   3.048  14.839 -0.7997 -0.3894  0.5931
 4522TIP3    H134981   1.432   3.013  14.758  1.2051 -1.8055  0.2327
 4522TIP3    H234982   1.553   3.002  14.848  0.6862  2.3798  1.5328
 4523TIP3   OH234983   3.797   3.523   5.854  0.2765  0.0875 -0.5743
 4523TIP3    H134984   3.723   3.469   5.880  0.8819  1.2001  3.8231
 4523TIP3    H234985   3.759   3.609   5.836  0.4826  0.7519  2.0232
 4524TIP3   OH234986   1.046   0.760   5.044 -0.1671 -0.1052  0.4449
 4524TIP3    H134987   1.064   0.852   5.060 -1.6482 -0.0978  2.2988
 4524TIP3    H234988   1.131   0.717   5.054 -0.0691  0.6167  3.3048
 4525TIP3   OH234989   4.762   1.047   5.130 -0.4333  0.2264 -0.4055
 4525TIP3    H134990   4.708   1.004   5.063  2.3320 -1.0522 -1.8669
 4525TIP3    H234991   4.758   1.140   5.108 -1.2280  0.0335 -1.0910
 4526TIP3   OH234992   2.987   4.252  16.290 -0.6373  0.4545  0.5979
 4526TIP3    H134993   3.017   4.178  16.344 -2.1816 -1.2029 -0.7584
 4526TIP3    H234994   2.913   4.217  16.241  0.5205  2.0210 -2.3579
 4527TIP3   OH234995   5.326   4.979   1.509 -0.0307 -0.0084  0.1835
 4527TIP3    H134996   5.321   5.013   1.598 -2.4059  0.0927  0.0432
 4527TIP3    H234997   5.238   4.992   1.473  0.7412 -0.5571 -1.9867
 4528TIP3   OH234998   2.559   3.909  14.054  0.2534  0.1060 -0.7954
 4528TIP3    H134999   2.575   3.985  14.111 -0.9286 -0.3065  0.1123
 4528TIP3    H235000   2.518   3.845  14.112  0.5796 -0.9567 -1.7396
 4529TIP3   OH235001   1.962   2.605  14.256  0.8286  0.7648 -0.1775
 4529TIP3    H135002   2.039   2.561  14.220 -0.3625 -0.0402 -1.8223
 4529TIP3    H235003   1.890   2.543  14.243 -0.2623  1.8459  0.5468
 4530TIP3   OH235004   4.402   3.923   2.033  0.0193 -0.3948  0.5463
 4530TIP3    H135005   4.420   3.906   2.125 -0.5542 -0.8712  0.5767
 4530TIP3    H235006   4.310   3.950   2.031 -0.4867 -2.0524 -0.0683
 4531TIP3   OH235007   3.047   4.810  16.947 -0.5525  0.0829 -0.1419
 4531TIP3    H135008   3.037   4.807  16.852 -0.8565  0.7110 -0.1328
 4531TIP3    H235009   3.131   4.767  16.964 -1.6600 -2.2859 -0.4873
 4532TIP3   OH235010   4.106   4.731  16.921 -0.3098 -0.1235  0.4906
 4532TIP3    H135011   4.040   4.765  16.861 -0.2577 -0.8153  0.0297
 4532TIP3    H235012   4.188   4.737  16.872  0.1754  1.8988  1.5186
 4533TIP3   OH235013   2.031   6.342  12.006  0.1884 -0.2161 -0.1361
 4533TIP3    H135014   2.040   6.379  11.919  0.3565 -1.9548 -0.8923
 4533TIP3    H235015   1.999   6.414  12.060  1.3236  1.2224 -1.3457
 4534TIP3   OH235016   2.436   2.380   4.912 -0.6830 -0.3090 -0.7103
 4534TIP3    H135017   2.444   2.287   4.930 -1.0177 -0.2760 -0.3787
 4534TIP3    H235018   2.497   2.396   4.840 -0.0255 -0.6191 -0.2266
 4535TIP3   OH235019   2.420   4.996  17.046 -0.8624 -0.0342  0.4122
 4535TIP3    H135020   2.473   5.065  17.085  1.1280 -0.8615 -0.7772
 4535TIP3    H235021   2.435   5.004  16.952 -2.4304 -0.6277  0.0937
 4536TIP3   OH235022   2.537   2.371   0.341 -0.2321  0.3050  0.1568
 4536TIP3    H135023   2.445   2.345   0.335 -0.9238  2.1469  1.9621
 4536TIP3    H235024   2.585   2.298   0.304 -2.4499 -0.5087 -1.2355
 4537TIP3   OH235025   4.102   0.646   6.269  0.7283  0.0814 -0.0666
 4537TIP3    H135026   4.008   0.652   6.253  1.0576  1.0097 -1.8084
 4537TIP3    H235027   4.110   0.634   6.364 -1.0779  1.6582  0.3075
 4538TIP3   OH235028   3.026   6.630  12.992 -0.1564 -0.1422  0.6995
 4538TIP3    H135029   2.957   6.670  13.045 -1.7977  1.7330 -2.6605
 4538TIP3    H235030   3.097   6.694  12.993 -0.3141  0.0403  0.4243
 4539TIP3   OH235031   2.165   6.176  13.766  0.2640  0.1044  0.1472
 4539TIP3    H135032   2.131   6.125  13.840 -1.1917  0.5990 -0.1625
 4539TIP3    H235033   2.216   6.246  13.807 -1.8279  1.3109  0.7832
 4540TIP3   OH235034   5.770   6.686  16.104 -0.8476 -0.4420 -0.4528
 4540TIP3    H135035   5.745   6.756  16.165 -0.7012  1.4255 -2.4594
 4540TIP3    H235036   5.688   6.664  16.058 -0.9889 -1.9321  0.5014
 4541TIP3   OH235037   2.653   2.160   0.196 -0.6773 -0.8163 -0.0132
 4541TIP3    H135038   2.616   2.139   0.110  1.0967 -0.4674 -0.8885
 4541TIP3    H235039   2.742   2.124   0.194  0.2490  1.3184  0.7395
 4542TIP3   OH235040   3.307   4.563   0.352 -0.3257  0.1277 -0.3776
 4542TIP3    H135041   3.340   4.474   0.361 -1.0253 -0.2127 -1.1309
 4542TIP3    H235042   3.213   4.556   0.368 -0.5457  0.5582 -1.4057
 4543TIP3   OH235043   1.387   5.231  16.161  0.7155 -0.9755 -0.2827
 4543TIP3    H135044   1.417   5.306  16.109  5.1418 -1.3765  1.4885
 4543TIP3    H235045   1.359   5.268  16.244  0.3936 -1.0380 -0.3633
 4544TIP3   OH235046   4.884   2.846   1.753 -0.4829  0.1976  0.6664
 4544TIP3    H135047   4.824   2.843   1.679 -0.1470 -3.6809  0.4400
 4544TIP3    H235048   4.843   2.791   1.820  1.7225 -0.7376  1.3148
 4545TIP3   OH235049   2.327   4.320  12.436  0.1018  0.0234  0.3460
 4545TIP3    H135050   2.338   4.410  12.467 -0.3453  0.0465  0.4310
 4545TIP3    H235051   2.347   4.324  12.343 -0.7795  0.3728  0.1717
 4546TIP3   OH235052   6.083   5.458  14.055  0.1078  0.0416 -0.1594
 4546TIP3    H135053   6.022   5.415  13.996  1.2574 -1.7917 -0.0603
 4546TIP3    H235054   6.097   5.394  14.125  2.1893  0.3823 -0.2260
 4547TIP3   OH235055   1.869   0.290  11.933 -0.4601 -0.2307  0.1949
 4547TIP3    H135056   1.791   0.343  11.917 -1.0596 -1.4234 -0.9518
 4547TIP3    H235057   1.942   0.349  11.914 -1.0938  0.5094  0.0131
 4548TIP3   OH235058   1.963   2.865   5.790 -0.2414 -0.2465 -0.7706
 4548TIP3    H135059   2.031   2.801   5.812 -0.2580 -0.4462 -1.2765
 4548TIP3    H235060   1.969   2.932   5.858  0.0241 -0.6009 -0.4459
 4549TIP3   OH235061   5.934   2.961  11.416  0.0759 -0.1650 -0.3572
 4549TIP3    H135062   5.979   2.931  11.337 -0.8139  0.3247 -1.0579
 4549TIP3    H235063   5.863   2.897  11.428  0.2799 -0.3020  0.1057
 4550TIP3   OH235064   5.558   4.472  15.412 -0.3195  0.2746  0.3336
 4550TIP3    H135065   5.488   4.449  15.351 -0.1080 -0.3788  0.3327
 4550TIP3    H235066   5.639   4.449  15.366 -0.1571 -0.1760  0.8338
 4551TIP3   OH235067   4.699   1.905  15.038  0.5573 -0.6166  0.0249
 4551TIP3    H135068   4.659   1.830  14.994  0.6643 -0.5002 -0.2693
 4551TIP3    H235069   4.792   1.898  15.019  0.6957 -0.9370  0.7824
 4552TIP3   OH235070   3.651   1.131   1.285  0.1593 -0.5874  0.8395
 4552TIP3    H135071   3.667   1.036   1.281 -0.1285 -0.6556  1.2316
 4552TIP3    H235072   3.602   1.143   1.366  0.8981  0.0043  1.2010
 4553TIP3   OH235073   2.980   5.169   0.632 -0.2301 -0.4511  0.2776
 4553TIP3    H135074   3.006   5.235   0.697  0.3609  1.1121 -1.4839
 4553TIP3    H235075   3.056   5.111   0.626  0.7668  0.9146 -0.8586
 4554TIP3   OH235076   4.295   0.849  13.585  0.0983  0.1754  0.6456
 4554TIP3    H135077   4.318   0.897  13.506  0.0288  1.4022  1.3469
 4554TIP3    H235078   4.315   0.758  13.565  2.2682  0.7645  0.0274
 4555TIP3   OH235079   4.933   1.722  15.652 -0.5547 -0.0902  0.0245
 4555TIP3    H135080   4.909   1.810  15.681 -1.4871  0.0199 -1.0583
 4555TIP3    H235081   4.971   1.681  15.730  2.7943  2.2834 -0.2255
 4556TIP3   OH235082   2.425   3.009  15.658  0.1031 -0.0374 -0.4400
 4556TIP3    H135083   2.379   3.087  15.689  0.4396 -0.7200  1.8498
 4556TIP3    H235084   2.474   3.040  15.581  1.6178  2.4454  1.4425
 4557TIP3   OH235085   2.940   1.015   5.823 -0.1794  0.4908  0.3085
 4557TIP3    H135086   2.863   1.009   5.880 -2.1408 -0.5290 -2.3501
 4557TIP3    H235087   2.905   1.040   5.738  2.3715 -0.6501 -1.1332
 4558TIP3   OH235088   1.184   5.547   1.686  0.3000  0.0699  0.1555
 4558TIP3    H135089   1.244   5.588   1.748 -0.0802 -0.1786  0.6865
 4558TIP3    H235090   1.232   5.470   1.654  0.5695  0.3033 -0.0015
 4559TIP3   OH235091   6.498   0.582   5.273  0.2851 -0.3596 -0.0433
 4559TIP3    H135092   6.448   0.651   5.317 -0.7737 -0.7183 -0.6711
 4559TIP3    H235093   6.589   0.613   5.275 -0.1275  0.8550  0.0467
 4560TIP3   OH235094   3.781   6.759  12.807 -0.1778  0.3908  0.2128
 4560TIP3    H135095   3.725   6.812  12.749  0.8792 -0.1770 -1.3758
 4560TIP3    H235096   3.780   6.672  12.767 -0.2431 -0.2679  1.6423
 4561TIP3   OH235097   3.609   3.752   1.009 -0.4881 -0.2988  0.5046
 4561TIP3    H135098   3.592   3.705   1.091 -0.2906  0.1305  0.7945
 4561TIP3    H235099   3.523   3.776   0.976 -0.5551 -0.2597  0.7112
 4562TIP3   OH235100   1.444   1.739  16.000 -0.2794 -0.0100  0.4162
 4562TIP3    H135101   1.480   1.822  16.031 -1.2436 -0.0155  1.5986
 4562TIP3    H235102   1.490   1.673  16.051  0.4540 -0.2071 -0.4929
 4563TIP3   OH235103   0.017   2.173  14.561 -0.1283 -0.3369 -0.3892
 4563TIP3    H135104  -0.033   2.251  14.538  0.8612  0.4769  0.1741
 4563TIP3    H235105   0.008   2.116  14.484 -1.6384 -0.0810 -0.4246
 4564TIP3   OH235106   4.833   0.609  14.850  0.4067 -0.6695 -0.1501
 4564TIP3    H135107   4.739   0.595  14.861  0.4925 -0.1548  1.3914
 4564TIP3    H235108   4.871   0.578  14.932  1.3975  0.8268 -0.0268
 4565TIP3   OH235109   5.536   6.669  12.613 -0.0886  0.7724 -0.4612
 4565TIP3    H135110   5.525   6.622  12.696  0.9008  1.5764  0.1464
 4565TIP3    H235111   5.454   6.717  12.600  0.4125  2.0718  0.9915
 4566TIP3   OH235112   1.445   5.230   1.107 -0.2715 -0.2131 -0.0214
 4566TIP3    H135113   1.437   5.246   1.201 -1.4010  0.0322 -0.1514
 4566TIP3    H235114   1.442   5.317   1.067  1.6360 -0.2006 -0.2121
 4567TIP3   OH235115   2.731   6.269  15.585 -0.0795  0.3694 -0.5479
 4567TIP3    H135116   2.664   6.310  15.529 -0.8836  0.3440  0.3801
 4567TIP3    H235117   2.771   6.342  15.632  0.4561  0.3698 -0.9989
 4568TIP3   OH235118   3.908   1.438   5.814  0.1606 -0.1228 -0.2281
 4568TIP3    H135119   3.931   1.511   5.871  0.5853 -1.3737  1.2520
 4568TIP3    H235120   3.986   1.425   5.759  0.6386 -0.3656  0.4935
 4569TIP3   OH235121   5.719   5.731  11.457  0.4902  0.3128 -0.9619
 4569TIP3    H135122   5.732   5.824  11.436 -0.5873  0.4151 -1.2423
 4569TIP3    H235123   5.703   5.729  11.551 -1.2420  0.6223 -1.2384
 4570TIP3   OH235124   3.750   2.603   3.514 -0.0228  0.4094 -0.5436
 4570TIP3    H135125   3.833   2.558   3.497 -0.2626 -0.8502  1.5171
 4570TIP3    H235126   3.775   2.685   3.556  0.1998  0.2367 -0.3365
 4571TIP3   OH235127   4.560   5.858  13.570  0.2305 -0.0663 -0.3226
 4571TIP3    H135128   4.633   5.907  13.532  0.6095  0.4909  1.0821
 4571TIP3    H235129   4.586   5.766  13.563  1.1940  0.1400  0.3799
 4572TIP3   OH235130   2.095   0.221   0.781 -0.2734 -0.8958  0.5507
 4572TIP3    H135131   2.017   0.192   0.734 -0.7302  0.1833  0.6312
 4572TIP3    H235132   2.062   0.286   0.843  0.6994 -0.3813  0.5326
 4573TIP3   OH235133   0.223   5.712  10.845 -0.3499  0.5544 -0.1703
 4573TIP3    H135134   0.256   5.633  10.802 -1.5046 -1.1733  2.0081
 4573TIP3    H235135   0.300   5.769  10.853  0.6884 -0.6993 -0.9881
 4574TIP3   OH235136   1.317   1.159  12.339  0.7272  0.1544 -0.4624
 4574TIP3    H135137   1.277   1.130  12.421 -0.4760  0.4721 -0.9252
 4574TIP3    H235138   1.287   1.096  12.273 -1.9648  2.4036 -1.4910
 4575TIP3   OH235139   5.303   4.671  13.997 -0.5223  0.2707 -0.0707
 4575TIP3    H135140   5.310   4.680  13.902 -1.7793 -0.9742 -0.2984
 4575TIP3    H235141   5.388   4.634  14.023 -0.8693 -1.2218 -0.9740
 4576TIP3   OH235142   6.559   5.220   0.786  0.2686  0.1967  0.5924
 4576TIP3    H135143   6.495   5.153   0.762 -1.8462  2.2095  0.4064
 4576TIP3    H235144   6.639   5.172   0.804 -0.7462 -2.2168 -1.1444
 4577TIP3   OH235145   3.971   0.871  12.861 -0.1233 -0.0382  0.0013
 4577TIP3    H135146   3.909   0.940  12.837  0.4706 -0.3885 -2.6984
 4577TIP3    H235147   3.916   0.801  12.898 -1.4100 -0.3802 -2.4310
 4578TIP3   OH235148   4.308   3.527   4.215 -0.2182  0.3787  0.0171
 4578TIP3    H135149   4.218   3.505   4.192  0.1029  0.6271 -1.5350
 4578TIP3    H235150   4.303   3.617   4.248 -0.7429 -0.1142  1.2995
 4579TIP3   OH235151   4.111   1.813   0.780  0.5552  0.0400  0.1606
 4579TIP3    H135152   4.113   1.809   0.684 -1.4686  0.7927  0.0555
 4579TIP3    H235153   4.201   1.836   0.805  0.9803  0.3556 -1.5871
 4580TIP3   OH235154   6.120   0.261   0.607 -0.4363  0.0318 -0.4335
 4580TIP3    H135155   6.095   0.341   0.653  0.2881  0.7023 -1.1706
 4580TIP3    H235156   6.216   0.268   0.597 -0.4741 -0.5006 -1.2618
 4581TIP3   OH235157   3.771   2.759  16.668  0.4725 -0.2204  0.4354
 4581TIP3    H135158   3.677   2.753  16.685  0.2328 -1.5564 -1.2820
 4581TIP3    H235159   3.811   2.723  16.747 -0.4416  0.5330  1.2582
 4582TIP3   OH235160   3.616   6.768  13.851  0.2343  0.0219 -0.1083
 4582TIP3    H135161   3.539   6.737  13.899 -0.8218  0.1139 -1.6920
 4582TIP3    H235162   3.659   6.828  13.911 -1.6393  0.9423  0.3518
 4583TIP3   OH235163   0.707   1.681   4.520  0.3660 -0.1812 -0.6458
 4583TIP3    H135164   0.787   1.699   4.570  1.5417 -0.2158 -2.4813
 4583TIP3    H235165   0.682   1.766   4.484  0.3965 -0.4426 -1.2770
 4584TIP3   OH235166   1.767   0.471  14.587  0.2808  0.3210 -0.0749
 4584TIP3    H135167   1.780   0.482  14.681  0.2586 -2.6185  0.3351
 4584TIP3    H235168   1.842   0.513  14.547  0.4056  1.4167  1.2569
 4585TIP3   OH235169   1.267   3.608  13.947  0.2039  0.2232  0.3940
 4585TIP3    H135170   1.191   3.665  13.957 -0.3700 -0.2470 -1.1160
 4585TIP3    H235171   1.290   3.582  14.036 -1.9567 -0.3613  0.7896
 4586TIP3   OH235172   5.171   3.709   1.562  0.0621 -1.0555  0.3713
 4586TIP3    H135173   5.132   3.751   1.638 -1.7409  0.8385 -1.5097
 4586TIP3    H235174   5.110   3.637   1.541  0.2102 -1.1676  0.3243
 4587TIP3   OH235175   2.890   4.700   5.489 -0.4415 -0.4006  0.3761
 4587TIP3    H135176   2.906   4.777   5.435 -2.7498 -0.2130 -0.0802
 4587TIP3    H235177   2.897   4.626   5.429 -0.6521 -0.3691  0.3133
 4588TIP3   OH235178   6.655   4.840   5.109  0.0951  0.4800  0.2474
 4588TIP3    H135179   6.592   4.788   5.158 -0.5434  1.5156  0.5485
 4588TIP3    H235180   6.679   4.911   5.168  3.3223 -1.1436  1.0043
 4589TIP3   OH235181   6.530   5.137  12.606 -0.1923  0.2970 -0.1653
 4589TIP3    H135182   6.579   5.216  12.630 -2.4675  1.1393  1.8951
 4589TIP3    H235183   6.471   5.166  12.537 -0.5245  0.2358  0.0914
 4590TIP3   OH235184   5.483   4.929   6.062  0.3435  0.3959 -0.0126
 4590TIP3    H135185   5.528   4.898   5.983 -1.8089  2.3198 -2.0907
 4590TIP3    H235186   5.553   4.956   6.121  1.9884 -0.0154 -1.7177
 4591TIP3   OH235187   5.563   2.889  10.932  0.8543 -0.3666 -0.0466
 4591TIP3    H135188   5.494   2.918  10.992  1.9089  0.0033  1.0087
 4591TIP3    H235189   5.563   2.954  10.862 -0.6620 -1.0280 -0.6837
 4592TIP3   OH235190   2.598   1.427   2.688  0.1021 -0.7619  0.1946
 4592TIP3    H135191   2.522   1.390   2.642 -0.1451 -0.0950  0.0636
 4592TIP3    H235192   2.673   1.404   2.632  0.2623 -3.1883  1.3365
 4593TIP3   OH235193   3.823   4.953  15.159 -0.4970  0.4502 -0.3519
 4593TIP3    H135194   3.873   5.018  15.108  0.0267  0.8634  0.6826
 4593TIP3    H235195   3.844   4.972  15.250 -2.0656  0.2277  0.0772
 4594TIP3   OH235196   1.599   4.839   5.112  0.8829 -0.2425  0.1514
 4594TIP3    H135197   1.518   4.797   5.084 -0.3234  1.8531  0.3960
 4594TIP3    H235198   1.648   4.770   5.156 -1.6212 -1.0877  1.6912
 4595TIP3   OH235199   0.427   3.156  13.453  0.0797  0.1026  0.2212
 4595TIP3    H135200   0.355   3.135  13.513 -0.3276  0.9769  0.0317
 4595TIP3    H235201   0.504   3.116  13.494 -0.6149 -1.4392  0.0727
 4596TIP3   OH235202   0.344   0.585  10.779  0.0410  0.1592  0.0386
 4596TIP3    H135203   0.398   0.663  10.778 -1.3621  1.1654 -2.1478
 4596TIP3    H235204   0.291   0.593  10.858  0.7722  0.8012  0.4630
 4597TIP3   OH235205   2.081   1.532  11.873 -0.0502 -0.7801  0.2468
 4597TIP3    H135206   2.033   1.467  11.924 -0.7939  0.4143  1.0713
 4597TIP3    H235207   2.126   1.586  11.938  1.0919 -0.8588 -0.4576
 4598TIP3   OH235208   6.295   3.293   1.030  0.5925 -0.1838 -0.4344
 4598TIP3    H135209   6.351   3.368   1.051  0.4329 -0.4328  0.9277
 4598TIP3    H235210   6.290   3.293   0.935  2.9641 -0.1923 -0.5806
 4599TIP3   OH235211   3.863   3.440  16.119  0.1013  0.3685  0.2742
 4599TIP3    H135212   3.793   3.447  16.184  0.4026 -0.0692  0.6495
 4599TIP3    H235213   3.934   3.395  16.165  0.7091  1.0046 -0.0426
 4600TIP3   OH235214   5.113   6.658   4.575  0.0724  0.7189  0.4948
 4600TIP3    H135215   5.029   6.656   4.530 -0.0252  1.6244  0.6200
 4600TIP3    H235216   5.091   6.657   4.668  0.2572 -0.6448  0.5256
 4601TIP3   OH235217   0.617   6.398   0.918  0.2622  0.3913  0.7131
 4601TIP3    H135218   0.642   6.420   1.007 -0.7510  1.9523  0.6408
 4601TIP3    H235219   0.531   6.439   0.906  0.0430 -0.4281 -0.7308
 4602TIP3   OH235220   0.948   3.748  12.139  0.0713 -0.0282 -0.1452
 4602TIP3    H135221   0.988   3.742  12.226 -0.6676  1.3067  0.3052
 4602TIP3    H235222   0.854   3.748  12.157 -0.1335 -2.1286 -1.1197
 4603TIP3   OH235223   1.738   1.084  10.411  0.1624 -0.1600  0.2138
 4603TIP3    H135224   1.645   1.060  10.420 -0.2739  1.7566  0.9660
 4603TIP3    H235225   1.742   1.176  10.438  2.1801 -0.0335 -0.4558
 4604TIP3   OH235226   0.118   2.400   2.806 -0.0386 -0.7055 -0.0313
 4604TIP3    H135227   0.203   2.390   2.763  0.5830  1.3668  0.6333
 4604TIP3    H235228   0.081   2.312   2.807  1.7614 -1.5094 -1.0209
 4605TIP3   OH235229   3.628   4.449   0.691 -0.1886 -0.1483 -0.1600
 4605TIP3    H135230   3.695   4.504   0.651  1.3822 -0.2252  2.2499
 4605TIP3    H235231   3.610   4.382   0.626  1.4120  0.4190 -1.2158
 4606TIP3   OH235232   5.123   4.174  11.880  0.4066  0.8417 -0.0614
 4606TIP3    H135233   5.068   4.249  11.902  0.4861  1.0529 -0.5709
 4606TIP3    H235234   5.088   4.102  11.933  0.0789  1.1429  0.1340
 4607TIP3   OH235235   5.218   4.344  13.243 -0.0712  0.4550  0.2324
 4607TIP3    H135236   5.184   4.255  13.237  1.8149 -0.3314  0.7497
 4607TIP3    H235237   5.154   4.398  13.196 -0.4433 -1.3970 -1.4524
 4608TIP3   OH235238   6.155   3.974  14.120 -0.2348 -0.3031 -0.7046
 4608TIP3    H135239   6.119   3.957  14.033 -2.6745  1.9547 -0.2047
 4608TIP3    H235240   6.195   4.060  14.113 -0.7193  0.0224  0.4784
 4609TIP3   OH235241   6.331   1.104   0.895 -0.5293  0.3816 -0.3088
 4609TIP3    H135242   6.356   1.186   0.853  0.0780  0.4328  0.1381
 4609TIP3    H235243   6.307   1.129   0.984  1.0789 -0.1065  0.2786
 4610TIP3   OH235244   3.456   4.595   2.304  0.8810 -0.4444 -0.0232
 4610TIP3    H135245   3.390   4.574   2.370 -0.9051  2.1450 -0.8978
 4610TIP3    H235246   3.408   4.645   2.238  3.3668 -0.0703 -1.5927
 4611TIP3   OH235247   4.759   3.625   4.509  0.0553  0.3515  0.5236
 4611TIP3    H135248   4.667   3.648   4.497 -0.5786 -2.7785 -1.2229
 4611TIP3    H235249   4.758   3.555   4.574  0.8530 -1.8632 -1.7904
 4612TIP3   OH235250   0.232   6.583   4.444  0.0434 -0.4728 -0.0854
 4612TIP3    H135251   0.318   6.624   4.432  0.0409 -0.7949 -1.2195
 4612TIP3    H235252   0.179   6.615   4.372 -0.9197  0.0149  0.8215
 4613TIP3   OH235253   5.879   5.637  14.821  0.4565  0.3856  0.1612
 4613TIP3    H135254   5.858   5.663  14.732  0.7501 -3.1226 -1.0116
 4613TIP3    H235255   5.801   5.660  14.872 -1.2334 -0.9416 -1.7369
 4614TIP3   OH235256   1.201   5.187  16.551 -0.0400  0.5670 -0.5247
 4614TIP3    H135257   1.240   5.138  16.623  0.1276 -0.8820 -1.5735
 4614TIP3    H235258   1.107   5.189  16.571 -0.2013 -1.1887 -1.0443
 4615TIP3   OH235259   6.523   0.788  11.748 -0.1203 -0.3567  0.0209
 4615TIP3    H135260   6.569   0.851  11.692  0.5011  0.0050  0.9317
 4615TIP3    H235261   6.465   0.842  11.802  0.2668 -0.5814  0.6644
 4616TIP3   OH235262   5.786   5.946  14.166 -0.6025  0.2543  0.2345
 4616TIP3    H135263   5.826   5.860  14.157  0.1728  0.5235  1.0452
 4616TIP3    H235264   5.711   5.932  14.223 -0.1353  0.2127  0.8492
 4617TIP3   OH235265   3.460   0.967  10.979  0.5412  0.4323  0.1017
 4617TIP3    H135266   3.489   0.961  11.071  1.1686 -1.3013 -0.1771
 4617TIP3    H235267   3.509   1.040  10.943  1.6020  0.0393  0.7078
 4618TIP3   OH235268   2.076   2.213  14.121  0.7279 -0.9122  0.2767
 4618TIP3    H135269   2.059   2.194  14.029  0.5797 -1.4612  0.4175
 4618TIP3    H235270   2.021   2.151  14.169  0.6405 -0.4800  0.7336
 4619TIP3   OH235271   5.139   6.426  12.096  0.4367  0.2123  0.0789
 4619TIP3    H135272   5.140   6.485  12.020  0.2464  0.6615  0.4267
 4619TIP3    H235273   5.230   6.426  12.127  0.4171  0.4004  0.1376
 4620TIP3   OH235274   3.714   2.358  13.135  0.0653  0.7381  0.2907
 4620TIP3    H135275   3.679   2.294  13.073  1.6381 -3.4398  3.5184
 4620TIP3    H235276   3.809   2.350  13.126  0.2883  3.0797  0.3611
 4621TIP3   OH235277   0.145   5.589  17.235  0.4549 -0.1905  0.0126
 4621TIP3    H135278   0.107   5.581  17.148 -1.1082 -2.3122  0.8456
 4621TIP3    H235279   0.118   5.676  17.264 -2.0711 -0.8180 -0.2639
 4622TIP3   OH235280   2.246   2.236  15.248 -0.2709 -0.5046  0.2195
 4622TIP3    H135281   2.179   2.291  15.289  1.7487  1.1676  1.4339
 4622TIP3    H235282   2.225   2.147  15.277 -0.5130  0.3114  2.6629
 4623TIP3   OH235283   6.529   2.405  16.059 -0.5732 -0.8307  0.2783
 4623TIP3    H135284   6.487   2.481  16.099  0.6948 -0.6684  1.3137
 4623TIP3    H235285   6.582   2.441  15.988  0.4809 -0.6882  1.1356
 4624TIP3   OH235286   4.339   3.229   5.813 -0.6941 -0.5667  0.4445
 4624TIP3    H135287   4.323   3.283   5.890  0.9138 -0.8248  0.9715
 4624TIP3    H235288   4.424   3.259   5.780 -1.3969 -0.3798 -1.3037
 4625TIP3   OH235289   2.369   1.189   4.655 -1.0531 -0.3777  0.0767
 4625TIP3    H135290   2.400   1.277   4.637  1.5163 -1.7232 -2.6020
 4625TIP3    H235291   2.428   1.157   4.724  0.2597 -1.1358 -1.3614
 4626TIP3   OH235292   4.765   3.070   0.779  0.4471  0.1142 -0.3902
 4626TIP3    H135293   4.787   3.023   0.699 -0.5849  1.4792 -1.5026
 4626TIP3    H235294   4.690   3.021   0.815  2.5358 -2.0497  1.1795
 4627TIP3   OH235295   5.410   6.516  12.156  0.4776 -0.1591  0.2765
 4627TIP3    H135296   5.489   6.570  12.160  0.6495 -0.4099  0.2895
 4627TIP3    H235297   5.358   6.554  12.086  0.7072 -0.1237  0.1247
 4628TIP3   OH235298   5.784   6.620   1.575 -0.1183 -0.6403 -0.2153
 4628TIP3    H135299   5.812   6.677   1.504  1.5800 -1.7412 -0.4627
 4628TIP3    H235300   5.773   6.678   1.650 -0.0140  0.2480 -0.8791
 4629TIP3   OH235301   4.920   5.127   5.549  0.2877 -1.1030 -0.7248
 4629TIP3    H135302   4.904   5.172   5.632  0.6806 -1.8366 -0.2386
 4629TIP3    H235303   5.012   5.143   5.530  0.5347 -2.0287 -0.3377
 4630TIP3   OH235304   4.389   0.636  13.849 -0.1159 -0.3755 -0.0674
 4630TIP3    H135305   4.351   0.620  13.936  2.4136  0.8264  1.3293
 4630TIP3    H235306   4.421   0.726  13.855  1.3438 -0.7794 -1.7859
 4631TIP3   OH235307   3.061   0.076  15.771 -0.0769 -0.1817 -0.1405
 4631TIP3    H135308   2.975   0.100  15.737  0.2665  1.2450 -0.0155
 4631TIP3    H235309   3.061   0.105  15.862  1.6161  2.6267 -0.9878
 4632TIP3   OH235310   6.722   4.970   6.172 -0.5218 -0.1007  0.0246
 4632TIP3    H135311   6.674   4.962   6.255  1.2583  0.8317  1.1838
 4632TIP3    H235312   6.718   5.063   6.150  0.1791 -0.1149 -0.1955
 4633TIP3   OH235313   5.654   0.462  15.634  0.2610 -0.3679  0.6440
 4633TIP3    H135314   5.744   0.493  15.639 -0.3644  1.9889 -1.3930
 4633TIP3    H235315   5.604   0.524  15.687 -0.5219  0.1049 -0.6134
 4634TIP3   OH235316   3.995   1.026   0.159  0.2328  0.0930 -0.4602
 4634TIP3    H135317   3.956   0.967   0.095  0.0406 -0.2657 -0.0155
 4634TIP3    H235318   3.950   1.110   0.146  0.9260  0.3072 -1.4992
 4635TIP3   OH235319   5.352   2.787  14.610  0.1941 -0.1257  0.1519
 4635TIP3    H135320   5.408   2.865  14.611 -1.0876  0.8338 -0.9906
 4635TIP3    H235321   5.355   2.757  14.519 -1.8196  0.4435 -0.1110
 4636TIP3   OH235322   0.094   6.594  11.336  0.4538 -0.3628 -0.2332
 4636TIP3    H135323   0.110   6.568  11.427 -0.6751  1.2369  0.4565
 4636TIP3    H235324   0.015   6.546  11.311 -0.0955  0.3279  0.1473
 4637TIP3   OH235325   3.427   3.006   0.908  0.0116 -0.3348  0.0054
 4637TIP3    H135326   3.516   2.987   0.877 -0.0555 -0.0406 -0.3709
 4637TIP3    H235327   3.400   2.927   0.954  0.3796 -0.5139 -0.0836
 4638TIP3   OH235328   3.050   1.458  11.760  0.0528  0.0803  0.9763
 4638TIP3    H135329   2.974   1.509  11.729 -0.7060 -1.4958  0.2000
 4638TIP3    H235330   3.123   1.491  11.708 -0.2650  0.9730  1.0800
 4639TIP3   OH235331   5.161   5.972   2.554 -0.0982  0.4142 -0.2720
 4639TIP3    H135332   5.220   6.020   2.612  1.7072  2.7631 -3.7934
 4639TIP3    H235333   5.216   5.905   2.514 -1.3758 -1.3386  0.8499
 4640TIP3   OH235334   3.600   4.967  16.467  0.1969  0.2631 -0.0002
 4640TIP3    H135335   3.513   5.002  16.446 -0.3758 -1.8024 -1.2388
 4640TIP3    H235336   3.621   5.006  16.552 -1.9062  0.8817  0.2796
 4641TIP3   OH235337   0.685   3.040   5.067 -0.1123 -0.5882  0.2932
 4641TIP3    H135338   0.626   3.086   5.127 -1.5226 -0.7917 -0.9214
 4641TIP3    H235339   0.667   3.078   4.982  0.6320 -1.5159 -0.2828
 4642TIP3   OH235340   1.375   1.460   4.479  0.2203  0.0289  0.1206
 4642TIP3    H135341   1.338   1.423   4.560  1.1834  0.9977  1.0095
 4642TIP3    H235342   1.365   1.390   4.415 -3.9758  0.5430  0.0820
 4643TIP3   OH235343   1.414   6.335  12.213  0.2652  0.2126  0.0564
 4643TIP3    H135344   1.479   6.385  12.163 -2.5155  0.6706 -3.3225
 4643TIP3    H235345   1.365   6.401  12.262  0.6557  0.1275  0.5672
 4644TIP3   OH235346   5.523   2.050   1.437  0.1702 -0.0013 -0.5169
 4644TIP3    H135347   5.597   2.028   1.381 -1.7220 -0.0486 -3.0700
 4644TIP3    H235348   5.487   1.966   1.466 -0.7927 -0.0873 -1.8942
 4645TIP3   OH235349   2.461   5.483  11.563  0.3431 -0.0605  0.4406
 4645TIP3    H135350   2.528   5.550  11.549 -0.6921  0.5092 -2.0435
 4645TIP3    H235351   2.381   5.521  11.526 -0.7477 -1.8063  0.9508
 4646TIP3   OH235352   0.060   4.303  11.436 -0.0716 -0.1227 -0.8212
 4646TIP3    H135353   0.128   4.369  11.450 -2.6168  2.6459 -0.9654
 4646TIP3    H235354   0.081   4.265  11.351 -0.1567  2.5365 -2.0700
 4647TIP3   OH235355   5.460   3.852   2.969  0.0117 -0.7952  0.1101
 4647TIP3    H135356   5.368   3.830   2.986 -0.2340 -1.2308 -1.6429
 4647TIP3    H235357   5.496   3.872   3.055 -1.7057 -0.6996  0.8381
 4648TIP3   OH235358   0.484   0.134  12.055  0.4555  0.4655  0.0640
 4648TIP3    H135359   0.425   0.162  11.985  0.4360 -0.0647 -0.1378
 4648TIP3    H235360   0.564   0.110  12.010  1.1505  2.0600  0.4304
 4649TIP3   OH235361   5.522   5.263  10.398  1.2927  0.4229 -0.8216
 4649TIP3    H135362   5.617   5.259  10.405  1.2027  0.8940  1.0529
 4649TIP3    H235363   5.495   5.317  10.473 -0.3833  1.0230 -1.8262
 4650TIP3   OH235364   3.137   0.412  15.713 -0.2186 -0.0695  0.7404
 4650TIP3    H135365   3.158   0.470  15.639 -1.3837  1.3990  1.5235
 4650TIP3    H235366   3.042   0.418  15.721 -0.3819 -2.2925  0.7181
 4651TIP3   OH235367   6.101   1.519  12.381  0.2641 -0.1982 -0.0801
 4651TIP3    H135368   6.048   1.573  12.322  0.7520 -1.8623 -2.1174
 4651TIP3    H235369   6.039   1.485  12.445 -0.8348 -0.7750 -1.4313
 4652TIP3   OH235370   2.149   1.785  16.233  0.1377  0.4236 -0.3402
 4652TIP3    H135371   2.215   1.760  16.297 -0.2414 -1.0984 -0.5336
 4652TIP3    H235372   2.193   1.850  16.178  1.3258 -0.2283 -0.1737
 4653TIP3   OH235373   2.591   4.077  13.491 -0.0421 -0.0961  0.1061
 4653TIP3    H135374   2.647   4.035  13.556 -1.0268 -2.4187 -0.4545
 4653TIP3    H235375   2.523   4.011  13.473 -0.1539  0.7327 -2.7792
 4654TIP3   OH235376   4.334   4.224  13.410  0.2480  0.2900 -0.3678
 4654TIP3    H135377   4.408   4.195  13.356  0.1126  0.9232 -0.9075
 4654TIP3    H235378   4.265   4.160  13.393  0.8681 -0.6665  0.6244
 4655TIP3   OH235379   5.455   4.169   1.544 -0.3911  0.0548 -0.2365
 4655TIP3    H135380   5.524   4.217   1.500  0.6513  0.5236  1.8447
 4655TIP3    H235381   5.467   4.189   1.637 -1.7240 -1.9147  0.4000
 4656TIP3   OH235382   1.831   0.844   4.404  0.5420 -0.5640 -0.6504
 4656TIP3    H135383   1.882   0.776   4.361 -0.3042 -1.2758 -0.5432
 4656TIP3    H235384   1.742   0.809   4.407  0.3113  0.0811  0.3809
 4657TIP3   OH235385   5.665   5.723  13.706  0.4617 -0.0734  0.1064
 4657TIP3    H135386   5.693   5.742  13.616 -0.9105 -0.9796 -0.5086
 4657TIP3    H235387   5.728   5.658  13.737  0.1112 -0.8023 -0.6837
 4658TIP3   OH235388   1.716   4.193   4.230 -0.4822 -0.1199 -0.5068
 4658TIP3    H135389   1.738   4.278   4.193  0.1246  0.6427  1.5667
 4658TIP3    H235390   1.766   4.130   4.177 -2.5191  0.5709 -3.3881
 4659TIP3   OH235391   1.205   6.123  15.127 -0.0685  0.7331 -0.1348
 4659TIP3    H135392   1.111   6.120  15.142  0.0236  1.3003  0.5730
 4659TIP3    H235393   1.231   6.031  15.120 -0.7322  0.5890 -0.7200
 4660TIP3   OH235394   5.694   0.097   5.035 -0.1303  0.6286  0.1263
 4660TIP3    H135395   5.700   0.030   4.966 -0.5342  0.6428  0.0780
 4660TIP3    H235396   5.752   0.167   5.005 -1.6211  1.3920 -1.0481
 4661TIP3   OH235397   3.082   2.251  16.327  0.4028 -0.0863  0.2648
 4661TIP3    H135398   3.127   2.176  16.288 -0.6031 -1.6121  1.9436
 4661TIP3    H235399   2.992   2.220  16.338 -0.0509  1.4338  0.8264
 4662TIP3   OH235400   1.093   1.282  13.860 -0.0666 -0.3302  0.1016
 4662TIP3    H135401   1.008   1.252  13.828  0.5394  0.8615 -2.7133
 4662TIP3    H235402   1.081   1.376  13.876  0.8886 -0.0335 -0.9039
 4663TIP3   OH235403   6.654   2.667  12.676 -0.4473  0.1554  0.0417
 4663TIP3    H135404   6.727   2.646  12.734 -0.9712  1.2593  1.1264
 4663TIP3    H235405   6.576   2.654  12.730 -0.9219  1.5697 -0.2794
 4664TIP3   OH235406   5.811   1.041   5.747  0.0316 -0.2096 -0.3730
 4664TIP3    H135407   5.820   0.981   5.821  0.6450  0.1337 -0.1651
 4664TIP3    H235408   5.874   1.111   5.764  0.1920 -0.1319 -1.2272
 4665TIP3   OH235409   4.792   4.939   2.883  0.3587  0.5833  0.2399
 4665TIP3    H135410   4.816   4.917   2.973  1.5015 -1.2921 -0.5040
 4665TIP3    H235411   4.698   4.922   2.879 -0.0185  2.1687  1.4792
 4666TIP3   OH235412   4.005   1.813  14.768  0.6155 -0.2939  0.2284
 4666TIP3    H135413   3.991   1.724  14.799 -1.9938  0.0484  0.1660
 4666TIP3    H235414   3.936   1.864  14.811  0.7308  1.2789 -1.4103
 4667TIP3   OH235415   2.966   6.023  16.430 -0.3838 -0.5056 -0.4545
 4667TIP3    H135416   3.056   6.034  16.399  0.0154  0.6886  1.0350
 4667TIP3    H235417   2.915   6.081  16.374  0.0749  0.2686 -0.0968
 4668TIP3   OH235418   1.662   4.585   0.804 -0.3319  0.2753 -0.2921
 4668TIP3    H135419   1.622   4.560   0.888  0.8855  2.2908  0.9348
 4668TIP3    H235420   1.754   4.563   0.814 -0.2301  0.2619 -1.2309
 4669TIP3   OH235421   0.850   0.305   2.271 -0.0709  0.3483  0.3262
 4669TIP3    H135422   0.770   0.357   2.269 -0.9366 -0.9903 -1.5091
 4669TIP3    H235423   0.894   0.327   2.189 -0.3155 -1.5813 -0.3412
 4670TIP3   OH235424   0.645   2.997   0.766 -0.1665 -0.1399  0.4218
 4670TIP3    H135425   0.630   2.981   0.673  1.5800  1.1387 -0.1228
 4670TIP3    H235426   0.711   3.067   0.768 -1.1822  0.8186  2.6260
 4671TIP3   OH235427   3.925   4.908  11.308  0.4986  0.3129  0.4589
 4671TIP3    H135428   3.967   4.842  11.252 -1.6808  1.1332 -2.3110
 4671TIP3    H235429   3.981   4.985  11.300  1.0378 -0.0572  0.6559
 4672TIP3   OH235430   6.123   2.123  12.118 -0.2164  0.1985 -0.4562
 4672TIP3    H135431   6.208   2.085  12.097 -1.2695 -1.7724 -1.2640
 4672TIP3    H235432   6.071   2.050  12.152 -2.2868  0.8905 -2.0343
 4673TIP3   OH235433   6.263   0.633  14.563  0.3418 -0.0323 -0.2175
 4673TIP3    H135434   6.185   0.611  14.510  1.5387 -1.8655 -1.2973
 4673TIP3    H235435   6.336   0.620  14.503  1.6466 -0.8155  1.5136
 4674TIP3   OH235436   3.850   1.604  16.355  0.3312 -0.2067 -0.4712
 4674TIP3    H135437   3.884   1.665  16.289  0.8629 -1.2204 -1.1434
 4674TIP3    H235438   3.906   1.618  16.431 -0.9011  1.6736  0.1287
 4675TIP3   OH235439   6.335   2.751  14.436  0.3812 -0.0212 -0.4047
 4675TIP3    H135440   6.291   2.674  14.400 -2.7155  1.8083 -0.7059
 4675TIP3    H235441   6.345   2.733  14.529 -0.7149 -0.6144 -0.3991
 4676TIP3   OH235442   0.146   1.045  16.964  0.0825  0.2496 -0.1296
 4676TIP3    H135443   0.181   1.132  16.943  2.2584 -0.7404 -0.6773
 4676TIP3    H235444   0.176   1.028  17.053 -0.8695  0.3173  0.2076
 4677TIP3   OH235445   2.839   2.202  12.416 -0.1072  0.1899  0.8148
 4677TIP3    H135446   2.905   2.137  12.391 -0.0569 -0.0201  1.4877
 4677TIP3    H235447   2.889   2.278  12.445 -0.1336 -0.4945  2.7240
 4678TIP3   OH235448   1.150   5.108   5.722  0.7250 -0.1859  0.3390
 4678TIP3    H135449   1.165   5.105   5.816  0.1064  1.3099  0.4904
 4678TIP3    H235450   1.177   5.021   5.691  0.3618 -0.9049  1.9704
 4679TIP3   OH235451   6.373   3.215  16.512  0.2333  0.7855 -0.1349
 4679TIP3    H135452   6.399   3.300  16.478  1.0666 -0.0803 -1.7172
 4679TIP3    H235453   6.454   3.178  16.547  0.5155 -0.6175 -2.2216
 4680TIP3   OH235454   6.682   0.541  15.319  0.8362  0.1044  0.4421
 4680TIP3    H135455   6.697   0.635  15.307 -0.5858  0.4607  1.2684
 4680TIP3    H235456   6.597   0.537  15.363  1.1056 -1.5581  0.8066
 4681TIP3   OH235457   5.344   5.757   2.035  0.1335  0.2811 -0.0891
 4681TIP3    H135458   5.340   5.851   2.053 -1.4785  0.0391  0.8892
 4681TIP3    H235459   5.281   5.744   1.964  0.4557 -0.0354 -0.3147
 4682TIP3   OH235460   0.543   2.497   3.531  0.7779  0.4757 -0.3481
 4682TIP3    H135461   0.577   2.455   3.610  0.6082  1.1633  0.0943
 4682TIP3    H235462   0.463   2.448   3.511 -0.4851  1.7621  1.2869
 4683TIP3   OH235463   2.459   3.378   5.558 -0.5768  0.1159  0.3928
 4683TIP3    H135464   2.439   3.318   5.486 -0.2376  0.0842  0.3213
 4683TIP3    H235465   2.555   3.385   5.557 -0.6327  0.8406  0.2547
 4684TIP3   OH235466   1.894   1.579   4.353 -0.1285 -0.4866 -0.4165
 4684TIP3    H135467   1.819   1.523   4.331 -0.6449 -0.0642  0.2767
 4684TIP3    H235468   1.856   1.652   4.401  0.7453 -0.3136  0.0084
 4685TIP3   OH235469   4.223   6.340  12.146 -0.5830  0.3993 -0.2882
 4685TIP3    H135470   4.294   6.281  12.172 -2.9683 -1.8070  1.6052
 4685TIP3    H235471   4.226   6.341  12.051  0.0604 -2.1878 -0.3477
 4686TIP3   OH235472   3.813   6.741   4.055 -0.2801  0.4428 -1.0984
 4686TIP3    H135473   3.739   6.681   4.047 -0.8391  1.2233 -1.8910
 4686TIP3    H235474   3.888   6.684   4.071 -0.8361 -0.4596 -1.6237
 4687TIP3   OH235475   1.416   3.542  12.973 -0.1145  0.2718  0.3921
 4687TIP3    H135476   1.462   3.502  12.898  1.6558  1.5936  0.7219
 4687TIP3    H235477   1.458   3.503  13.050 -0.3863  0.5927  0.7031
 4688TIP3   OH235478   4.905   5.974   4.808 -0.6014  0.0717  0.3688
 4688TIP3    H135479   4.883   5.973   4.901  0.0877 -0.7158  0.5342
 4688TIP3    H235480   4.901   5.882   4.782 -0.6519  0.2747 -0.3431
 4689TIP3   OH235481   1.898   4.559  14.556  0.6926 -0.0010 -0.3844
 4689TIP3    H135482   1.833   4.580  14.489  1.9221  1.7746 -1.0817
 4689TIP3    H235483   1.977   4.537  14.506  0.9690 -0.9751  0.4640
 4690TIP3   OH235484   2.837   0.165   3.307 -0.0079 -0.2244 -0.0299
 4690TIP3    H135485   2.827   0.224   3.232  0.5559  2.4074  1.9307
 4690TIP3    H235486   2.893   0.094   3.273  0.8838  1.3075 -1.8874
 4691TIP3   OH235487   4.731   3.444   2.913 -0.4883 -0.1445  0.7626
 4691TIP3    H135488   4.638   3.427   2.899 -0.6077  0.4520  0.8518
 4691TIP3    H235489   4.775   3.375   2.862 -0.9644  0.2153 -0.1438
 4692TIP3   OH235490   5.359   1.557   3.788 -0.3970  0.3598  0.0479
 4692TIP3    H135491   5.419   1.619   3.747 -1.0210  1.0401  0.1718
 4692TIP3    H235492   5.392   1.471   3.761  0.4103  0.7436 -0.1910
 4693TIP3   OH235493   2.299   3.402   1.737 -0.0391 -0.2803 -0.6193
 4693TIP3    H135494   2.227   3.438   1.686  1.0027 -0.1480 -2.0329
 4693TIP3    H235495   2.329   3.475   1.791 -1.6680 -0.6401  0.8035
 4694TIP3   OH235496   0.256   2.418   0.475 -0.2056 -0.3643 -0.1565
 4694TIP3    H135497   0.350   2.424   0.493 -0.7053  0.3733  2.4590
 4694TIP3    H235498   0.246   2.454   0.387  1.8009  0.7866  0.0623
 4695TIP3   OH235499   5.650   0.687  11.957 -0.1969  0.8082 -0.4063
 4695TIP3    H135500   5.653   0.777  11.923  1.0306  0.8662 -0.1637
 4695TIP3    H235501   5.730   0.678  12.008 -0.8306 -0.0915  0.4510
 4696TIP3   OH235502   3.414   4.436  13.554  0.2901  0.1850 -0.2517
 4696TIP3    H135503   3.377   4.403  13.636  0.2913 -1.8134 -1.0046
 4696TIP3    H235504   3.502   4.463  13.577 -0.1663  0.9108  0.6792
 4697TIP3   OH235505   6.495   0.779  14.207 -0.4256 -0.5653  0.5901
 4697TIP3    H135506   6.475   0.849  14.269  0.1601  0.4458 -0.3301
 4697TIP3    H235507   6.442   0.800  14.130  0.2588 -0.7546  0.0596
 4698TIP3   OH235508   1.921   5.435  11.868  0.2620 -0.2727 -0.5790
 4698TIP3    H135509   1.958   5.428  11.780 -0.7354 -3.2196 -0.8136
 4698TIP3    H235510   1.839   5.484  11.855 -0.0481 -0.9711 -1.3697
 4699TIP3   OH235511   3.226   4.935   5.107 -0.4342  0.1844  0.2461
 4699TIP3    H135512   3.257   4.855   5.150 -1.1641 -0.0695  0.3119
 4699TIP3    H235513   3.254   4.926   5.016  0.1162  0.1910  0.4149
 4700TIP3   OH235514   0.693   5.869   1.237  0.6762  0.8876  0.2118
 4700TIP3    H135515   0.741   5.802   1.287 -0.1154  1.4556  1.7774
 4700TIP3    H235516   0.647   5.919   1.304 -1.1153  1.1245 -1.1811
 4701TIP3   OH235517   1.193   6.705   2.432 -0.0773 -0.3677 -0.0301
 4701TIP3    H135518   1.236   6.678   2.513  2.5441  1.2528 -0.8051
 4701TIP3    H235519   1.144   6.784   2.456 -0.3100 -0.5957  0.2468
 4702TIP3   OH235520   4.447   3.178  15.332 -0.4635  0.1244 -0.0369
 4702TIP3    H135521   4.390   3.220  15.397  1.6515  1.7880  0.7957
 4702TIP3    H235522   4.412   3.206  15.248 -0.9599  1.0280  0.4608
 4703TIP3   OH235523   2.853   0.190  13.587  0.2339  0.1939  0.1700
 4703TIP3    H135524   2.781   0.196  13.524  1.4835 -0.8395 -1.3861
 4703TIP3    H235525   2.920   0.138  13.543  1.1111 -0.6379  2.4006
 4704TIP3   OH235526   3.743   4.394   5.019 -0.3351  0.0963  0.0549
 4704TIP3    H135527   3.797   4.472   5.014 -0.7162  0.2481 -2.6442
 4704TIP3    H235528   3.659   4.425   5.052 -0.2106  0.6829 -0.1699
 4705TIP3   OH235529   5.396   5.576   6.337  0.0675  0.3954 -0.0019
 4705TIP3    H135530   5.356   5.643   6.392  0.8290 -0.2202  1.3026
 4705TIP3    H235531   5.399   5.615   6.250 -4.0472  0.2234 -0.3307
 4706TIP3   OH235532   5.853   0.971  16.510 -0.5010  0.1167 -0.2815
 4706TIP3    H135533   5.944   0.943  16.519 -0.4483  0.2145 -0.5130
 4706TIP3    H235534   5.842   0.988  16.417 -1.0921 -1.0056 -0.4242
 4707TIP3   OH235535   0.107   4.773  15.430 -0.2801 -0.1401  0.2656
 4707TIP3    H135536   0.159   4.718  15.371 -2.5950  0.9158 -2.8627
 4707TIP3    H235537   0.151   4.858  15.429 -0.2828 -0.1407  0.1473
 4708TIP3   OH235538   3.171   6.562  11.602 -0.6329 -0.0854 -0.1917
 4708TIP3    H135539   3.121   6.640  11.580 -0.9351 -0.2538 -0.0999
 4708TIP3    H235540   3.190   6.570  11.695  2.6021  1.7559 -0.9315
 4709TIP3   OH235541   0.573   5.336  12.523  0.2394  0.2244  0.3631
 4709TIP3    H135542   0.580   5.303  12.434 -1.1046  1.9585 -0.4172
 4709TIP3    H235543   0.617   5.421  12.521  0.1022  0.3243  1.3227
 4710TIP3   OH235544   3.513   6.623   2.704  0.1531 -0.7443  0.1338
 4710TIP3    H135545   3.470   6.556   2.651 -0.4175 -2.1692  2.3680
 4710TIP3    H235546   3.605   6.595   2.707 -0.3992 -2.3744  2.4673
 4711TIP3   OH235547   2.614   4.703  16.817 -0.3436 -0.1153  0.2175
 4711TIP3    H135548   2.641   4.794  16.806  0.1015 -0.5254 -2.4943
 4711TIP3    H235549   2.537   4.707  16.873 -0.1262  1.9020  0.3920
 4712TIP3   OH235550   6.078   6.581  13.892  1.1587 -0.5438  0.0199
 4712TIP3    H135551   6.021   6.650  13.925  1.6073  0.5558 -1.4549
 4712TIP3    H235552   6.167   6.614  13.905  1.4029 -1.2191  0.1088
 4713TIP3   OH235553   5.627   2.077  16.177 -0.4072 -0.3815  0.0385
 4713TIP3    H135554   5.612   2.008  16.112  2.3515 -1.4091  0.4476
 4713TIP3    H235555   5.700   2.129  16.141  0.0583  0.0212  1.5328
 4714TIP3   OH235556   6.005   1.284  13.569  0.0254  0.1714  0.5850
 4714TIP3    H135557   5.990   1.370  13.607 -0.4826  0.4676 -0.2681
 4714TIP3    H235558   6.088   1.293  13.522 -0.3048  0.3605  0.0339
 4715TIP3   OH235559   1.736   0.759  14.999  0.3803  0.1005  0.2517
 4715TIP3    H135560   1.732   0.854  15.000 -1.9235  0.0461  0.2172
 4715TIP3    H235561   1.646   0.731  15.015  1.0194 -2.0743  0.2681
 4716TIP3   OH235562   1.943   1.978   0.470 -0.5428  0.6603 -0.4181
 4716TIP3    H135563   1.922   1.967   0.378 -1.3595 -2.0627  0.0332
 4716TIP3    H235564   2.037   1.993   0.472 -0.4298  0.1412 -1.6842
 4717TIP3   OH235565   5.008   2.956  13.374 -0.0956  0.1937  0.6291
 4717TIP3    H135566   4.933   2.907  13.342  0.6155 -1.1412  0.9722
 4717TIP3    H235567   5.062   2.973  13.297  0.0336 -0.2400  0.6217
 4718TIP3   OH235568   6.027   6.066   0.552 -0.2476  0.3346 -0.2614
 4718TIP3    H135569   6.064   6.059   0.639  0.3622  0.0231 -0.5443
 4718TIP3    H235570   5.939   6.028   0.560 -0.1755  0.2699  0.1977
 4719TIP3   OH235571   1.981   2.654  11.293 -0.1412 -0.2115 -0.4403
 4719TIP3    H135572   1.921   2.588  11.258  1.2718 -0.8621 -1.6986
 4719TIP3    H235573   2.064   2.637  11.248  0.7812  1.1551  0.7078
 4720TIP3   OH235574   1.484   3.805  16.835 -0.4032 -0.2956  0.2411
 4720TIP3    H135575   1.537   3.767  16.765  0.2265 -0.8961  1.0399
 4720TIP3    H235576   1.458   3.731  16.889  0.3106  0.3111  1.4466
 4721TIP3   OH235577   6.351   4.056   6.213  0.2416 -0.4906 -0.2131
 4721TIP3    H135578   6.328   4.123   6.278 -0.5940  1.1746 -2.1883
 4721TIP3    H235579   6.370   3.978   6.265 -2.3589  0.2513  1.9482
 4722TIP3   OH235580   4.839   5.207   2.520  0.1375 -0.1282  0.3031
 4722TIP3    H135581   4.867   5.140   2.459 -0.1381  0.3607 -0.3648
 4722TIP3    H235582   4.755   5.176   2.554  0.0319 -0.1358  0.0288
 4723TIP3   OH235583   1.395   2.402   4.388  0.3726  0.3784  0.3820
 4723TIP3    H135584   1.346   2.344   4.330  0.8867  1.1618 -0.8792
 4723TIP3    H235585   1.346   2.403   4.470 -0.8920 -0.0049 -0.3623
 4724TIP3   OH235586   3.220   0.672  12.758 -0.0501  0.0612 -0.2180
 4724TIP3    H135587   3.158   0.738  12.789 -0.4386 -0.6704  0.5847
 4724TIP3    H235588   3.293   0.723  12.724  0.9903  0.9398  3.0640
 4725TIP3   OH235589   3.653   4.761   5.162  0.0436  0.1117 -0.5883
 4725TIP3    H135590   3.606   4.744   5.081 -1.4686  2.7856 -0.3222
 4725TIP3    H235591   3.662   4.857   5.165  1.6929 -0.0741  1.5040
 4726TIP3   OH235592   4.292   6.655   2.464 -0.2587 -0.2450 -0.3649
 4726TIP3    H135593   4.297   6.566   2.429 -2.6755  0.2320 -2.0166
 4726TIP3    H235594   4.296   6.711   2.387 -1.5119  0.9652  0.4260
 4727TIP3   OH235595   0.554   2.087   6.075 -0.6722  0.6843  0.5059
 4727TIP3    H135596   0.622   2.025   6.052 -2.0111 -1.8218  2.9901
 4727TIP3    H235597   0.586   2.131   6.154 -0.9837  1.0865  0.4156
 4728TIP3   OH235598   0.830   1.237  12.226  0.0690 -0.0387  0.4689
 4728TIP3    H135599   0.899   1.267  12.167 -0.9774  0.0278 -0.7351
 4728TIP3    H235600   0.851   1.146  12.243  0.6161  0.0608  0.3295
 4729TIP3   OH235601   1.815   5.641   2.998  0.1975 -0.7201  0.0420
 4729TIP3    H135602   1.773   5.584   3.063  0.4700 -0.3276  0.5660
 4729TIP3    H235603   1.816   5.589   2.918 -0.3700 -1.1163  0.2872
 4730TIP3   OH235604   5.317   1.612   3.236  0.2280 -0.0129 -0.5699
 4730TIP3    H135605   5.310   1.542   3.171 -0.8385  0.1859 -0.6783
 4730TIP3    H235606   5.305   1.568   3.320 -1.2470  0.1650 -0.6904
 4731TIP3   OH235607   2.104   0.450  14.857  0.6721  0.2738  0.0431
 4731TIP3    H135608   2.011   0.442  14.838  0.4974  1.3227  0.4293
 4731TIP3    H235609   2.108   0.455  14.953  1.0745  0.7479  0.0043
 4732TIP3   OH235610   4.713   1.392   2.876  0.0060 -0.0023  0.6251
 4732TIP3    H135611   4.807   1.404   2.866 -0.0451  1.4001  1.7264
 4732TIP3    H235612   4.679   1.480   2.892 -1.2386 -0.7311  2.1409
 4733TIP3   OH235613   2.158   3.323   3.240 -0.0452 -0.0097  0.5810
 4733TIP3    H135614   2.231   3.339   3.301  0.1145 -0.0763  0.4086
 4733TIP3    H235615   2.081   3.317   3.296  0.0780  0.0933  0.7625
 4734TIP3   OH235616   3.528   0.292   1.957 -0.1045  0.1821  0.2154
 4734TIP3    H135617   3.606   0.257   2.000 -0.8375 -0.4077  1.0868
 4734TIP3    H235618   3.498   0.361   2.016 -0.2092  0.4508 -0.1519
 4735TIP3   OH235619   2.681   1.294   0.600  0.0208  0.0920 -0.0802
 4735TIP3    H135620   2.712   1.246   0.523  0.7452  0.0866  0.2144
 4735TIP3    H235621   2.606   1.345   0.567  1.3667  1.3964 -1.1946
 4736TIP3   OH235622   4.809   3.303  16.418  0.0134 -0.3088  0.1523
 4736TIP3    H135623   4.746   3.375  16.415  0.2479 -0.1600 -1.5589
 4736TIP3    H235624   4.756   3.224  16.407  0.1120 -0.1671 -1.5851
 4737TIP3   OH235625   5.285   2.147   1.200 -0.4961  0.2054 -0.0861
 4737TIP3    H135626   5.342   2.071   1.209  0.0127  0.5336 -0.5007
 4737TIP3    H235627   5.300   2.177   1.110 -0.5696  0.8943  0.1321
 4738TIP3   OH235628   1.152   4.177   2.994  0.0657  0.1911  0.1049
 4738TIP3    H135629   1.098   4.102   3.020  0.0974 -0.7981 -2.4474
 4738TIP3    H235630   1.175   4.220   3.076 -3.8848  0.1586  1.3387
 4739TIP3   OH235631   0.781   0.221   2.834  0.1635  0.3645 -0.0790
 4739TIP3    H135632   0.766   0.308   2.797  1.1562  0.8364  0.6209
 4739TIP3    H235633   0.769   0.233   2.928 -4.2173 -1.2175 -0.3158
 4740TIP3   OH235634   1.447   1.428   2.780 -0.3503  0.2360  0.0927
 4740TIP3    H135635   1.390   1.425   2.858 -1.5128 -0.5059 -0.7671
 4740TIP3    H235636   1.535   1.436   2.816 -0.8128 -0.7612  1.5288
 4741TIP3   OH235637   0.346   1.224  15.251 -0.0421 -0.0132  0.4015
 4741TIP3    H135638   0.369   1.316  15.260  1.2201 -0.4470  1.8339
 4741TIP3    H235639   0.426   1.182  15.220  0.3800 -1.1476  2.9729
 4742TIP3   OH235640   1.200   4.743  13.167  1.2286 -0.2107 -0.0212
 4742TIP3    H135641   1.177   4.677  13.101  1.0078 -0.2769  0.1220
 4742TIP3    H235642   1.141   4.816  13.150  2.0033  0.2675 -0.6805
 4743TIP3   OH235643   5.339   6.687  14.345  0.1622 -0.0953 -0.2666
 4743TIP3    H135644   5.277   6.696  14.418  0.3282  0.5944 -0.2085
 4743TIP3    H235645   5.317   6.760  14.286  2.4400  1.5841  0.8709
 4744TIP3   OH235646   6.335   6.089   0.376  0.8245  0.2956  0.5181
 4744TIP3    H135647   6.244   6.072   0.402  1.0400 -0.9667  0.4885
 4744TIP3    H235648   6.363   6.162   0.431 -0.5392  1.4004 -0.2040
 4745TIP3   OH235649   5.480   5.497  11.213  0.6625  0.1531  0.1548
 4745TIP3    H135650   5.456   5.405  11.227  1.7889 -0.3561 -1.1973
 4745TIP3    H235651   5.419   5.527  11.145  1.4829 -0.1271 -0.7157
 4746TIP3   OH235652   3.933   1.001  13.594  0.2440 -0.0867 -0.4391
 4746TIP3    H135653   3.938   0.953  13.677  1.3672 -1.0268 -1.0390
 4746TIP3    H235654   3.853   0.970  13.552  1.1824 -1.7505 -1.0122
 4747TIP3   OH235655   2.365   0.611   4.686  1.0561 -0.0081  0.6909
 4747TIP3    H135656   2.275   0.617   4.719  0.8119  1.0881 -0.1431
 4747TIP3    H235657   2.370   0.680   4.619  1.4835 -2.2509 -1.6579
 4748TIP3   OH235658   3.590   3.050   1.324 -0.7582 -0.3208  0.1804
 4748TIP3    H135659   3.559   3.136   1.296  0.1439 -0.0369  0.0315
 4748TIP3    H235660   3.592   2.997   1.244 -0.3093 -0.1665  0.0876
 4749TIP3   OH235661   5.788   5.124   2.285  0.1955  0.3282  0.3046
 4749TIP3    H135662   5.742   5.043   2.264 -0.6856  0.3388  2.1348
 4749TIP3    H235663   5.866   5.122   2.229  0.1956 -1.7742  0.3449
 4750TIP3   OH235664   1.668   2.024   0.884  0.2888  0.4527 -0.3284
 4750TIP3    H135665   1.577   2.043   0.861  0.6315 -0.1360 -2.3610
 4750TIP3    H235666   1.716   2.104   0.862  0.1130  1.1431  1.7679
 4751TIP3   OH235667   0.561   5.375  15.894  0.3281  0.2081 -0.2445
 4751TIP3    H135668   0.484   5.399  15.843  0.0552 -1.1894 -0.4863
 4751TIP3    H235669   0.591   5.293  15.856  1.6541  0.4877  0.1631
 4752TIP3   OH235670   3.960   2.384  16.263  0.1067  0.0355  0.2053
 4752TIP3    H135671   3.956   2.351  16.353  2.0259  0.9679  0.6645
 4752TIP3    H235672   4.041   2.347  16.228  0.8451  1.9577 -0.1891
 4753TIP3   OH235673   5.495   5.044  10.979 -0.3758  0.5922 -0.4126
 4753TIP3    H135674   5.419   5.002  10.939  0.3888 -1.0468 -0.1733
 4753TIP3    H235675   5.458   5.105  11.043 -1.4868 -1.7206  1.2426
 4754TIP3   OH235676   3.228   4.752   6.016  0.2154 -0.0037 -0.1923
 4754TIP3    H135677   3.151   4.721   6.063  1.2016 -0.9762  0.8215
 4754TIP3    H235678   3.300   4.743   6.078  1.2975  0.0864 -1.3954
 4755TIP3   OH235679   4.666   6.648   5.027  0.4888  0.1352  0.3672
 4755TIP3    H135680   4.750   6.689   5.049  0.8452 -1.0584  1.3295
 4755TIP3    H235681   4.684   6.554   5.034 -0.4900 -0.1667 -1.0827
 4756TIP3   OH235682   0.304   5.209  15.028 -0.2619  0.0811 -0.0309
 4756TIP3    H135683   0.345   5.276  15.083  1.9868  0.6658 -2.3440
 4756TIP3    H235684   0.279   5.255  14.948 -0.1257 -1.5288 -1.0166
 4757TIP3   OH235685   3.188   5.456   5.723 -0.4860 -0.2479  0.0003
 4757TIP3    H135686   3.170   5.379   5.778 -0.3591  0.1224  0.5591
 4757TIP3    H235687   3.136   5.526   5.762  1.2367  0.5389  0.9069
 4758TIP3   OH235688   6.707   4.396  15.285 -0.3688  0.4425  0.2658
 4758TIP3    H135689   6.771   4.451  15.240  0.2605 -0.0060  0.5992
 4758TIP3    H235690   6.741   4.388  15.374  0.1245 -1.3389 -0.0479
 4759TIP3   OH235691   4.004   5.082  14.952 -0.5842 -0.0361  0.1455
 4759TIP3    H135692   4.071   5.107  15.016  0.0145 -0.7888 -0.1729
 4759TIP3    H235693   3.996   5.159  14.895  0.3971 -0.1275 -0.1303
 4760TIP3   OH235694   1.631   1.301   1.686 -0.7683  0.0208 -0.1769
 4760TIP3    H135695   1.675   1.380   1.654  0.9776 -0.3001  1.4092
 4760TIP3    H235696   1.544   1.305   1.645 -0.3912  2.2812 -0.8478
 4761TIP3   OH235697   0.690   3.371  16.445 -0.4748  0.1243 -0.3366
 4761TIP3    H135698   0.610   3.339  16.404 -0.0929 -1.1783 -0.0853
 4761TIP3    H235699   0.660   3.427  16.516 -1.2279 -1.9439  1.0425
 4762TIP3   OH235700   2.295   5.499   5.170 -0.0490 -0.4530 -1.1305
 4762TIP3    H135701   2.292   5.449   5.252 -1.1048 -0.9399 -1.4572
 4762TIP3    H235702   2.388   5.515   5.155  0.0481  1.9793  1.5648
 4763TIP3   OH235703   2.184   4.354  15.463 -0.0047 -0.3976 -0.2124
 4763TIP3    H135704   2.093   4.348  15.436 -0.6914 -0.4195  1.9811
 4763TIP3    H235705   2.196   4.445  15.490  1.1586  0.0755 -2.1636
 4764TIP3   OH235706   6.102   2.202   1.449  0.1358 -0.0391  0.4705
 4764TIP3    H135707   6.167   2.269   1.470 -0.4595 -0.2379  3.1921
 4764TIP3    H235708   6.018   2.247   1.461 -0.2596 -1.0592  1.5887
 4765TIP3   OH235709   2.910   4.848   6.043  0.1633  0.4597  0.0580
 4765TIP3    H135710   2.943   4.759   6.052 -0.9003  0.1901  1.4119
 4765TIP3    H235711   2.818   4.843   6.069  0.0291  1.9054 -0.0671
 4766TIP3   OH235712   2.550   6.539  13.374 -0.9617 -0.2466  0.6054
 4766TIP3    H135713   2.630   6.504  13.335 -1.6256  0.9102 -1.8941
 4766TIP3    H235714   2.480   6.510  13.316 -2.1664  0.2164  1.7980
 4767TIP3   OH235715   0.805   5.191  14.066 -0.0324 -0.4013 -0.3407
 4767TIP3    H135716   0.802   5.212  13.973  0.2831  0.1400 -0.2298
 4767TIP3    H235717   0.744   5.252  14.107 -1.4412 -1.7313 -0.3847
 4768TIP3   OH235718   3.346   1.513  16.515 -0.1145  0.2200  0.0898
 4768TIP3    H135719   3.440   1.529  16.516  0.0616 -0.7500 -0.0683
 4768TIP3    H235720   3.320   1.520  16.607  0.0542  0.8091  0.0973
 4769TIP3   OH235721   3.005   5.298  12.909  0.0204 -0.8360  0.1794
 4769TIP3    H135722   3.091   5.324  12.942  0.1764 -1.9170  0.6304
 4769TIP3    H235723   2.986   5.362  12.840 -0.4135  1.5841  2.4714
 4770TIP3   OH235724   6.156   0.554  16.818  0.1029  0.3776 -0.3285
 4770TIP3    H135725   6.242   0.550  16.859 -0.9070  1.7810  2.0509
 4770TIP3    H235726   6.173   0.540  16.725  2.6629 -1.1929  0.3438
 4771TIP3   OH235727   0.818   6.506   2.110 -0.5825  0.6206  0.2307
 4771TIP3    H135728   0.862   6.499   2.194 -0.8487  0.9544  0.3977
 4771TIP3    H235729   0.889   6.499   2.045 -0.4819 -0.5158  0.4574
 4772TIP3   OH235730   3.640   4.320   1.737 -0.4375  0.1763  0.3474
 4772TIP3    H135731   3.722   4.363   1.714 -0.8606  1.2193  0.7706
 4772TIP3    H235732   3.581   4.338   1.664 -0.1051 -1.1219 -0.2618
 4773TIP3   OH235733   1.998   5.038  14.685  0.0729  0.1082  0.1863
 4773TIP3    H135734   2.068   5.053  14.748  0.1451  0.4784  0.0219
 4773TIP3    H235735   2.038   5.056  14.600  0.0764 -0.7382 -0.0004
 4774TIP3   OH235736   6.202   0.446  13.973  0.0961 -0.3201  0.1404
 4774TIP3    H135737   6.228   0.446  13.881  1.6550  0.6356  0.5593
 4774TIP3    H235738   6.237   0.364  14.007 -1.4201 -1.1885 -0.3582
 4775TIP3   OH235739   1.002   0.001  14.189 -0.3637  0.2957 -0.3565
 4775TIP3    H135740   0.980   0.076  14.244  1.1415  0.9001 -0.5499
 4775TIP3    H235741   1.098  -0.001  14.189 -0.3868 -1.1922 -0.9410
 4776TIP3   OH235742   0.451   2.709  14.142 -0.4267 -0.7750 -0.3448
 4776TIP3    H135743   0.520   2.669  14.090  1.1577  0.9340  0.3626
 4776TIP3    H235744   0.411   2.636  14.189  1.5009 -1.7192 -0.0899
 4777TIP3   OH235745   0.828   1.967   1.435  0.3189  0.6126  0.3316
 4777TIP3    H135746   0.758   1.965   1.370  0.3961  0.5767  0.2496
 4777TIP3    H235747   0.896   1.909   1.399  0.2800  0.4396  0.5359
 4778TIP3   OH235748   2.963   5.532  14.844  0.0243  0.0571 -0.8331
 4778TIP3    H135749   2.874   5.522  14.878  0.4637 -1.5650 -0.0831
 4778TIP3    H235750   2.990   5.620  14.871 -0.1639 -0.6404  1.8113
 4779TIP3   OH235751   2.869   1.773  17.206 -0.3260 -0.6013  0.4539
 4779TIP3    H135752   2.918   1.694  17.183 -0.2562  0.1252 -2.1270
 4779TIP3    H235753   2.935   1.839  17.223 -0.3817 -1.1792  2.9676
 4780TIP3   OH235754   2.562   5.461  17.215 -0.4608 -0.5125 -0.2022
 4780TIP3    H135755   2.605   5.545  17.198 -1.9891  0.0601 -1.4174
 4780TIP3    H235756   2.602   5.401  17.152 -0.3363 -0.3545 -0.2744
 4781TIP3   OH235757   4.706   6.580   3.880 -0.0775  0.2427  0.2587
 4781TIP3    H135758   4.632   6.616   3.928  0.7103  1.5359  0.5423
 4781TIP3    H235759   4.776   6.645   3.892  1.0888 -0.9428 -0.0092
 4782TIP3   OH235760   4.154   5.998   1.785 -0.3395  0.5825  0.0176
 4782TIP3    H135761   4.131   5.906   1.767  1.9180 -0.3580  1.6616
 4782TIP3    H235762   4.104   6.020   1.864  0.6495  0.1015  0.7869
 4783TIP3   OH235763   0.178   5.527   4.553 -0.0400  0.6145  0.0007
 4783TIP3    H135764   0.259   5.522   4.504  0.5857 -0.9910  1.1425
 4783TIP3    H235765   0.190   5.599   4.615  0.5370  0.3295  0.2151
 4784TIP3   OH235766   3.782   3.706   3.821 -0.1903  0.0463 -0.0804
 4784TIP3    H135767   3.866   3.719   3.866 -0.7183  1.2627  0.5846
 4784TIP3    H235768   3.748   3.624   3.856 -0.2135  0.5741  1.1474
 4785TIP3   OH235769   3.351   2.393   3.742  0.0392  0.1136 -0.4170
 4785TIP3    H135770   3.338   2.300   3.727  0.6235 -0.0640  0.1802
 4785TIP3    H235771   3.431   2.414   3.695 -0.1780  0.3464 -0.6819
 4786TIP3   OH235772   4.154   1.063  10.928 -0.2931 -0.4084  0.4488
 4786TIP3    H135773   4.153   1.007  11.005 -1.8757 -1.9989 -0.6798
 4786TIP3    H235774   4.073   1.112  10.932  0.4562  0.8179  0.7188
 4787TIP3   OH235775   0.669   5.951  13.773  0.3239 -0.1917 -0.2020
 4787TIP3    H135776   0.712   6.034  13.753  0.7243 -0.0943  0.9810
 4787TIP3    H235777   0.735   5.901  13.822 -0.8348 -0.1158  1.4763
 4788TIP3   OH235778   2.206   2.374   0.873  0.1610 -0.2826  0.1658
 4788TIP3    H135779   2.157   2.341   0.948 -4.3583  1.9347 -1.6543
 4788TIP3    H235780   2.247   2.455   0.904 -0.9745  0.1684  0.5033
 4789TIP3   OH235781   2.048   1.999  13.465 -0.0805  0.1796 -0.1503
 4789TIP3    H135782   2.062   1.912  13.503 -1.0089 -0.2809 -0.8531
 4789TIP3    H235783   1.972   2.034  13.512 -0.3811  0.1626 -0.6195
 4790TIP3   OH235784   2.835   4.514   3.577 -0.4422  0.1357  0.2212
 4790TIP3    H135785   2.799   4.603   3.582  0.3509  0.7440 -3.5018
 4790TIP3    H235786   2.930   4.526   3.578 -0.3145 -0.8426  1.4470
 4791TIP3   OH235787   1.947   6.061  17.227 -0.1105 -0.6752 -0.2875
 4791TIP3    H135788   1.978   6.018  17.147  0.6733 -2.0243  0.7313
 4791TIP3    H235789   1.863   6.020  17.245  0.1069 -0.9846  0.0398
 4792TIP3   OH235790   5.341   1.401   2.767  0.1815 -0.5782 -0.5250
 4792TIP3    H135791   5.325   1.379   2.675  1.0927  1.2606 -1.1564
 4792TIP3    H235792   5.357   1.495   2.767 -0.5473 -0.4237  1.6390
 4793TIP3   OH235793   4.900   0.677   2.993 -0.0783  0.2773 -0.3743
 4793TIP3    H135794   4.842   0.731   3.046  0.0810  0.2631 -0.1812
 4793TIP3    H235795   4.844   0.641   2.924 -1.3432 -3.3205  2.3562
 4794TIP3   OH235796   0.744   0.395   2.600  0.1558  0.3853  0.8410
 4794TIP3    H135797   0.749   0.490   2.590  2.2741  0.5205  2.8848
 4794TIP3    H235798   0.812   0.362   2.541 -0.1724  0.1474  0.5912
 4795TIP3   OH235799   1.818   6.550   6.094  0.2436 -0.8340  0.0322
 4795TIP3    H135800   1.824   6.590   6.181 -0.0860 -0.6078 -0.0478
 4795TIP3    H235801   1.822   6.456   6.111  0.5254 -0.7805  0.2649
 4796TIP3   OH235802   0.896   5.888   5.297 -0.1559  0.5391  0.2140
 4796TIP3    H135803   0.872   5.815   5.355  2.2578  0.1356  0.7761
 4796TIP3    H235804   0.877   5.966   5.349  1.5498  0.1886  1.4063
 4797TIP3   OH235805   2.903   5.905  17.023  0.3500  0.2084  0.7229
 4797TIP3    H135806   2.906   5.959  16.945 -0.8993 -0.0691  0.4688
 4797TIP3    H235807   2.825   5.934  17.070 -0.1912 -1.1759  0.7139
 4798TIP3   OH235808   1.425   3.902  12.813 -0.0023 -0.2521 -0.6665
 4798TIP3    H135809   1.370   3.922  12.889  0.9159  0.7718 -0.2603
 4798TIP3    H235810   1.500   3.854  12.849  1.3077  1.7454 -0.6469
 4799TIP3   OH235811   1.187   6.085   5.115 -0.6246 -0.2009 -0.2735
 4799TIP3    H135812   1.241   6.127   5.182 -0.4814  1.0174 -1.1256
 4799TIP3    H235813   1.101   6.126   5.123 -0.5175  0.1972 -1.0364
 4800TIP3   OH235814   5.592   3.835  16.153 -0.1900 -0.4237 -0.2333
 4800TIP3    H135815   5.586   3.855  16.247 -0.3826 -1.4857 -0.0170
 4800TIP3    H235816   5.505   3.803  16.130 -0.2170  0.0683 -0.8388
 4801TIP3   OH235817   3.687   6.552   4.804 -0.0997  0.3515  0.0203
 4801TIP3    H135818   3.739   6.529   4.881  1.9478 -2.1351 -1.9870
 4801TIP3    H235819   3.639   6.472   4.783 -0.3424  0.8727 -1.4797
 4802TIP3   OH235820   3.053   2.811   5.084 -0.5537 -0.4150  0.0174
 4802TIP3    H135821   3.110   2.754   5.136 -0.7021 -0.1560  0.4751
 4802TIP3    H235822   2.966   2.796   5.121 -0.4100  1.0724  1.0281
 4803TIP3   OH235823   2.749   3.513   2.611  0.7375 -0.0303  0.2897
 4803TIP3    H135824   2.770   3.432   2.565  0.4172  0.2487 -0.3488
 4803TIP3    H235825   2.781   3.582   2.553 -1.8187  0.4043 -0.6649
 4804TIP3   OH235826   4.059   4.951  12.433 -0.4805  0.1226  0.4436
 4804TIP3    H135827   4.092   4.996  12.511  1.5045 -2.1757  0.9822
 4804TIP3    H235828   4.089   5.005  12.360  1.9124 -0.2839  1.0825
 4805TIP3   OH235829   0.082   5.213  16.504 -0.1332 -0.2746 -0.6909
 4805TIP3    H135830   0.082   5.189  16.597  0.6489 -1.2297 -0.9335
 4805TIP3    H235831   0.169   5.248  16.488 -0.7071  1.1529 -0.7517
 4806TIP3   OH235832   1.779   4.867  14.490 -0.1184 -0.0310 -0.4421
 4806TIP3    H135833   1.838   4.940  14.476  0.2347  0.0116  1.1659
 4806TIP3    H235834   1.836   4.793  14.509 -0.5780  0.1860  1.9078
 4807TIP3   OH235835   0.933   4.813   1.011 -0.4507  0.3002 -0.0526
 4807TIP3    H135836   0.978   4.729   1.006 -1.1143 -0.0500 -0.2249
 4807TIP3    H235837   0.909   4.833   0.920  0.4028  1.0626 -0.1183
 4808TIP3   OH235838   6.755   0.116  12.139 -0.0568 -0.1912  0.0634
 4808TIP3    H135839   6.782   0.170  12.064  2.0716 -1.6713 -0.2635
 4808TIP3    H235840   6.663   0.140  12.153  0.0088  1.3846 -1.9035
 4809TIP3   OH235841   1.660   0.476  15.213  0.0469 -0.2592 -0.0761
 4809TIP3    H135842   1.632   0.558  15.172  0.5137  0.4859  1.0788
 4809TIP3    H235843   1.645   0.410  15.145 -3.4323  0.2473  0.0649
 4810TIP3   OH235844   5.370   5.137  13.560  0.7810  0.4891 -0.4797
 4810TIP3    H135845   5.284   5.122  13.521  0.7059  0.1764 -0.2005
 4810TIP3    H235846   5.431   5.088  13.504  0.6473 -0.1315 -0.0961
 4811TIP3   OH235847   3.791   2.972  12.641  0.1448  0.2202  0.9405
 4811TIP3    H135848   3.716   2.939  12.591 -0.2456 -0.7205  2.1172
 4811TIP3    H235849   3.797   2.913  12.716  0.2477  2.0846  2.4134
 4812TIP3   OH235850   4.310   5.022   3.736  0.1185  0.0082  0.1070
 4812TIP3    H135851   4.255   5.035   3.658 -0.6843 -0.0587  0.6506
 4812TIP3    H235852   4.399   5.043   3.707  0.1615 -2.0605 -1.3822
 4813TIP3   OH235853   6.356   4.501  11.323  0.1483  0.1659  0.2073
 4813TIP3    H135854   6.429   4.528  11.268  1.0908 -0.1307  1.2992
 4813TIP3    H235855   6.360   4.405  11.323  0.5543  0.1739  1.3040
 4814TIP3   OH235856   2.636   2.289  12.565  0.2240 -0.2926  0.5521
 4814TIP3    H135857   2.719   2.260  12.526 -0.9948 -1.7565 -1.0502
 4814TIP3    H235858   2.592   2.336  12.495  0.1666  1.4717  1.7510
 4815TIP3   OH235859   6.282   3.222  12.520 -0.3013 -0.3773 -0.3104
 4815TIP3    H135860   6.278   3.151  12.584  1.1037 -1.2354 -1.1563
 4815TIP3    H235861   6.217   3.198  12.454 -1.5498  0.3674  0.6084
 4816TIP3   OH235862   2.411   2.423  14.804 -0.1307  0.4092 -0.6705
 4816TIP3    H135863   2.497   2.407  14.842  0.1012 -0.4152 -1.5244
 4816TIP3    H235864   2.423   2.407  14.710 -1.8190 -2.1916 -0.4929
 4817TIP3   OH235865   5.397   1.814  14.457  0.2235 -0.2857 -0.1299
 4817TIP3    H135866   5.340   1.886  14.485 -0.0036 -1.0519  1.4775
 4817TIP3    H235867   5.357   1.736  14.496  0.7313 -1.2154 -1.4539
 4818TIP3   OH235868   0.364   4.277  15.346 -0.0923  0.0041 -0.4408
 4818TIP3    H135869   0.434   4.220  15.314  0.3397  1.3245 -1.8976
 4818TIP3    H235870   0.350   4.249  15.436  2.5055 -0.0801 -0.0369
 4819TIP3   OH235871   4.252   2.655  13.555  0.5597 -0.1574 -0.2899
 4819TIP3    H135872   4.236   2.739  13.510  0.5643 -0.3661 -0.6856
 4819TIP3    H235873   4.293   2.680  13.638 -1.2048  0.3436  0.4427
 4820TIP3   OH235874   4.383   6.769   5.722  0.0093  0.6166  0.3945
 4820TIP3    H135875   4.376   6.700   5.655 -0.8409  1.1389 -0.0736
 4820TIP3    H235876   4.473   6.764   5.753  0.1469 -0.2556 -0.1250
 4821TIP3   OH235877   3.019   3.464  15.458 -0.4063 -0.5587 -0.4397
 4821TIP3    H135878   2.932   3.477  15.495 -1.1182 -1.4098 -1.7423
 4821TIP3    H235879   3.034   3.370  15.465  0.2704 -0.4574 -0.5062
 4822TIP3   OH235880   4.367   2.588  14.551 -0.1023  0.1149  0.0528
 4822TIP3    H135881   4.296   2.650  14.534 -0.6900 -0.3740  0.6993
 4822TIP3    H235882   4.378   2.542  14.469 -1.5970 -0.8774  0.3843
 4823TIP3   OH235883   1.973   0.610   5.214  0.1139  0.0093  0.4109
 4823TIP3    H135884   1.878   0.612   5.204 -0.2798 -2.1894  3.0045
 4823TIP3    H235885   1.991   0.672   5.285  0.1087 -2.4930  2.6890
 4824TIP3   OH235886   1.360   5.668   0.556 -0.6951  0.5685  0.2523
 4824TIP3    H135887   1.400   5.584   0.580 -0.2232  0.8833  0.5690
 4824TIP3    H235888   1.280   5.672   0.608 -0.7501  0.2868  0.1908
 4825TIP3   OH235889   0.328   6.357  11.913 -0.1060 -0.4755 -0.4681
 4825TIP3    H135890   0.355   6.279  11.865  0.0913  0.1518 -1.3977
 4825TIP3    H235891   0.236   6.371  11.887 -0.4007 -0.8984  0.3659
 4826TIP3   OH235892   4.523   1.991  12.461  0.1977 -0.0700  0.7407
 4826TIP3    H135893   4.614   1.998  12.489  0.0824  1.7778  0.7343
 4826TIP3    H235894   4.473   1.976  12.542  0.4734 -0.8024  0.7749
 4827TIP3   OH235895   4.047   1.329   6.504  0.2829 -0.3330  0.3858
 4827TIP3    H135896   4.031   1.269   6.577 -1.9440 -1.5158 -0.9937
 4827TIP3    H235897   4.049   1.272   6.427  0.4299  1.1279 -0.7064
 4828TIP3   OH235898   6.759   4.120  13.465 -0.1167  0.6137 -0.1840
 4828TIP3    H135899   6.804   4.065  13.401 -0.5778  1.6120 -1.3771
 4828TIP3    H235900   6.740   4.201  13.418 -2.7496  0.4061  0.4366
 4829TIP3   OH235901   3.446   6.151   6.078  0.1967 -0.6860 -0.1919
 4829TIP3    H135902   3.400   6.235   6.090  0.0579 -0.6586 -0.8513
 4829TIP3    H235903   3.506   6.145   6.152  0.4724  0.1773 -0.3439
 4830TIP3   OH235904   2.706   3.838   1.231 -0.5440 -0.2915 -0.5736
 4830TIP3    H135905   2.788   3.863   1.188  0.8392 -1.4833  1.2987
 4830TIP3    H235906   2.658   3.921   1.238  0.5914  0.4773 -1.4643
 4831TIP3   OH235907   3.551   0.417   6.505  0.2212  0.7089  0.5759
 4831TIP3    H135908   3.611   0.406   6.431 -1.2129 -0.0376 -0.5107
 4831TIP3    H235909   3.608   0.430   6.581  1.7366  0.5274 -0.5112
 4832TIP3   OH235910   4.375   1.220  14.052  0.1600 -0.2592 -0.0562
 4832TIP3    H135911   4.299   1.277  14.062  1.2173  1.5267 -1.8882
 4832TIP3    H235912   4.371   1.189  13.962  2.1628  0.7423 -0.5262
 4833TIP3   OH235913   0.245   0.296  11.154  0.2351  0.0569  0.1891
 4833TIP3    H135914   0.320   0.353  11.174  0.4460  0.0136 -0.4578
 4833TIP3    H235915   0.243   0.233  11.226  2.5135 -1.6539 -1.1636
 4834TIP3   OH235916   1.077   6.009   2.238 -0.2076  0.1564 -0.3361
 4834TIP3    H135917   1.019   6.081   2.261 -0.3823 -0.2074  0.3658
 4834TIP3    H235918   1.042   5.933   2.284 -0.8997 -0.7204 -2.2689
 4835TIP3   OH235919   2.042   4.434   2.401  0.4675  0.1167  0.3594
 4835TIP3    H135920   2.060   4.492   2.327 -0.2546 -0.0971  0.0136
 4835TIP3    H235921   2.069   4.485   2.478 -0.9373  1.2394  0.1200
 4836TIP3   OH235922   4.166   5.351  13.435  0.1136  0.1850  0.1316
 4836TIP3    H135923   4.240   5.290  13.436  0.6414  0.8093 -0.4926
 4836TIP3    H235924   4.089   5.295  13.426  0.4181 -0.5560  1.8494
 4837TIP3   OH235925   2.316   0.775  10.772 -0.3244  0.6174  0.7663
 4837TIP3    H135926   2.356   0.850  10.728  2.7311 -1.1419  0.3365
 4837TIP3    H235927   2.381   0.748  10.837 -1.4192 -1.5399  1.0190
 4838TIP3   OH235928   2.228   5.760  14.302  0.1661 -0.1724 -0.0630
 4838TIP3    H135929   2.278   5.703  14.361  0.3857 -1.1716 -1.1895
 4838TIP3    H235930   2.150   5.710  14.281 -0.4022  0.6058  0.2006
 4839TIP3   OH235931   4.803   5.811   0.071  0.3789  0.5199  0.5143
 4839TIP3    H135932   4.840   5.874   0.132 -1.9829 -0.3425  2.9343
 4839TIP3    H235933   4.718   5.847   0.048 -1.0042 -1.7017  1.9207
 4840TIP3   OH235934   3.159   0.681   2.557 -0.0759  0.2771 -0.2899
 4840TIP3    H135935   3.192   0.771   2.568 -1.1208  0.6047  0.2894
 4840TIP3    H235936   3.085   0.690   2.497  0.0431 -0.2544 -0.5184
 4841TIP3   OH235937   6.779   5.095  15.283  0.2353  0.2672 -0.6188
 4841TIP3    H135938   6.869   5.108  15.311  0.6755 -0.2942 -1.7610
 4841TIP3    H235939   6.778   5.119  15.191 -1.1146  1.6767 -0.2563
 4842TIP3   OH235940   3.896   5.108   5.894 -0.2641 -0.1151 -1.0436
 4842TIP3    H135941   3.900   5.123   5.800 -2.1913  1.4724 -0.9187
 4842TIP3    H235942   3.804   5.088   5.912 -0.1921  0.8795  0.6460
 4843TIP3   OH235943   2.532   3.639  14.525 -0.1927 -0.0683 -0.1692
 4843TIP3    H135944   2.626   3.640  14.509 -0.1761 -0.0355 -0.0708
 4843TIP3    H235945   2.512   3.547  14.542 -0.0569  0.0188  0.5079
 4844TIP3   OH235946   1.471   6.066  12.038  0.3158 -0.5885  0.0776
 4844TIP3    H135947   1.510   6.071  12.126 -2.4939  1.3006  1.2803
 4844TIP3    H235948   1.540   6.095  11.979  2.2457 -1.8614  1.6286
 4845TIP3   OH235949   5.398   0.864  16.082  0.6100 -0.1244  0.0662
 4845TIP3    H135950   5.427   0.930  16.145 -1.9273  2.3869 -1.2692
 4845TIP3    H235951   5.477   0.844  16.031  1.5873  1.3945  0.9427
 4846TIP3   OH235952   1.268   1.721   1.107 -0.0211 -0.1891  0.3533
 4846TIP3    H135953   1.332   1.785   1.077  0.5220 -0.6578  0.5017
 4846TIP3    H235954   1.237   1.679   1.027  0.4233 -0.4926  0.3381
 4847TIP3   OH235955   1.929   3.412  11.339 -0.0283  0.1848 -0.1589
 4847TIP3    H135956   2.024   3.417  11.355  0.3588  1.0981 -2.4749
 4847TIP3    H235957   1.907   3.320  11.354  0.6455  0.4966  3.2126
 4848TIP3   OH235958   4.571   4.258  14.046 -0.0272 -0.1736 -0.1661
 4848TIP3    H135959   4.625   4.269  14.124  1.6008  1.0978 -1.4261
 4848TIP3    H235960   4.585   4.168  14.019  0.2345 -0.3040  0.3999
 4849TIP3   OH235961   0.059   2.531   4.314 -0.4734  0.3482  0.0116
 4849TIP3    H135962   0.097   2.557   4.398 -1.4399  0.7317  0.3391
 4849TIP3    H235963   0.096   2.592   4.251 -1.4646  1.4743  0.5178
 4850TIP3   OH235964   5.253   5.325   1.482 -0.5444  0.0983  0.6579
 4850TIP3    H135965   5.253   5.344   1.576 -0.1647 -0.1896  0.7187
 4850TIP3    H235966   5.343   5.340   1.454 -0.5470 -0.2916  0.4365
 4851TIP3   OH235967   3.673   5.121   4.973 -0.3877 -0.2161 -0.5313
 4851TIP3    H135968   3.639   5.145   5.060  1.4396  0.4359  0.0131
 4851TIP3    H235969   3.605   5.150   4.912 -0.2501  2.2852  0.4548
 4852TIP3   OH235970   0.237   4.868   5.382 -0.3943 -0.2587  0.4671
 4852TIP3    H135971   0.278   4.794   5.337 -0.0525  1.3675 -2.0318
 4852TIP3    H235972   0.309   4.930   5.396 -1.0973  0.5938  0.3588
 4853TIP3   OH235973   1.417   5.342   1.345  0.1054  0.2604  0.3285
 4853TIP3    H135974   1.377   5.303   1.424  0.3438 -0.2479  0.1979
 4853TIP3    H235975   1.497   5.384   1.377  0.2694 -0.0568  0.3398
 4854TIP3   OH235976   3.139   3.443   3.431  0.0036 -0.0412 -0.3469
 4854TIP3    H135977   3.117   3.363   3.384  0.6649 -0.7473  0.5323
 4854TIP3    H235978   3.057   3.491   3.438 -0.4159 -0.6947 -0.7754
 4855TIP3   OH235979   1.929   6.480  14.174  0.0781 -0.5355  0.5091
 4855TIP3    H135980   1.864   6.439  14.117 -0.6670 -1.0971  1.7381
 4855TIP3    H235981   1.877   6.535  14.233  0.6202 -1.7583  2.1597
 4856TIP3   OH235982   0.202   1.553  13.321 -1.0065  0.2901  0.0214
 4856TIP3    H135983   0.279   1.606  13.340  0.6831 -1.7262 -0.9250
 4856TIP3    H235984   0.201   1.486  13.389  0.3940 -2.0403 -2.1464
 4857TIP3   OH235985   6.742   4.919   1.846  0.0212 -0.5294  0.7416
 4857TIP3    H135986   6.758   4.837   1.799 -0.1159 -0.5033  0.6481
 4857TIP3    H235987   6.751   4.896   1.938 -0.9682 -0.8588  0.7560
 4858TIP3   OH235988   1.454   1.263  16.457  0.4971 -0.7504  0.0736
 4858TIP3    H135989   1.498   1.221  16.531  2.4586 -1.1979 -1.2948
 4858TIP3    H235990   1.497   1.226  16.380 -0.3693  0.9326 -1.2506
 4859TIP3   OH235991   0.750   1.053  15.911 -0.3240  0.0276 -0.1207
 4859TIP3    H135992   0.793   1.102  15.981  0.2312  0.1569 -0.5488
 4859TIP3    H235993   0.814   0.987  15.886  0.3740  1.3751 -2.0144
 4860TIP3   OH235994   5.641   1.487  16.993  0.1427 -0.1490  0.1433
 4860TIP3    H135995   5.597   1.547  16.933  0.3999  0.1938  0.2994
 4860TIP3    H235996   5.671   1.542  17.065  2.3325 -0.0935 -0.7740
 4861TIP3   OH235997   0.335   5.412  17.098 -0.7761 -0.6535 -0.0305
 4861TIP3    H135998   0.411   5.464  17.123 -1.2743  0.9520 -1.6474
 4861TIP3    H235999   0.260   5.465  17.126 -1.3184 -2.7260  2.5369
 4862TIP3   OH236000   6.713   3.028   2.674  0.0981  0.0265 -0.0900
 4862TIP3    H136001   6.767   3.015   2.752 -0.9771  1.5893  0.9327
 4862TIP3    H236002   6.650   3.096   2.699 -1.3937 -0.7095 -1.7523
 4863TIP3   OH236003   4.123   5.567  15.014  0.0149 -0.4327  0.0804
 4863TIP3    H136004   4.196   5.522  14.972 -0.1982 -1.0372  0.3524
 4863TIP3    H236005   4.061   5.584  14.943  0.1035 -0.5549 -0.0263
 4864TIP3   OH236006   0.718   3.704   5.212  0.2306  0.7652 -0.1298
 4864TIP3    H136007   0.626   3.678   5.203  0.9281 -1.2763 -1.9771
 4864TIP3    H236008   0.743   3.674   5.299 -0.0498 -1.5081 -0.7872
 4865TIP3   OH236009   2.702   3.810   4.813 -0.5278  0.5449  0.0636
 4865TIP3    H136010   2.667   3.767   4.891  1.8451 -1.3730  0.1213
 4865TIP3    H236011   2.733   3.895   4.845  1.6868 -0.7620  1.5419
 4866TIP3   OH236012   3.917   2.612  13.861 -0.8149  0.1825 -0.1704
 4866TIP3    H136013   3.906   2.624  13.767 -0.6047 -1.2157 -0.3710
 4866TIP3    H236014   3.847   2.552  13.886 -0.3271 -0.1435  0.4158
 4867TIP3   OH236015   6.472   5.149  11.563 -0.2375 -0.1461 -0.2153
 4867TIP3    H136016   6.514   5.188  11.487 -0.2044 -0.8626 -0.5773
 4867TIP3    H236017   6.401   5.096  11.526 -0.1097 -0.6397  0.2372
 4868TIP3   OH236018   1.970   6.298   4.530 -0.0629 -0.4380 -0.1354
 4868TIP3    H136019   2.004   6.386   4.546  0.0906 -0.3156 -1.0789
 4868TIP3    H236020   2.043   6.240   4.550  0.6003 -0.1988 -1.7867
 4869TIP3   OH236021   3.070   3.706  15.999 -0.1493 -0.4511 -0.3988
 4869TIP3    H136022   3.082   3.785  16.052 -0.3495 -0.0436 -0.9534
 4869TIP3    H236023   3.153   3.695  15.953  0.2592 -1.1872  0.5044
 4870TIP3   OH236024   1.156   0.025   3.279  0.2705  0.0741 -0.1171
 4870TIP3    H136025   1.163  -0.070   3.287  0.3433  0.0836 -0.0699
 4870TIP3    H236026   1.193   0.044   3.193 -0.4827 -0.0210 -0.4703
 4871TIP3   OH236027   5.235   6.217  14.051 -0.5385  0.4951  0.1983
 4871TIP3    H136028   5.304   6.280  14.032  0.8470 -0.7717  0.9973
 4871TIP3    H236029   5.208   6.236  14.141 -0.2879  0.1055  0.3566
 4872TIP3   OH236030   4.025   1.289   1.555 -0.1341  0.3343  0.2154
 4872TIP3    H136031   3.937   1.318   1.580 -1.5963 -0.6976 -3.4439
 4872TIP3    H236032   4.011   1.201   1.518  2.4587  0.0678 -0.1721
 4873TIP3   OH236033   6.565   0.660   4.391  0.2319  0.3915 -0.3467
 4873TIP3    H136034   6.582   0.682   4.483 -0.4857 -0.5864  0.0349
 4873TIP3    H236035   6.533   0.741   4.353  0.9918  0.9323  0.1492
 4874TIP3   OH236036   3.739   0.306   3.322  0.1200  0.2047 -0.0533
 4874TIP3    H136037   3.826   0.343   3.337 -0.5564  1.4876  0.7700
 4874TIP3    H236038   3.706   0.354   3.246 -0.8203  1.4137  1.1055
 4875TIP3   OH236039   5.867   5.802   5.935  0.1092 -0.0484 -0.0239
 4875TIP3    H136040   5.796   5.744   5.963  0.2566 -0.5464 -0.6731
 4875TIP3    H236041   5.940   5.780   5.993  0.1990 -0.5882 -0.3412
 4876TIP3   OH236042   3.487   6.266  17.037  0.4534  0.1657 -0.0243
 4876TIP3    H136043   3.406   6.291  16.992  1.6619  1.2193 -1.6569
 4876TIP3    H236044   3.551   6.255  16.967  1.2954 -2.4161  1.0889
 4877TIP3   OH236045   5.202   5.137   0.542  0.5855  0.7454  0.3016
 4877TIP3    H136046   5.140   5.161   0.611  0.4360 -0.8275  0.7185
 4877TIP3    H236047   5.150   5.091   0.477  1.5430 -1.8483  1.3267
 4878TIP3   OH236048   2.083   0.085  15.130  0.2672 -0.1907 -0.2248
 4878TIP3    H136049   2.169   0.128  15.131  0.7234 -1.0664 -0.9155
 4878TIP3    H236050   2.046   0.104  15.217  1.1377  0.2227  0.0657
 4879TIP3   OH236051   3.538   3.759   3.546  0.1709  0.0846  0.7004
 4879TIP3    H136052   3.445   3.746   3.560  0.0793 -0.4582 -0.3826
 4879TIP3    H236053   3.548   3.854   3.540 -0.0172  0.2649  2.6873
 4880TIP3   OH236054   0.633   0.673   1.018 -0.7286 -0.5732  0.0836
 4880TIP3    H136055   0.708   0.725   0.991 -2.2311  0.7752 -1.6306
 4880TIP3    H236056   0.648   0.654   1.110  3.4618 -3.3531 -1.0019
 4881TIP3   OH236057   0.234   5.871   3.706 -0.1408 -0.0041 -0.1916
 4881TIP3    H136058   0.184   5.886   3.626  0.2072  0.0695 -0.3940
 4881TIP3    H236059   0.208   5.941   3.765  0.4407  0.5905 -0.6374
 4882TIP3   OH236060   4.622   1.499  11.888  0.7928 -0.4586 -0.0794
 4882TIP3    H136061   4.705   1.520  11.846  1.1916 -1.3321  0.2620
 4882TIP3    H236062   4.559   1.558  11.847  1.4191 -0.3911 -0.9592
 4883TIP3   OH236063   1.879   1.216   0.305  0.0694 -0.0925 -0.5010
 4883TIP3    H136064   1.944   1.206   0.235 -0.0845  1.5327 -0.8934
 4883TIP3    H236065   1.823   1.139   0.296  1.1107 -0.8140 -1.0302
 4884TIP3   OH236066   4.872   4.462  11.532  0.0550  0.9123 -0.1599
 4884TIP3    H136067   4.892   4.552  11.509 -0.7645  0.8133 -1.3080
 4884TIP3    H236068   4.862   4.417  11.448  0.0219 -0.1482  0.4000
 4885TIP3   OH236069   6.527   6.238   1.999 -0.1625 -0.0643  0.0263
 4885TIP3    H136070   6.453   6.213   1.943 -0.7917 -0.5518  1.0498
 4885TIP3    H236071   6.489   6.244   2.087  1.1472 -0.8752  0.6501
 4886TIP3   OH236072   0.398   0.930  15.248  0.0565 -0.1656  0.0214
 4886TIP3    H136073   0.306   0.913  15.270  0.5854 -2.2592  0.7272
 4886TIP3    H236074   0.394   0.971  15.162 -1.5234 -0.7531 -0.2140
 4887TIP3   OH236075   5.659   0.445   0.064  0.0761 -0.5586  0.1778
 4887TIP3    H136076   5.673   0.458  -0.030  1.6649 -0.6939  0.3812
 4887TIP3    H236077   5.602   0.368   0.069  1.2700 -1.5178 -0.6544
 4888TIP3   OH236078   1.581   2.914   4.069  0.2820  0.3357  0.2030
 4888TIP3    H136079   1.518   2.924   4.141 -0.3305  1.4260 -0.4820
 4888TIP3    H236080   1.580   2.998   4.024 -0.6222 -0.8786 -2.1442
 4889TIP3   OH236081   6.291   0.869   2.101 -0.7716 -0.1460 -0.3812
 4889TIP3    H136082   6.365   0.832   2.052  0.0040 -2.2428  2.2710
 4889TIP3    H236083   6.216   0.858   2.043  0.4752 -0.6903 -1.9267
 4890TIP3   OH236084   6.266   4.771  16.361 -0.2220  0.0335 -0.3600
 4890TIP3    H136085   6.244   4.679  16.374 -0.7433  0.1676 -0.2815
 4890TIP3    H236086   6.184   4.811  16.332 -0.2545  0.6840  0.6209
 4891TIP3   OH236087   5.662   5.800   0.876  0.1812 -0.0192 -0.1341
 4891TIP3    H136088   5.753   5.775   0.893  0.5429  0.7785 -0.8213
 4891TIP3    H236089   5.619   5.719   0.852  0.1248 -0.8154  2.5256
 4892TIP3   OH236090   1.088   0.950  16.326  0.2100 -0.9665  0.2459
 4892TIP3    H136091   1.001   0.959  16.365  0.4188  1.2574  0.2522
 4892TIP3    H236092   1.078   0.984  16.237  1.1446 -0.4916  0.3269
 4893TIP3   OH236093   6.631   1.149  12.949 -0.3644  0.2235  0.4236
 4893TIP3    H136094   6.584   1.068  12.966  0.3332 -0.3187 -0.1867
 4893TIP3    H236095   6.647   1.149  12.855  0.8468  0.3894  0.6176
 4894TIP3   OH236096   1.845   1.434   0.912 -0.6618  0.3018 -0.1568
 4894TIP3    H136097   1.870   1.350   0.949  0.8443  0.2105 -1.3502
 4894TIP3    H236098   1.758   1.419   0.874  0.5390 -1.3447 -2.3450
 4895TIP3   OH236099   3.122   6.474  14.625 -0.4699 -0.2686  0.4055
 4895TIP3    H136100   3.066   6.552  14.631 -1.4679 -0.8627 -0.7698
 4895TIP3    H236101   3.083   6.423  14.554  1.7030 -0.6123 -0.5718
 4896TIP3   OH236102   3.315   3.647  16.804 -0.6196  0.5928 -0.4281
 4896TIP3    H136103   3.386   3.655  16.868 -1.5696  1.0809  0.5764
 4896TIP3    H236104   3.360   3.631  16.721  0.6491  0.4613  0.2694
 4897TIP3   OH236105   4.278   0.496  12.070  0.4389  0.1663 -0.2135
 4897TIP3    H136106   4.343   0.510  12.002  1.2055  1.4006  0.7635
 4897TIP3    H236107   4.194   0.516  12.028  0.9245  1.1473 -0.7131
 4898TIP3   OH236108   1.300   1.932   1.417 -0.3803 -0.3690 -0.0257
 4898TIP3    H136109   1.358   1.856   1.411  2.2769  1.6233 -0.5966
 4898TIP3    H236110   1.302   1.956   1.509  0.4356  0.2008 -0.1799
 4899TIP3   OH236111   4.270   2.187   0.436  0.9836 -0.1530 -0.2539
 4899TIP3    H136112   4.204   2.233   0.383  2.1926  0.5909 -1.1426
 4899TIP3    H236113   4.263   2.227   0.522  2.2270  1.9541 -1.0924
 4900TIP3   OH236114   4.280   0.599   4.903  0.2139 -0.0423  0.2899
 4900TIP3    H136115   4.222   0.528   4.928  1.5818 -1.8076 -1.4087
 4900TIP3    H236116   4.240   0.637   4.825  0.3773 -0.0636  0.1952
 4901TIP3   OH236117   0.693   0.167   3.453  0.2304  0.3743 -0.3333
 4901TIP3    H136118   0.681   0.075   3.429 -1.3486  0.9626 -1.7954
 4901TIP3    H236119   0.605   0.204   3.453  1.1786  2.7447 -3.2427
 4902TIP3   OH236120   4.271   2.188   1.079  0.1976  0.0520  0.2598
 4902TIP3    H136121   4.321   2.148   1.150  2.1278  0.5952 -0.7587
 4902TIP3    H236122   4.318   2.268   1.058 -0.8796  0.3773 -1.0167
 4903TIP3   OH236123   4.167   0.092  15.839  0.0589  0.7884  0.0515
 4903TIP3    H136124   4.131   0.026  15.898 -3.6435  1.8744 -0.8499
 4903TIP3    H236125   4.229   0.141  15.893  0.5065 -1.3647  1.5892
 4904TIP3   OH236126   1.867   3.107   1.186 -0.1257 -0.1244 -0.2175
 4904TIP3    H136127   1.811   3.030   1.182 -1.2983  0.7025  0.0180
 4904TIP3    H236128   1.897   3.110   1.277 -0.4993 -0.0083 -0.0986
 4905TIP3   OH236129   5.915   6.126  10.528  0.0920 -0.0533  0.0327
 4905TIP3    H136130   5.983   6.090  10.471 -0.6540 -0.2954 -0.7063
 4905TIP3    H236131   5.886   6.206  10.484 -1.3434 -0.8901 -0.5390
 4906TIP3   OH236132   3.802   1.220   2.714  0.1524  0.4134  0.1119
 4906TIP3    H136133   3.878   1.180   2.758  0.2853 -0.9566 -1.3174
 4906TIP3    H236134   3.820   1.314   2.716  1.4550  0.1691  0.6013
 4907TIP3   OH236135   3.597   6.073   2.070  0.2680 -0.0544  0.0680
 4907TIP3    H136136   3.594   5.980   2.094 -3.2578  0.5274  2.1451
 4907TIP3    H236137   3.507   6.104   2.079  1.6595  4.0241  1.2373
 4908TIP3   OH236138   5.033   3.684   5.217 -0.3609  0.0802  0.4073
 4908TIP3    H136139   4.937   3.679   5.211 -0.4915  1.0385  1.5316
 4908TIP3    H236140   5.052   3.777   5.210  0.6971 -0.3203 -2.3722
 4909TIP3   OH236141   3.721   5.635  15.237 -0.2009 -0.4286  0.2457
 4909TIP3    H136142   3.776   5.561  15.209 -0.5328 -0.1459 -1.1958
 4909TIP3    H236143   3.782   5.706  15.253 -0.0272 -0.5215 -0.0037
 4910TIP3   OH236144   2.647   2.387  13.639  0.5202  0.0535 -0.2976
 4910TIP3    H136145   2.721   2.349  13.687  1.2999  1.9642  0.0594
 4910TIP3    H236146   2.646   2.479  13.665 -0.8850  0.4511 -1.6833
 4911TIP3   OH236147   2.745   2.192  12.982 -0.3933  0.0487  0.1136
 4911TIP3    H136148   2.796   2.272  12.982  0.5297 -0.5355 -0.3795
 4911TIP3    H236149   2.668   2.212  13.036  0.9421  0.5489  1.8433
 4912TIP3   OH236150   1.762   0.784   3.218 -0.3689  0.0616 -0.2574
 4912TIP3    H136151   1.696   0.795   3.150 -1.4272  1.1221  0.9315
 4912TIP3    H236152   1.722   0.819   3.297  1.3092 -0.0296  0.6594
 4913TIP3   OH236153   1.817   0.208  14.835 -0.5531  0.0917  0.0311
 4913TIP3    H136154   1.766   0.210  14.754  1.6937  1.6238 -1.3891
 4913TIP3    H236155   1.873   0.131  14.827  1.3706  1.5528 -0.9938
 4914TIP3   OH236156   0.689   3.582   3.730  0.0437 -0.4751 -0.5755
 4914TIP3    H136157   0.743   3.521   3.781  0.8579 -0.7422 -1.7332
 4914TIP3    H236158   0.667   3.652   3.792  0.4379 -1.1342  0.3282
 4915TIP3   OH236159   3.643   5.099  14.869  0.2719  0.2664 -0.2518
 4915TIP3    H136160   3.717   5.158  14.880 -0.5452  1.4206 -0.9010
 4915TIP3    H236161   3.569   5.147  14.905 -0.2693 -0.6508 -0.1356
 4916TIP3   OH236162   4.759   3.559   1.728 -0.0697  0.4577 -1.0516
 4916TIP3    H136163   4.821   3.631   1.741  1.3532 -0.6851 -1.3842
 4916TIP3    H236164   4.812   3.488   1.691 -1.6346 -0.4528 -1.5982
 4917TIP3   OH236165   2.795   5.348  15.959 -0.0973 -0.1282 -0.3150
 4917TIP3    H136166   2.708   5.346  15.999 -0.0086 -0.9066 -0.1595
 4917TIP3    H236167   2.791   5.420  15.896 -0.6810  0.1900  0.0835
 4918TIP3   OH236168   6.163   3.177   0.216  0.2457 -0.0371 -0.0044
 4918TIP3    H136169   6.085   3.170   0.272 -1.5140  1.1244 -2.2747
 4918TIP3    H236170   6.178   3.087   0.186 -0.6076 -0.1554 -0.0909
 4919TIP3   OH236171   4.707   5.064  12.798  0.2386 -0.1033 -0.0346
 4919TIP3    H136172   4.632   5.088  12.852 -0.5032  0.3043 -1.2290
 4919TIP3    H236173   4.735   4.979  12.832 -1.9576 -1.1714 -0.8328
 4920TIP3   OH236174   6.714   6.555   3.570  0.3186 -0.1047 -0.1944
 4920TIP3    H136175   6.768   6.629   3.544 -0.4060  0.4922  0.0050
 4920TIP3    H236176   6.728   6.547   3.664 -1.3608  1.2061  0.1830
 4921TIP3   OH236177   6.340   5.004  16.972 -0.0243  0.1071 -0.0604
 4921TIP3    H136178   6.362   4.911  16.962 -0.1515  0.0182  0.4774
 4921TIP3    H236179   6.417   5.050  16.938  0.1672 -0.1975 -0.0439
 4922TIP3   OH236180   0.025   1.689  16.754  0.1855  0.4140  0.0011
 4922TIP3    H136181   0.031   1.681  16.659 -1.2267  0.5491 -0.1059
 4922TIP3    H236182  -0.046   1.630  16.779  0.3564  0.5951  0.9408
 4923TIP3   OH236183   1.007   6.572   1.942 -0.2916 -0.3226 -0.5444
 4923TIP3    H136184   1.030   6.600   1.854  1.5875 -1.7534 -0.5442
 4923TIP3    H236185   1.077   6.607   1.997 -0.5196 -0.8911  0.1235
 4924TIP3   OH236186   3.245   3.618   2.313 -0.4688 -0.7663 -0.1249
 4924TIP3    H136187   3.225   3.660   2.396  0.7820 -1.0443  0.3248
 4924TIP3    H236188   3.340   3.604   2.315 -0.4470 -0.8916 -1.5360
 4925TIP3   OH236189   2.090   4.983   1.400 -0.9909 -0.0232 -0.0620
 4925TIP3    H136190   1.997   4.960   1.401 -1.6091  2.3486 -0.8218
 4925TIP3    H236191   2.120   4.966   1.489 -1.6803 -2.5879 -0.2849
 4926TIP3   OH236192   6.205   6.013  17.023  0.0126  0.6222 -0.2053
 4926TIP3    H136193   6.144   5.945  17.053 -0.1087  0.8623  0.0956
 4926TIP3    H236194   6.157   6.058  16.954  0.8091 -0.8092 -1.7276
 4927TIP3   OH236195   1.437   4.429  11.740 -0.1700  0.3459  0.2987
 4927TIP3    H136196   1.474   4.517  11.733  1.4389 -0.3379  0.1255
 4927TIP3    H236197   1.454   4.389  11.654  0.0861 -0.5031  0.7406
 4928TIP3   OH236198   5.582   5.461   2.233  0.4497 -0.5137 -0.3369
 4928TIP3    H136199   5.566   5.435   2.324  1.3570  2.2496  0.6655
 4928TIP3    H236200   5.500   5.441   2.188 -0.1668 -1.5205  1.1737
 4929TIP3   OH236201   0.888   6.169   1.707 -0.0108 -0.5445  0.0631
 4929TIP3    H136202   0.874   6.263   1.720 -1.2368 -0.6425 -0.4455
 4929TIP3    H236203   0.961   6.147   1.765  0.9050  0.9016 -0.5450
 4930TIP3   OH236204   5.925   3.016  10.908  0.1172 -0.2568  0.2000
 4930TIP3    H136205   5.881   3.089  10.865  1.0686 -0.6318 -1.4847
 4930TIP3    H236206   6.018   3.035  10.897  0.4850 -3.7178 -4.0230
 4931TIP3   OH236207   3.723   4.732  14.369  0.0320  0.2221 -0.8089
 4931TIP3    H136208   3.644   4.756  14.417 -1.6073 -1.0325 -2.7717
 4931TIP3    H236209   3.737   4.804  14.308  1.6406  1.4306  0.9500
 4932TIP3   OH236210   1.608   0.910   4.874 -0.2537 -0.0477  0.0831
 4932TIP3    H136211   1.618   0.865   4.790  2.1044  1.1577 -0.3385
 4932TIP3    H236212   1.526   0.958   4.866 -0.4248 -0.5353 -1.2513
 4933TIP3   OH236213   0.407   0.482   1.106  0.0432 -0.3809 -0.3211
 4933TIP3    H136214   0.498   0.512   1.109 -0.3641  0.7508  4.1476
 4933TIP3    H236215   0.410   0.392   1.139 -0.3740 -0.5317 -0.6952
 4934TIP3   OH236216   6.543   6.647  17.047  0.0711 -0.3193  0.2084
 4934TIP3    H136217   6.568   6.624  17.136  1.8848  1.0317  0.0727
 4934TIP3    H236218   6.577   6.576  16.993  1.8421  0.4620  0.2597
 4935TIP3   OH236219   1.368   5.426   2.885  0.4279  0.1488 -0.3694
 4935TIP3    H136220   1.432   5.355   2.893 -0.6815 -0.6961  1.4982
 4935TIP3    H236221   1.340   5.442   2.975 -1.0923  1.3351 -1.0436
 4936TIP3   OH236222   2.021   6.334   1.679 -0.3066  0.7208  0.2814
 4936TIP3    H136223   2.017   6.337   1.583  0.0158 -1.1852  0.1847
 4936TIP3    H236224   1.945   6.280   1.704 -1.4922  2.7889  1.2248
 4937TIP3   OH236225   5.736   1.365  15.516 -0.4295  0.1303  0.1581
 4937TIP3    H136226   5.815   1.323  15.483 -0.6287 -0.2837  0.2023
 4937TIP3    H236227   5.698   1.300  15.575 -1.6882 -0.3312 -1.1440
 4938TIP3   OH236228   1.944   0.168   2.811 -0.6666  0.0040 -0.6841
 4938TIP3    H136229   1.906   0.156   2.898  0.3157 -1.2281 -0.4062
 4938TIP3    H236230   1.900   0.245   2.776 -3.0809 -1.1038 -0.2005
 4939TIP3   OH236231   0.476   1.369  16.756  0.3119 -0.4065 -0.2810
 4939TIP3    H136232   0.556   1.418  16.736 -1.0142  1.6271 -0.6718
 4939TIP3    H236233   0.427   1.369  16.674 -0.8338 -0.2470  0.3930
 4940TIP3   OH236234   5.938   4.944   4.209  0.4249  0.4219  0.3177
 4940TIP3    H136235   5.996   4.870   4.226 -1.8573 -1.7933 -1.1608
 4940TIP3    H236236   5.893   4.958   4.292  2.1655  1.4002  1.1358
 4941TIP3   OH236237   1.021   1.365   1.742  0.0415 -0.3541  0.3615
 4941TIP3    H136238   0.954   1.320   1.794  0.6435 -1.4768  0.1865
 4941TIP3    H236239   1.006   1.458   1.758 -3.0160 -0.4635 -1.4806
 4942TIP3   OH236240   4.724   1.603  13.392  0.1357  0.2796 -0.2231
 4942TIP3    H136241   4.629   1.594  13.400  0.0626  0.4716 -0.8556
 4942TIP3    H236242   4.746   1.682  13.441  0.0994 -0.3043  0.7618
 4943TIP3   OH236243   4.229   1.816  16.372  0.0293 -0.1521 -0.1467
 4943TIP3    H136244   4.148   1.779  16.407  0.6507 -0.9429  0.4875
 4943TIP3    H236245   4.289   1.741  16.367  1.2601  0.7338  1.0164
 4944TIP3   OH236246   2.745   5.140   4.296 -0.2908  0.5164 -0.1563
 4944TIP3    H136247   2.789   5.082   4.234 -2.2074  1.8091 -2.7906
 4944TIP3    H236248   2.817   5.182   4.343  1.2820  0.9184 -2.8031
 4945TIP3   OH236249   0.387   1.626  15.716  0.3181 -0.1290  0.7089
 4945TIP3    H136250   0.395   1.721  15.724 -0.4161 -0.0988  1.1108
 4945TIP3    H236251   0.341   1.613  15.633  1.2387 -0.1709  0.1984
 4946TIP3   OH236252   2.994   4.306   0.496  0.4306  0.7131 -0.5526
 4946TIP3    H136253   2.985   4.359   0.576  0.7264 -0.6205  0.3876
 4946TIP3    H236254   3.087   4.308   0.476  0.5396 -0.0067 -0.1249
 4947TIP3   OH236255   1.964   2.725  16.751  0.3906  0.2411 -0.3896
 4947TIP3    H136256   1.903   2.698  16.683 -0.3384 -0.1268  0.4035
 4947TIP3    H236257   2.012   2.799  16.713 -0.6146  0.5948 -0.9776
 4948TIP3   OH236258   3.031   4.424  12.859  0.7222  0.0320 -0.3571
 4948TIP3    H136259   2.944   4.407  12.895  0.9896  0.5298  0.5257
 4948TIP3    H236260   3.055   4.510  12.893  1.1773  0.2948 -1.3407
 4949TIP3   OH236261   6.414   5.432   2.116 -0.1653  0.2950 -0.1547
 4949TIP3    H136262   6.382   5.363   2.057  1.3645 -0.7111  0.1814
 4949TIP3    H236263   6.433   5.506   2.058 -1.1517  0.2143 -0.5973
 4950TIP3   OH236264   5.327   2.188  12.528  0.0152 -0.1791 -0.2859
 4950TIP3    H136265   5.284   2.146  12.453 -1.0712 -0.0816  0.2727
 4950TIP3    H236266   5.264   2.179  12.600 -0.4318  2.7772 -0.2412
 4951TIP3   OH236267   5.809   4.058  14.902 -0.5049 -0.2662  0.3793
 4951TIP3    H136268   5.860   4.124  14.950 -2.4069  2.2902 -1.0332
 4951TIP3    H236269   5.853   4.051  14.817 -0.4495 -0.6776  0.4386
 4952TIP3   OH236270   0.927   0.106  13.459 -0.1055  0.2339  0.7162
 4952TIP3    H136271   0.877   0.173  13.505  1.4945  0.1579  2.6283
 4952TIP3    H236272   0.941   0.037  13.524  1.7652 -0.1108 -0.0287
 4953TIP3   OH236273   1.132   5.836  11.871 -0.1789  0.1281 -0.0812
 4953TIP3    H136274   1.050   5.787  11.862 -0.3213  0.2107  0.8166
 4953TIP3    H236275   1.124   5.908  11.808 -0.9761  0.3953  0.3225
 4954TIP3   OH236276   3.476   0.006   4.795  0.4633 -0.0406  0.0515
 4954TIP3    H136277   3.515  -0.081   4.785  1.9039  0.3641  1.8518
 4954TIP3    H236278   3.386  -0.011   4.824 -0.0457 -0.9323 -1.9019
 4955TIP3   OH236279   4.567   4.542  13.314  0.0691 -0.4771  0.5086
 4955TIP3    H136280   4.627   4.485  13.362  1.4020 -0.0399 -0.5811
 4955TIP3    H236281   4.606   4.629  13.322 -0.8928 -0.0410  0.5127
 4956TIP3   OH236282   5.585   4.684   1.156  0.5900 -0.2066  0.2147
 4956TIP3    H136283   5.591   4.723   1.243  2.0329  1.9598 -0.8133
 4956TIP3    H236284   5.666   4.634   1.146  0.7531  0.1263 -0.1477
 4957TIP3   OH236285   2.851   1.442   5.992  0.1805  0.8904  0.5837
 4957TIP3    H136286   2.900   1.388   5.930 -0.5426  2.1452 -1.0966
 4957TIP3    H236287   2.917   1.495   6.036  0.4396  1.7706 -0.8707
 4958TIP3   OH236288   1.701   5.261   1.037  0.6259  0.6372  0.2955
 4958TIP3    H136289   1.725   5.209   0.961  0.9831 -0.7612  1.3340
 4958TIP3    H236290   1.620   5.220   1.070  0.6774  0.9945  0.8769
 4959TIP3   OH236291   5.073   2.448   5.259 -0.5330  0.0569 -0.2708
 4959TIP3    H136292   5.080   2.357   5.285  0.3776  0.5722  1.3926
 4959TIP3    H236293   5.049   2.495   5.339  4.2807  1.9512  0.2586
 4960TIP3   OH236294   2.449   1.730  15.570 -0.2111  0.7082 -0.4127
 4960TIP3    H136295   2.520   1.794  15.581 -0.6855  1.4527 -1.6403
 4960TIP3    H236296   2.379   1.763  15.625  0.5499 -0.2932  1.1972
 4961TIP3   OH236297   1.056   4.942  16.069 -0.3639 -0.1470  0.1401
 4961TIP3    H136298   0.999   4.996  16.015  0.8819 -0.6101 -1.6775
 4961TIP3    H236299   1.144   4.956  16.033  0.5600 -0.0762  2.3646
 4962TIP3   OH236300   1.330   3.475   2.697 -0.4175  0.1311 -0.3535
 4962TIP3    H136301   1.346   3.557   2.650  0.3866 -0.2900 -0.8362
 4962TIP3    H236302   1.309   3.412   2.627 -1.0040 -0.0804  0.0108
 4963TIP3   OH236303   6.771   5.038  11.314  0.0455 -0.5710  0.3651
 4963TIP3    H136304   6.832   4.982  11.361 -0.1887 -0.2158  1.0924
 4963TIP3    H236305   6.827   5.100  11.267  0.2583 -0.3881  0.8559
 4964TIP3   OH236306   5.796   2.333   3.844 -0.4358 -0.2309 -0.2569
 4964TIP3    H136307   5.811   2.344   3.938  1.2448 -2.5020 -0.2128
 4964TIP3    H236308   5.829   2.414   3.805 -2.2147  1.2397  1.1582
 4965TIP3   OH236309   0.713   1.874  14.506 -0.9052 -0.0760 -0.3749
 4965TIP3    H136310   0.642   1.889  14.443  1.0404  4.5780 -1.6602
 4965TIP3    H236311   0.680   1.909  14.588 -0.5297  1.0195 -0.6912
 4966TIP3   OH236312   3.266   2.605  13.821 -0.4085  0.2178 -0.0953
 4966TIP3    H136313   3.356   2.620  13.849  0.0527 -0.6730 -1.0521
 4966TIP3    H236314   3.259   2.650  13.737 -0.9369  0.4962  0.0960
 4967TIP3   OH236315   6.011   3.298  11.137  0.6960  0.0220 -0.3994
 4967TIP3    H136316   5.969   3.214  11.151  1.1610 -0.1652 -0.0976
 4967TIP3    H236317   6.105   3.280  11.147  0.6465  1.1779  2.9001
 4968TIP3   OH236318   5.063   1.794  14.680 -0.1596  0.2780  0.1309
 4968TIP3    H136319   5.099   1.878  14.709 -1.4424  1.2083 -0.9092
 4968TIP3    H236320   4.971   1.797  14.707 -0.2557 -0.7304 -0.0522
 4969TIP3   OH236321   0.335   6.361  14.533  0.3796  0.6929  0.7218
 4969TIP3    H136322   0.265   6.348  14.597 -0.5306  1.0379 -0.1889
 4969TIP3    H236323   0.362   6.452  14.545  0.1241  0.7942  0.5405
 4970TIP3   OH236324   3.060   4.111   3.565 -0.5940 -0.1722 -0.2389
 4970TIP3    H136325   2.999   4.171   3.607 -0.1420 -0.6152  1.0693
 4970TIP3    H236326   3.015   4.083   3.485 -1.2206  1.1144 -0.3433
 4971TIP3   OH236327   1.670   4.422  16.589 -0.3192  0.2464  0.1724
 4971TIP3    H136328   1.644   4.508  16.558  0.6814  0.1751 -0.8800
 4971TIP3    H236329   1.758   4.409  16.553 -1.4425 -2.2670 -1.8198
 4972TIP3   OH236330   6.718   0.680  17.211  0.2089  0.0713 -0.2946
 4972TIP3    H136331   6.699   0.712  17.299 -1.0902  2.2725 -1.3316
 4972TIP3    H236332   6.692   0.588  17.212 -1.1567  0.4633  1.1988
 4973TIP3   OH236333   1.679   4.896   2.605  0.2004  0.6508  0.3644
 4973TIP3    H136334   1.715   4.977   2.569  0.4723  0.2058 -0.3700
 4973TIP3    H236335   1.585   4.902   2.588  0.0957  1.1993  1.0853
 4974TIP3   OH236336   1.448   4.226  11.385 -0.0170 -0.1123  0.2057
 4974TIP3    H136337   1.482   4.158  11.443  1.0419  0.1000 -0.1517
 4974TIP3    H236338   1.490   4.306  11.416  1.4346 -0.1652 -1.5324
 4975TIP3   OH236339   2.291   3.065   0.553 -0.0091  0.3934 -0.0696
 4975TIP3    H136340   2.338   3.148   0.550  0.4711  0.1778  1.0750
 4975TIP3    H236341   2.222   3.079   0.617  2.3079 -1.1750  2.9249
 4976TIP3   OH236342   3.293   3.859   2.650  0.2895 -0.6991  0.0934
 4976TIP3    H136343   3.359   3.928   2.651  0.8603 -1.2312 -0.3349
 4976TIP3    H236344   3.337   3.784   2.690 -0.4495 -0.7079  0.9040
 4977TIP3   OH236345   5.112   6.066  15.148  0.8627  0.2914 -0.6255
 4977TIP3    H136346   5.151   6.136  15.096  0.6312  2.1545  1.6231
 4977TIP3    H236347   5.174   6.054  15.221 -0.2779 -0.1805  0.2698
 4978TIP3   OH236348   1.575   3.744   4.873  0.8338 -0.2909 -0.4164
 4978TIP3    H136349   1.647   3.713   4.817  1.4704  0.0313  0.2114
 4978TIP3    H236350   1.608   3.733   4.962  0.2566  0.2424 -0.1375
 4979TIP3   OH236351   6.194   5.139   3.335  0.0902 -0.3701  0.2487
 4979TIP3    H136352   6.131   5.094   3.278 -0.7107 -0.3190  1.0799
 4979TIP3    H236353   6.245   5.193   3.275 -0.7083 -0.3583 -0.4369
 4980TIP3   OH236354   5.704   0.487   0.565 -0.1904  0.5711  0.0453
 4980TIP3    H136355   5.706   0.504   0.470 -2.4788 -1.5972 -0.4329
 4980TIP3    H236356   5.761   0.412   0.577 -0.7632  0.1624  0.2210
 4981TIP3   OH236357   1.297   2.571   3.619  0.5195 -0.2091 -0.3726
 4981TIP3    H136358   1.281   2.574   3.714  1.3079 -0.7808 -0.2250
 4981TIP3    H236359   1.355   2.646   3.602 -0.6879  0.6910 -0.6142
 4982TIP3   OH236360   3.030   2.689  16.684 -0.0130  0.1015 -0.6528
 4982TIP3    H136361   3.097   2.623  16.666 -0.0182 -0.0550 -0.1133
 4982TIP3    H236362   3.000   2.669  16.773 -0.6247  0.3035 -0.8078
 4983TIP3   OH236363   0.181   5.137  12.566  0.2906 -0.5035 -0.0143
 4983TIP3    H136364   0.104   5.083  12.554  0.1059 -0.2006 -0.1926
 4983TIP3    H236365   0.253   5.074  12.579  0.1494 -0.7933 -0.6396
 4984TIP3   OH236366   0.654   3.764   3.929 -0.7021 -0.0081  0.3325
 4984TIP3    H136367   0.696   3.850   3.928 -1.6598  0.4873  1.6299
 4984TIP3    H236368   0.656   3.737   4.021  0.6480 -1.9107 -0.2327
 4985TIP3   OH236369   4.152   6.192   6.259  0.0556  0.3186  0.2581
 4985TIP3    H136370   4.099   6.222   6.185  1.2334  0.5087 -0.5336
 4985TIP3    H236371   4.131   6.099   6.267 -1.8887  0.8112  1.2537
 4986TIP3   OH236372   0.420   5.495  13.801  0.1776 -0.4297 -0.1617
 4986TIP3    H136373   0.499   5.549  13.807 -0.7673  0.9995 -0.2376
 4986TIP3    H236374   0.415   5.469  13.709 -0.6062  1.3422 -0.6576
 4987TIP3   OH236375   0.475   6.292  15.299 -0.1059 -0.1392  0.2320
 4987TIP3    H136376   0.428   6.326  15.375 -0.2011  0.6543 -0.1763
 4987TIP3    H236377   0.423   6.319  15.224  0.4251 -0.2047 -0.1649
 4988TIP3   OH236378   4.557   5.059  11.207 -0.1145  0.1762  0.2117
 4988TIP3    H136379   4.533   5.071  11.115 -0.7585 -1.1279  0.2007
 4988TIP3    H236380   4.498   5.117  11.255 -2.0604 -1.5891  0.0366
 4989TIP3   OH236381   2.062   3.712   2.865  0.4310  0.1876  0.5199
 4989TIP3    H136382   2.054   3.722   2.770 -0.4125 -1.5187  0.4033
 4989TIP3    H236383   2.137   3.653   2.877 -1.2640 -1.9488  0.7888
 4990TIP3   OH236384   3.850   0.319   0.852 -0.2070 -0.6336  0.1977
 4990TIP3    H136385   3.758   0.298   0.837 -0.2208 -0.2700 -0.2309
 4990TIP3    H236386   3.877   0.366   0.773 -0.2860  1.3354  1.3286
 4991TIP3   OH236387   6.486   0.302  16.223  0.0729 -0.8284 -0.3505
 4991TIP3    H136388   6.467   0.392  16.199 -1.5381 -0.8711  0.6840
 4991TIP3    H236389   6.502   0.257  16.140  2.1307  0.6750 -0.7838
 4992TIP3   OH236390   1.000   1.444  16.029 -0.2159 -0.1029 -0.1853
 4992TIP3    H136391   0.926   1.445  16.089 -0.6721  0.6613 -0.7507
 4992TIP3    H236392   1.072   1.406  16.080 -0.7249  0.0803  0.6805
 4993TIP3   OH236393   1.091   1.747  11.154 -0.3578 -0.0178 -0.4081
 4993TIP3    H136394   1.051   1.738  11.068 -1.8181 -1.6777  0.4109
 4993TIP3    H236395   1.029   1.799  11.205  1.1883  2.2234 -0.7665
 4994TIP3   OH236396   3.764   3.060   3.727  0.0419  0.3079  0.4172
 4994TIP3    H136397   3.671   3.077   3.710 -0.3019  1.1769  2.8529
 4994TIP3    H236398   3.781   3.104   3.811  3.3109  2.3397 -1.2222
 4995TIP3   OH236399   1.115   3.635   1.555 -0.0536  0.1775  0.6966
 4995TIP3    H136400   1.031   3.609   1.592 -0.2041 -1.5303 -0.7601
 4995TIP3    H236401   1.094   3.699   1.488 -0.3939 -1.5167 -0.8646
 4996TIP3   OH236402   4.653   2.086   3.154  0.2020  0.2133 -0.0020
 4996TIP3    H136403   4.720   2.117   3.214 -0.3425  1.3426  0.0213
 4996TIP3    H236404   4.665   1.991   3.153  1.9566  0.4108 -0.1775
 4997TIP3   OH236405   3.722   0.142   2.920  0.3034  0.8296  0.0491
 4997TIP3    H136406   3.772   0.169   2.843  1.8030  1.4544  1.2155
 4997TIP3    H236407   3.764   0.060   2.949 -0.4547  0.4231  0.0203
 4998TIP3   OH236408   4.586   3.513  13.575 -0.0551  0.1439  0.1196
 4998TIP3    H136409   4.625   3.428  13.556  0.6773  0.4093  0.4217
 4998TIP3    H236410   4.517   3.523  13.510  0.4584 -0.2728 -0.4942
 4999TIP3   OH236411   0.987   5.978   4.945  0.7742  0.5931  0.2291
 4999TIP3    H136412   0.912   5.988   5.003 -0.4516 -0.1075 -1.2037
 4999TIP3    H236413   1.043   5.914   4.990  0.3602  0.8446  1.1219
 5000TIP3   OH236414   5.138   2.795   3.128  0.7900  0.5597  0.2699
 5000TIP3    H136415   5.135   2.824   3.219  1.7492 -0.2844  0.5815
 5000TIP3    H236416   5.223   2.824   3.096 -0.2514  2.4094 -0.9153
 5001TIP3   OH236417   4.257   0.562  14.107 -0.1052 -0.2294 -0.3246
 5001TIP3    H136418   4.262   0.606  14.192  0.4876  0.5910 -0.7786
 5001TIP3    H236419   4.185   0.605  14.062 -2.7375 -2.9916  1.0632
 5002TIP3   OH236420   4.152   4.871   3.429  0.1012  0.0205 -0.0568
 5002TIP3    H136421   4.237   4.897   3.395 -0.6860  0.1414 -1.9857
 5002TIP3    H236422   4.101   4.952   3.432 -0.4017 -0.2860 -0.2619
 5003TIP3   OH236423   1.632   0.597   3.854  0.0713  0.3293  0.5050
 5003TIP3    H136424   1.630   0.688   3.824  1.2060 -0.1182 -0.9998
 5003TIP3    H236425   1.721   0.568   3.837  0.1443 -0.6426  2.3330
 5004TIP3   OH236426   3.848   3.140  14.913 -0.2818  0.1085  0.8481
 5004TIP3    H136427   3.775   3.114  14.969 -0.8560  1.8099  0.9190
 5004TIP3    H236428   3.828   3.101  14.828 -1.3435  0.7041  0.8261
 5005TIP3   OH236429   3.659   1.761   5.929  0.4865  0.0965  0.3351
 5005TIP3    H136430   3.607   1.681   5.919  0.2360  0.6467 -3.2359
 5005TIP3    H236431   3.747   1.729   5.951  0.3469 -1.1582 -0.8355
 5006TIP3   OH236432   6.513   6.598  11.576 -0.0029  0.0015  0.5267
 5006TIP3    H136433   6.443   6.568  11.517  1.0343 -1.7187  0.1224
 5006TIP3    H236434   6.544   6.680  11.537  0.7671 -1.1876 -1.4606
 5007TIP3   OH236435   0.746   5.659   1.445  0.6036  0.5745  0.5757
 5007TIP3    H136436   0.712   5.572   1.466 -0.2799  0.3294 -1.7210
 5007TIP3    H236437   0.841   5.650   1.453  0.6521 -1.1091 -1.3020
 5008TIP3   OH236438   5.310   3.337  16.944 -0.9749  0.0782  0.2153
 5008TIP3    H136439   5.337   3.278  17.015  1.7323  1.4774  0.4228
 5008TIP3    H236440   5.343   3.295  16.865  1.0019  1.2903  0.3705
 5009TIP3   OH236441   2.272   0.643  13.570 -0.1670  0.2100  0.1174
 5009TIP3    H136442   2.187   0.672  13.604 -1.7044 -1.6379 -1.9897
 5009TIP3    H236443   2.319   0.724  13.548 -1.5412  1.2381  0.9430
 5010TIP3   OH236444   2.632   0.512   5.377  0.0307 -0.2813  0.1150
 5010TIP3    H136445   2.569   0.495   5.447 -0.9282  0.7743 -0.4684
 5010TIP3    H236446   2.597   0.589   5.332  2.6225  1.3718  0.8233
 5011TIP3   OH236447   1.970   4.623   4.033 -0.4082 -0.2355 -0.4287
 5011TIP3    H136448   2.026   4.585   3.965 -0.2789 -0.4348 -0.2099
 5011TIP3    H236449   2.003   4.711   4.045  1.2160 -1.0378  1.2091
 5012TIP3   OH236450   0.902   3.963   0.829  0.3123  0.0793  0.3435
 5012TIP3    H136451   0.935   3.881   0.793 -2.4600 -1.2627  0.7851
 5012TIP3    H236452   0.847   3.999   0.759  1.7878  1.7877  0.0090
 5013TIP3   OH236453   1.011   2.143  16.227 -0.1912 -0.3055 -0.3090
 5013TIP3    H136454   0.999   2.073  16.291  0.4757  0.6087  0.8391
 5013TIP3    H236455   1.096   2.181  16.248  1.3577 -1.8245 -3.5720
 5014TIP3   OH236456   4.126   5.677  14.509  0.5205 -0.3135 -0.6901
 5014TIP3    H136457   4.219   5.672  14.488  0.5457 -1.8461 -0.2689
 5014TIP3    H236458   4.083   5.681  14.423  0.9424 -0.1962 -0.8978
 5015TIP3   OH236459   5.785   1.716   0.975 -0.2402 -0.1820  0.1530
 5015TIP3    H136460   5.858   1.692   0.918  0.1483  2.3136 -0.4464
 5015TIP3    H236461   5.707   1.698   0.923  0.0656  0.4210 -0.5353
 5016TIP3   OH236462   2.584   3.503  15.405  0.2015  0.4444  0.3265
 5016TIP3    H136463   2.657   3.462  15.451  0.8564  1.8001  0.4886
 5016TIP3    H236464   2.586   3.464  15.318  0.8144  0.1301  0.4809
 5017TIP3   OH236465   4.092   6.571  15.008 -0.2191  0.2768 -0.5446
 5017TIP3    H136466   4.112   6.603  14.920  0.7943  2.1944  0.3476
 5017TIP3    H236467   4.012   6.617  15.034 -0.0385  0.3644 -0.1303
 5018TIP3   OH236468   6.783   1.221   4.299 -0.3284 -0.1235 -0.4303
 5018TIP3    H136469   6.746   1.200   4.214 -1.9133  2.0493 -0.3207
 5018TIP3    H236470   6.859   1.163   4.307 -1.5201 -2.0038 -2.2824
 5019TIP3   OH236471   0.422   6.361   2.271  0.1751 -0.1864 -0.1280
 5019TIP3    H136472   0.487   6.400   2.330 -0.7128 -1.6608  1.8706
 5019TIP3    H236473   0.401   6.431   2.208  2.8216  0.6658 -0.1086
 5020TIP3   OH236474   4.657   2.334   0.858 -0.1198 -0.4895  0.2195
 5020TIP3    H136475   4.604   2.362   0.933 -0.1261 -0.9455  0.3915
 5020TIP3    H236476   4.601   2.274   0.810  0.7316 -2.1202  1.2061
 5021TIP3   OH236477   4.104   3.029   3.100  0.4225  0.8528 -0.2927
 5021TIP3    H136478   4.113   2.977   3.180 -0.2220 -0.0139 -0.7844
 5021TIP3    H236479   4.141   2.974   3.031  0.5184  1.3934 -0.6781
 5022TIP3   OH236480   0.458   5.206   3.123 -0.2810 -0.4524  0.5314
 5022TIP3    H136481   0.531   5.166   3.076 -1.2673 -3.0756  1.1805
 5022TIP3    H236482   0.402   5.241   3.053  1.1349  0.8061  0.0039
 5023TIP3   OH236483   4.557   6.105   5.044 -0.0812  0.0475 -0.0610
 5023TIP3    H136484   4.492   6.173   5.063 -1.8153 -1.1409 -1.5836
 5023TIP3    H236485   4.512   6.023   5.065  0.8355 -0.8110 -1.3975
 5024TIP3   OH236486   4.544   2.759  15.552 -0.0009  0.3215 -0.7200
 5024TIP3    H136487   4.583   2.835  15.510  0.9401 -0.0999 -0.6209
 5024TIP3    H236488   4.587   2.684  15.510 -1.6766 -0.1856 -1.5839
 5025TIP3   OH236489   3.726   5.246   4.422  0.2633 -0.5005  0.2454
 5025TIP3    H136490   3.774   5.182   4.369 -0.9128 -0.0365 -1.4204
 5025TIP3    H236491   3.716   5.322   4.365  2.6681  1.6982  2.5736
 5026TIP3   OH236492   2.306   1.473   2.733 -0.0177 -0.5065 -0.0266
 5026TIP3    H136493   2.216   1.458   2.704  0.1086 -1.7624  0.2135
 5026TIP3    H236494   2.349   1.513   2.657 -1.5126  2.8784  0.8167
 5027TIP3   OH236495   0.657   5.911   0.138 -0.1319 -0.4282 -0.0242
 5027TIP3    H136496   0.612   5.880   0.059 -1.6562 -0.4762  0.8361
 5027TIP3    H236497   0.673   6.004   0.122 -2.0649 -0.0133  0.3274
 5028TIP3   OH236498   0.971   1.784   2.086 -0.4762 -0.0971 -0.1540
 5028TIP3    H136499   0.899   1.754   2.142  0.1992  1.0535  1.3593
 5028TIP3    H236500   1.049   1.778   2.141  0.3254  0.2603 -1.2333
 5029TIP3   OH236501   6.651   1.547  11.908 -0.4799 -0.2455 -0.0183
 5029TIP3    H136502   6.596   1.615  11.868  0.7742  0.8116 -0.0039
 5029TIP3    H236503   6.718   1.529  11.842  1.1632  0.9708  1.2771
 5030TIP3   OH236504   5.689   1.980  16.421 -0.6102  0.1499 -0.0308
 5030TIP3    H136505   5.669   2.021  16.337 -0.6318 -0.2264 -0.2065
 5030TIP3    H236506   5.696   1.887  16.402  0.9277  0.2146  0.0937
 5031TIP3   OH236507   4.981   3.108   6.569  0.2375 -0.1420 -0.0228
 5031TIP3    H136508   5.053   3.050   6.594  1.3887  0.8974 -0.8775
 5031TIP3    H236509   4.957   3.152   6.650 -0.5993 -1.7282  0.6230
 5032TIP3   OH236510   6.303   5.385  11.697  0.5352 -0.5994 -0.3807
 5032TIP3    H136511   6.337   5.299  11.673  0.6242 -0.7679  0.3347
 5032TIP3    H236512   6.373   5.446  11.674  1.3837 -0.9610  1.2195
 5033TIP3   OH236513   2.160   1.570   5.728 -0.1672  0.1888 -0.0440
 5033TIP3    H136514   2.082   1.551   5.676  0.9086 -1.9576 -0.9215
 5033TIP3    H236515   2.165   1.665   5.730 -1.9667  0.3257 -1.2505
 5034TIP3   OH236516   5.993   0.369  15.069  0.2963  0.4743 -0.3092
 5034TIP3    H136517   5.958   0.382  15.157 -0.0165  3.2555 -0.7845
 5034TIP3    H236518   6.088   0.373  15.080  0.2877 -0.2356  0.0416
 5035TIP3   OH236519   1.070   3.399   4.403  0.0276 -0.1402 -0.0724
 5035TIP3    H136520   1.152   3.445   4.385 -0.6021  0.6834 -0.9032
 5035TIP3    H236521   1.007   3.469   4.423 -1.0806 -0.5822 -1.9173
 5036TIP3   OH236522   4.481   4.673   3.433 -0.1937 -0.1367  0.1580
 5036TIP3    H136523   4.560   4.620   3.423 -0.4374 -0.5923  0.6565
 5036TIP3    H236524   4.427   4.625   3.495  0.2419  1.4365  1.8335
 5037TIP3   OH236525   2.241   1.754  12.508 -1.0229  0.1373 -0.1834
 5037TIP3    H136526   2.228   1.659  12.509 -0.4193  0.0689  0.7316
 5037TIP3    H236527   2.316   1.767  12.451 -0.1665 -0.0489  0.8927
 5038TIP3   OH236528   2.674   4.995  13.122  0.1404  0.5860 -0.4781
 5038TIP3    H136529   2.656   5.076  13.074  0.2638  0.7702 -0.2125
 5038TIP3    H236530   2.602   4.937  13.098  1.1318  0.0644 -2.2523
 5039TIP3   OH236531   6.097   0.208  12.984 -0.1497  0.6297 -0.0643
 5039TIP3    H136532   6.057   0.201  12.897 -0.8126  4.2243 -0.1147
 5039TIP3    H236533   6.029   0.247  13.038  1.6870  2.4380  1.0041
 5040TIP3   OH236534   4.269   0.035  12.539  0.2364  0.0586  0.1192
 5040TIP3    H136535   4.236   0.110  12.490  1.2882  0.0961 -0.5601
 5040TIP3    H236536   4.359   0.059  12.561  0.0324 -0.2998  1.3725
 5041TIP3   OH236537   2.666   4.084   1.309  0.4347  0.2577 -0.5255
 5041TIP3    H136538   2.600   4.145   1.274  0.8838  0.5972 -0.7886
 5041TIP3    H236539   2.649   4.082   1.403 -0.3175 -0.0958 -0.6688
 5042TIP3   OH236540   2.651   6.514  11.639 -0.6785 -0.1426 -0.7519
 5042TIP3    H136541   2.733   6.475  11.669 -1.2964 -0.2989  0.7913
 5042TIP3    H236542   2.656   6.606  11.665 -1.1844 -0.2551 -0.2464
 5043TIP3   OH236543   6.357   3.631   4.208  0.4469  0.4864 -0.5608
 5043TIP3    H136544   6.332   3.696   4.274  0.7627  1.0818 -1.0198
 5043TIP3    H236545   6.386   3.683   4.133  3.2989 -0.1786  0.0210
 5044TIP3   OH236546   3.711   5.353   5.920  0.3766 -0.1168  0.2546
 5044TIP3    H136547   3.635   5.301   5.892  2.4942 -1.4663 -3.2553
 5044TIP3    H236548   3.736   5.315   6.004 -1.8832 -0.5961  0.7669
 5045TIP3   OH236549   4.273   4.647   2.028 -0.4194 -0.3820 -0.2021
 5045TIP3    H136550   4.358   4.641   1.984 -0.7235 -2.6711 -0.5515
 5045TIP3    H236551   4.291   4.624   2.119 -0.5012  0.1552 -0.0472
 5046TIP3   OH236552   0.284   2.129   3.777 -0.3451  0.1206 -0.2266
 5046TIP3    H136553   0.289   2.033   3.775 -1.1527  0.0689  0.0823
 5046TIP3    H236554   0.192   2.148   3.795  0.1666  0.9267  1.7235
 5047TIP3   OH236555   2.583   4.637  14.874  0.3019 -0.3670  0.3643
 5047TIP3    H136556   2.521   4.709  14.879 -0.6914 -1.1963  0.1539
 5047TIP3    H236557   2.543   4.567  14.926  1.5962 -0.5182  1.1711
 5048TIP3   OH236558   5.305   0.543  12.614  0.4654 -0.0953 -0.1248
 5048TIP3    H136559   5.328   0.635  12.627 -0.7344  0.0591  1.0113
 5048TIP3    H236560   5.252   0.521  12.691  0.6322 -1.6948 -0.4606
 5049TIP3   OH236561   0.675   4.072   5.856 -0.2682  0.1648 -0.3911
 5049TIP3    H136562   0.594   4.029   5.829  0.5422 -1.1521 -0.7730
 5049TIP3    H236563   0.744   4.030   5.804  0.7258  0.9155  0.2864
 5050TIP3   OH236564   3.953   3.432  12.588 -0.0790 -0.1041  0.5586
 5050TIP3    H136565   3.945   3.463  12.678  1.0680 -0.6802  0.8755
 5050TIP3    H236566   3.890   3.361  12.581 -0.5896  0.3295  0.7239
 5051TIP3   OH236567   6.419   6.108  13.349  0.6010 -0.4386 -0.6258
 5051TIP3    H136568   6.452   6.019  13.335 -0.3649 -0.6720 -1.5338
 5051TIP3    H236569   6.404   6.142  13.261  1.5752  0.8678 -0.2938
 5052TIP3   OH236570   0.895   5.076   4.324  0.2022 -0.0282  0.0208
 5052TIP3    H136571   0.859   5.119   4.247 -1.1902 -0.1194  0.5953
 5052TIP3    H236572   0.971   5.129   4.349  0.2780  0.3593 -1.0304
 5053TIP3   OH236573   1.151   1.198  17.140 -0.4572 -0.2024 -0.0461
 5053TIP3    H136574   1.063   1.209  17.176 -0.5870 -1.5151  0.0827
 5053TIP3    H236575   1.138   1.153  17.057 -0.1406  2.7164 -1.7214
 5054TIP3   OH236576   4.260   2.990   6.036  0.2059  0.0696 -0.1946
 5054TIP3    H136577   4.256   3.037   5.952 -1.7987  1.1884  0.4994
 5054TIP3    H236578   4.322   3.040   6.089 -0.3697  0.7593 -0.1697
 5055TIP3   OH236579   1.717   0.160  12.758 -0.1344 -0.3454  0.2243
 5055TIP3    H136580   1.691   0.251  12.746 -0.4393 -0.7948 -3.0877
 5055TIP3    H236581   1.813   0.163  12.763 -0.1257  0.1273 -0.2260
 5056TIP3   OH236582   0.847   2.805  15.657 -0.0499  0.3914  0.4519
 5056TIP3    H136583   0.900   2.876  15.693 -0.7535  0.2318  1.8486
 5056TIP3    H236584   0.772   2.848  15.617  0.7560  0.5727 -0.8910
 5057TIP3   OH236585   2.258   1.480  16.018  0.0561  0.2404  0.2436
 5057TIP3    H136586   2.266   1.419  16.091  0.4707 -0.9071 -0.7484
 5057TIP3    H236587   2.314   1.554  16.042  1.3228 -0.7744  0.4501
 5058TIP3   OH236588   1.965   0.353   6.085  0.2916  0.1306  0.8823
 5058TIP3    H136589   1.885   0.308   6.057 -0.1589  1.7325 -0.4870
 5058TIP3    H236590   2.035   0.309   6.036  0.0167 -0.0381  0.6373
 5059TIP3   OH236591   1.164   4.360  15.076 -0.0029 -0.5871  0.0185
 5059TIP3    H136592   1.236   4.297  15.068 -0.2825 -0.8407 -0.5944
 5059TIP3    H236593   1.143   4.384  14.985  1.3755  1.8760  0.3025
 5060TIP3   OH236594   3.077   1.530  15.566 -0.4588  0.0384  0.1707
 5060TIP3    H136595   3.125   1.491  15.639  1.3270 -0.9232 -1.4604
 5060TIP3    H236596   3.017   1.462  15.537 -0.1456 -0.1072 -0.1500
 5061TIP3   OH236597   2.608   5.881  13.079  0.2661  0.1674  0.3184
 5061TIP3    H136598   2.523   5.912  13.111  0.2039  1.9588 -1.4480
 5061TIP3    H236599   2.671   5.916  13.141 -0.1744  0.2039  0.7507
 5062TIP3   OH236600   2.485   4.296  13.397 -0.3622  0.0317 -0.2896
 5062TIP3    H136601   2.505   4.208  13.431  0.5050 -0.0405 -0.9773
 5062TIP3    H236602   2.398   4.286  13.356 -1.2025  0.0034  1.4524
 5063TIP3   OH236603   0.871   3.858  13.906 -0.0682  0.0228  0.4811
 5063TIP3    H136604   0.883   3.772  13.865 -0.6669  0.0809  0.1783
 5063TIP3    H236605   0.957   3.879  13.942  0.4539 -0.0618 -0.6840
 5064TIP3   OH236606   0.990   6.370  16.142 -0.0211  0.3633 -0.3489
 5064TIP3    H136607   1.014   6.357  16.234 -0.6935 -0.8468 -0.3307
 5064TIP3    H236608   0.976   6.465  16.134 -0.0307  0.4697  0.8226
 5065TIP3   OH236609   2.941   3.159   3.945  0.4261 -0.1438 -0.2978
 5065TIP3    H136610   2.861   3.130   3.990  0.9690 -2.3458 -0.6873
 5065TIP3    H236611   2.909   3.217   3.875 -0.7448 -0.2035  0.1673
 5066TIP3   OH236612   5.666   1.538  14.314 -0.1309 -0.2091  0.0851
 5066TIP3    H136613   5.724   1.613  14.302 -0.8777  1.0161  3.5005
 5066TIP3    H236614   5.579   1.570  14.289  0.2879 -1.5488 -3.4099
 5067TIP3   OH236615   5.291   6.465  16.235  0.0895  0.2078 -0.0511
 5067TIP3    H136616   5.247   6.414  16.303  0.9149  0.7195  0.8870
 5067TIP3    H236617   5.266   6.556  16.254 -3.0303  0.0501 -2.9210
 5068TIP3   OH236618   6.437   3.644  13.918  0.7652 -0.4212 -0.1320
 5068TIP3    H136619   6.412   3.656  14.010  0.7670 -1.5436  0.0227
 5068TIP3    H236620   6.511   3.704  13.905 -0.3288  1.0336  0.1149
 5069TIP3   OH236621   4.547   3.566   0.689 -1.0693 -0.2138 -0.2167
 5069TIP3    H136622   4.593   3.649   0.694 -0.3551 -0.6852  1.2667
 5069TIP3    H236623   4.495   3.572   0.609 -1.1947  1.7368 -0.0087
 5070TIP3   OH236624   5.095   1.450   4.333 -0.1899  0.2948 -0.1397
 5070TIP3    H136625   5.004   1.473   4.314  0.6020  2.5435 -1.3805
 5070TIP3    H236626   5.140   1.534   4.342  1.8429 -0.7864  0.0870
 5071TIP3   OH236627   0.316   3.970   4.868 -0.1957 -0.4751 -0.5986
 5071TIP3    H136628   0.383   3.948   4.933  0.3115 -0.4636 -1.1236
 5071TIP3    H236629   0.341   3.921   4.790 -1.0855 -0.8752 -0.6378
 5072TIP3   OH236630   0.193   4.914  17.047 -0.5482  0.2229  0.1559
 5072TIP3    H136631   0.209   4.946  16.958  1.7948 -0.3338  0.3347
 5072TIP3    H236632   0.109   4.952  17.072 -1.2736  0.3329 -2.3223
 5073TIP3   OH236633   5.899   4.209  15.406 -0.0728 -0.3540  0.2935
 5073TIP3    H136634   5.895   4.297  15.369  2.4339 -0.3191  0.0580
 5073TIP3    H236635   5.992   4.193  15.421 -0.5621 -2.6657  1.0791
 5074TIP3   OH236636   3.681   5.559   5.757 -0.6819  0.3048  0.2635
 5074TIP3    H136637   3.696   5.491   5.822 -0.1490  1.2276  1.1034
 5074TIP3    H236638   3.594   5.539   5.721 -1.7944  0.8664  2.5573
 5075TIP3   OH236639   6.582   4.760   0.282  0.2435 -0.2191  0.4708
 5075TIP3    H136640   6.606   4.694   0.347  0.2190  0.0921  0.7961
 5075TIP3    H236641   6.654   4.823   0.285  0.1500 -0.1056  0.3304
 5076TIP3   OH236642   3.631   3.738   4.919  0.1042 -0.0834  0.4096
 5076TIP3    H136643   3.624   3.649   4.886  0.8038 -0.0510  0.1654
 5076TIP3    H236644   3.599   3.733   5.009  0.7197 -0.6989  0.5978
 5077TIP3   OH236645   5.575   5.614  13.092  0.2832  0.1391 -0.2191
 5077TIP3    H136646   5.543   5.622  13.002 -1.5269  0.4154  0.4360
 5077TIP3    H236647   5.669   5.602  13.082  0.2613  1.2443 -2.1206
 5078TIP3   OH236648   5.635   1.057  14.190 -0.7158 -0.3134 -0.2511
 5078TIP3    H136649   5.726   1.078  14.169 -0.3433 -2.2335 -0.6908
 5078TIP3    H236650   5.622   1.092  14.277  0.4547  0.0153 -0.1943
 5079TIP3   OH236651   5.790   5.387   3.240  0.1257 -0.2122  0.1202
 5079TIP3    H136652   5.848   5.369   3.166  3.0863 -1.7134  2.6691
 5079TIP3    H236653   5.785   5.482   3.244  0.8469 -0.1060 -1.3406
 5080TIP3   OH236654   2.330   5.505   2.408 -0.0090 -0.4955  0.1592
 5080TIP3    H136655   2.344   5.600   2.403  0.1653 -0.1769  4.2679
 5080TIP3    H236656   2.416   5.467   2.391  0.5149  0.2619  1.0199
 5081TIP3   OH236657   6.343   3.508   3.370  0.2954 -0.2159 -0.5401
 5081TIP3    H136658   6.291   3.465   3.303 -1.8011  0.7104  0.4491
 5081TIP3    H236659   6.338   3.601   3.349  0.2715  0.0134  0.4380
 5082TIP3   OH236660   2.526   4.967  14.060  0.9746  0.4675 -0.2778
 5082TIP3    H136661   2.567   5.037  14.011 -0.5142  0.1665 -1.9928
 5082TIP3    H236662   2.450   4.942  14.008 -1.6358  1.2767  2.9872
 5083TIP3   OH236663   0.813   0.002  10.645 -0.0075 -0.0520  0.1511
 5083TIP3    H136664   0.793  -0.089  10.625 -0.2391  0.4056 -1.8780
 5083TIP3    H236665   0.907   0.010  10.625  0.9047 -0.7341  3.9008
 5084TIP3   OH236666   0.389   2.266   1.430  0.4675  0.0709 -0.1004
 5084TIP3    H136667   0.400   2.253   1.335 -0.0546 -2.7826  0.1734
 5084TIP3    H236668   0.468   2.227   1.468 -0.4822 -1.0776  0.7407
 5085TIP3   OH236669   0.187   6.021  14.141  0.4680  0.2252  0.8187
 5085TIP3    H136670   0.163   6.056  14.055  1.6194  0.4358  0.5667
 5085TIP3    H236671   0.172   6.094  14.202  0.4260  0.3349  0.6779
 5086TIP3   OH236672   4.000   3.171   5.452 -0.2266 -0.8445 -0.3485
 5086TIP3    H136673   4.017   3.261   5.480 -3.7915 -0.0627 -0.3685
 5086TIP3    H236674   4.012   3.119   5.532 -0.1435 -0.0422  0.1686
 5087TIP3   OH236675   6.758   0.717   5.321 -0.8042 -0.0407 -0.0530
 5087TIP3    H136676   6.833   0.760   5.362 -2.2285  1.8606  0.6100
 5087TIP3    H236677   6.753   0.632   5.366  0.6044  0.0196  0.2609
 5088TIP3   OH236678   6.566   5.908   0.894  0.8429 -0.1789  0.2753
 5088TIP3    H136679   6.534   5.926   0.982 -0.8520  1.9696 -0.7608
 5088TIP3    H236680   6.508   5.840   0.860 -0.5118  1.2730 -0.3429
 5089TIP3   OH236681   3.887   4.551   1.264  0.0750 -0.9354 -0.1435
 5089TIP3    H136682   3.932   4.596   1.192  0.5454 -0.7742  0.2510
 5089TIP3    H236683   3.882   4.459   1.235  0.3839 -0.8980 -0.3164
 5090TIP3   OH236684   5.029   1.433  10.930  0.9546 -0.2251  0.8335
 5090TIP3    H136685   5.088   1.417  10.856 -1.6403 -1.6437 -0.9726
 5090TIP3    H236686   5.064   1.376  11.000  0.9785 -2.0678 -0.6293
 5091TIP3   OH236687   1.781   2.312   0.973 -0.8629  0.1015 -0.4343
 5091TIP3    H136688   1.861   2.267   0.998 -0.0760  2.4534  1.4415
 5091TIP3    H236689   1.711   2.258   1.009  0.0500  0.1530  1.4547
 5092TIP3   OH236690   4.309   1.954   1.485 -0.0135  0.7318 -0.4416
 5092TIP3    H136691   4.361   1.998   1.417  0.6295  2.2008  0.9679
 5092TIP3    H236692   4.285   1.870   1.446 -0.0425  1.7352 -2.6552
 5093TIP3   OH236693   6.592   0.278  13.277 -0.3471  0.0198 -0.0833
 5093TIP3    H136694   6.499   0.262  13.293 -0.5143  0.3420 -0.6991
 5093TIP3    H236695   6.629   0.192  13.257 -0.6527 -0.0163 -0.5010
 5094TIP3   OH236696   6.392   0.882   2.567 -0.1090  0.0858 -0.4001
 5094TIP3    H136697   6.473   0.870   2.518 -0.8869 -1.8156 -1.2733
 5094TIP3    H236698   6.420   0.912   2.654  1.5201 -0.6908 -0.6560
 5095TIP3   OH236699   6.774   3.985  11.078  0.6196 -0.6951  0.1396
 5095TIP3    H136700   6.741   3.897  11.060  0.9362 -0.9326  0.7094
 5095TIP3    H236701   6.788   4.024  10.992 -0.1327 -0.9698 -0.1080
 5096TIP3   OH236702   0.770   3.349   0.258 -0.3421 -0.3275 -0.0939
 5096TIP3    H136703   0.814   3.394   0.186 -1.3982 -1.1351 -1.2699
 5096TIP3    H236704   0.733   3.270   0.218 -4.4798  1.2370  0.3913
 5097TIP3   OH236705   0.164   3.694   1.248 -0.6315 -0.0725  0.6740
 5097TIP3    H136706   0.151   3.656   1.161  1.2824  0.3507  0.1955
 5097TIP3    H236707   0.090   3.754   1.259 -0.6014  0.2712 -0.8878
 5098TIP3   OH236708   0.170   4.603  16.325  0.1414  0.1499  0.1447
 5098TIP3    H136709   0.154   4.597  16.419 -0.3126  0.3576  0.0787
 5098TIP3    H236710   0.113   4.537  16.287  0.4433 -0.0443  0.0239
 5099TIP3   OH236711   4.520   4.572  16.173 -0.4411  0.0625  0.0746
 5099TIP3    H136712   4.425   4.583  16.185 -0.2928  0.3686  1.0300
 5099TIP3    H236713   4.555   4.568  16.262  0.5756  1.0290 -0.2738
 5100TIP3   OH236714   6.298   3.891  16.595  0.5255 -0.2185  0.0413
 5100TIP3    H136715   6.268   3.947  16.524  0.9851 -0.4605 -0.3494
 5100TIP3    H236716   6.261   3.930  16.674  0.5684  0.4376 -0.2664
 5101TIP3   OH236717   4.509   2.598  11.340  0.3631 -0.0555 -0.7582
 5101TIP3    H136718   4.456   2.673  11.311  0.3375 -0.4038 -1.6167
 5101TIP3    H236719   4.516   2.542  11.263 -0.5101 -1.4647  0.1599
 5102TIP3   OH236720   1.742   2.616   6.597 -0.0798 -0.2584 -0.1269
 5102TIP3    H136721   1.711   2.697   6.557 -0.1408  0.6475  1.7017
 5102TIP3    H236722   1.670   2.554   6.587 -0.9816  0.6549  0.5951
 5103TIP3   OH236723   2.942   5.829   1.175 -0.3643  0.1752  0.3779
 5103TIP3    H136724   2.941   5.815   1.270  2.4889 -1.3948  0.2255
 5103TIP3    H236725   2.959   5.922   1.165  1.1433  0.0510  1.4636
 5104TIP3   OH236726   6.046   2.090  13.473 -0.2339  0.0975 -0.3799
 5104TIP3    H136727   6.088   2.144  13.406  0.2526  0.3269  0.1026
 5104TIP3    H236728   6.117   2.063  13.530 -1.0562  2.6273  1.9374
 5105TIP3   OH236729   4.534   4.648   1.309  0.0801 -0.0541 -0.0671
 5105TIP3    H136730   4.498   4.656   1.221 -1.5493  1.2624  0.7063
 5105TIP3    H236731   4.619   4.605   1.296 -0.5285 -0.6728 -2.1756
 5106TIP3   OH236732   2.442   2.396  14.512 -0.1668  0.2619  0.0607
 5106TIP3    H136733   2.505   2.324  14.513  2.4403  2.4387  4.8946
 5106TIP3    H236734   2.481   2.462  14.454 -0.2920 -0.2408 -0.6071
 5107TIP3   OH236735   4.633   4.480  14.820  0.1775  0.1309  0.3673
 5107TIP3    H136736   4.645   4.544  14.891 -0.9013  0.0499  0.6327
 5107TIP3    H236737   4.608   4.533  14.744  2.1331  0.3025 -0.1976
 5108TIP3   OH236738   1.235   4.502  12.489  0.0844  0.1835  0.3775
 5108TIP3    H136739   1.233   4.489  12.584  1.7534 -1.6659  0.1808
 5108TIP3    H236740   1.262   4.594  12.478 -0.3784  0.4782  1.6943
 5109TIP3   OH236741   1.100   2.065  13.662 -0.1689 -0.2766 -0.3148
 5109TIP3    H136742   1.142   1.991  13.705  1.3282  0.2162 -0.9257
 5109TIP3    H236743   1.170   2.128  13.648 -0.8695  0.0500 -2.4594
 5110TIP3   OH236744   5.993   0.444   0.779  0.6407 -0.1161 -0.4219
 5110TIP3    H136745   5.917   0.503   0.783 -0.0584 -1.1142  1.3598
 5110TIP3    H236746   6.020   0.434   0.870  1.0117 -2.2213 -0.7496
 5111TIP3   OH236747   6.335   1.048  14.122  0.2868 -0.1355 -0.0769
 5111TIP3    H136748   6.342   1.140  14.094 -0.4664 -0.0533 -0.0199
 5111TIP3    H236749   6.302   1.053  14.212  3.0039 -0.3900  0.9786
 5112TIP3   OH236750   2.534   3.490   1.353  0.0463  0.5238 -0.7082
 5112TIP3    H136751   2.597   3.536   1.408  0.4943 -2.3861  1.3060
 5112TIP3    H236752   2.561   3.510   1.263  2.2536  1.4320  0.1427
 5113TIP3   OH236753   4.567   5.438   6.389 -0.0828 -0.8872  0.1518
 5113TIP3    H136754   4.584   5.348   6.420 -1.7276 -0.7917  1.4366
 5113TIP3    H236755   4.472   5.447   6.397 -0.1584  0.2736 -1.9621
 5114TIP3   OH236756   5.484   4.030  14.999 -0.3857 -0.0770  0.0466
 5114TIP3    H136757   5.514   3.986  15.079  0.7440  0.2555 -0.1907
 5114TIP3    H236758   5.398   3.991  14.981  0.0010 -1.2101  0.6015
 5115TIP3   OH236759   5.819   6.432  11.242  0.1446  0.0541 -0.4340
 5115TIP3    H136760   5.784   6.429  11.331  0.3324 -1.0334 -0.3891
 5115TIP3    H236761   5.766   6.369  11.193  0.8167 -0.2286 -0.8103
 5116TIP3   OH236762   2.914   6.452  11.698  0.3631  0.5499 -0.3081
 5116TIP3    H136763   3.006   6.459  11.721  0.3447 -0.7856  0.2648
 5116TIP3    H236764   2.872   6.421  11.778 -0.1688 -1.3182 -1.2697
 5117TIP3   OH236765   0.982   0.390   1.986 -0.7564  0.1551 -0.2483
 5117TIP3    H136766   1.024   0.307   2.006 -1.5675 -0.1822  0.0510
 5117TIP3    H236767   1.055   0.449   1.966 -0.2433 -0.9654 -1.7968
 5118TIP3   OH236768   5.316   3.159  15.680 -0.4739 -0.4274  0.5586
 5118TIP3    H136769   5.394   3.210  15.661 -1.0900  1.0102  1.7713
 5118TIP3    H236770   5.348   3.081  15.726  0.3443 -0.4420 -0.0356
 5119TIP3   OH236771   4.463   1.043  15.500  0.0866  0.1807  0.6086
 5119TIP3    H136772   4.448   1.125  15.453 -1.6800  0.0416  0.9241
 5119TIP3    H236773   4.398   0.982  15.465  1.1052 -0.9739  0.6887
 5120TIP3   OH236774   1.099   6.136  13.757  0.0294 -0.1978 -0.2563
 5120TIP3    H136775   1.161   6.129  13.830 -0.9776 -0.5508  0.5763
 5120TIP3    H236776   1.014   6.118  13.796 -0.8988  2.4484 -0.9553
 5121TIP3   OH236777   0.628   2.992  15.611 -0.3627 -0.5373  0.3548
 5121TIP3    H136778   0.612   3.070  15.663 -0.7117 -0.6365  0.3979
 5121TIP3    H236779   0.635   3.024  15.521  3.1608  0.0112  0.7507
 5122TIP3   OH236780   3.924   6.699   0.033  0.2030  0.3777  0.3856
 5122TIP3    H136781   3.885   6.724   0.117 -1.3632 -1.7286  0.3390
 5122TIP3    H236782   3.990   6.634   0.056  0.0415  0.0854  0.0214
 5123TIP3   OH236783   2.945   6.555   3.271 -0.1702  0.0083 -0.0449
 5123TIP3    H136784   2.979   6.638   3.304 -0.3760  0.7245 -1.6015
 5123TIP3    H236785   3.005   6.489   3.307  0.4174  0.8878  0.6170
 5124TIP3   OH236786   3.954   3.126   1.223  0.0098 -0.2859 -0.2185
 5124TIP3    H136787   4.025   3.176   1.262  0.1776 -0.4886 -0.2623
 5124TIP3    H236788   3.876   3.181   1.234  0.1062 -0.2235  0.1584
 5125TIP3   OH236789   0.036   0.221  12.694 -0.2831  0.2479  0.6130
 5125TIP3    H136790   0.049   0.192  12.604  0.7939 -0.9859  1.1578
 5125TIP3    H236791   0.065   0.312  12.694 -0.0582  0.1820 -0.2314
 5126TIP3   OH236792   5.396   0.714  13.232 -0.6679  0.2532 -0.3365
 5126TIP3    H136793   5.450   0.760  13.168 -0.6406 -0.3684 -0.7614
 5126TIP3    H236794   5.308   0.749  13.217 -0.6061  0.3384 -0.5059
 5127TIP3   OH236795   2.671   5.454   0.664  0.5188 -0.7032 -0.2710
 5127TIP3    H136796   2.593   5.501   0.634  0.9113  0.2164  0.1382
 5127TIP3    H236797   2.669   5.462   0.759  0.2797 -2.0221 -0.1509
 5128TIP3   OH236798   1.151   4.274  12.357  0.4579 -1.0226 -0.6177
 5128TIP3    H136799   1.193   4.346  12.404 -1.1189 -0.6297  0.2145
 5128TIP3    H236800   1.193   4.274  12.271  0.9241  0.4843 -0.4060
 5129TIP3   OH236801   3.739   4.675   1.619  0.1637  0.1288  0.0166
 5129TIP3    H136802   3.787   4.756   1.635  1.3963 -1.0289  2.3350
 5129TIP3    H236803   3.807   4.609   1.604 -0.7571 -1.0081  0.7875
 5130TIP3   OH236804   1.263   6.420  14.605  0.1669 -0.4105  0.2723
 5130TIP3    H136805   1.310   6.432  14.523  0.4949 -1.3377  0.3206
 5130TIP3    H236806   1.186   6.368  14.583  0.3537 -0.8207  0.5863
 5131TIP3   OH236807   0.919   4.027  16.912  0.8271  0.0092  0.5069
 5131TIP3    H136808   1.012   4.004  16.920  0.9288 -0.4493 -1.5945
 5131TIP3    H236809   0.892   3.986  16.830 -1.4477 -0.5045  1.4904
 5132TIP3   OH236810   4.654   1.461   0.369 -0.5730  0.3877  0.2024
 5132TIP3    H136811   4.660   1.526   0.299  1.1970  0.1915  0.1462
 5132TIP3    H236812   4.576   1.410   0.348 -0.1952  0.4734 -1.5181
 5133TIP3   OH236813   3.837   5.476  11.736 -0.4925 -0.1421  0.4778
 5133TIP3    H136814   3.856   5.474  11.642 -1.6737  0.4000  0.2157
 5133TIP3    H236815   3.764   5.414  11.746  0.3434 -1.0280  1.2135
 5134TIP3   OH236816   4.829   5.063  12.242 -0.8499  0.4000 -0.2094
 5134TIP3    H136817   4.763   5.106  12.296 -1.3733 -1.3980  0.5982
 5134TIP3    H236818   4.811   4.969  12.251  0.7184 -0.0357 -1.3771
 5135TIP3   OH236819   4.091   3.637  16.295 -0.0084 -0.1143  0.2997
 5135TIP3    H136820   4.071   3.684  16.376  0.7584 -3.0828  2.3243
 5135TIP3    H236821   4.168   3.682  16.260 -0.4761  1.3492  1.0989
 5136TIP3   OH236822   6.382   5.028  16.378  0.1145  0.3592 -0.7961
 5136TIP3    H136823   6.452   4.981  16.332 -0.2370 -1.4287  0.4073
 5136TIP3    H236824   6.307   4.969  16.373 -0.8188  1.5152 -0.6055
 5137TIP3   OH236825   1.529   0.294   3.106  0.2330  0.5001 -0.1454
 5137TIP3    H136826   1.605   0.335   3.148  0.9290 -0.2401 -0.6652
 5137TIP3    H236827   1.454   0.341   3.141  0.9112  0.9878  0.6732
 5138TIP3   OH236828   0.443   2.512  13.800  0.1031  0.0921  0.1569
 5138TIP3    H136829   0.429   2.576  13.730  0.2293  1.3657  1.2718
 5138TIP3    H236830   0.355   2.487  13.829  0.0420  1.6251  1.3652
 5139TIP3   OH236831   2.851   3.678  15.299  0.4616 -0.1920 -0.2473
 5139TIP3    H136832   2.929   3.681  15.354 -0.2922  0.7341  0.7862
 5139TIP3    H236833   2.795   3.749  15.332 -1.8068 -2.2633  0.5191
 5140TIP3   OH236834   0.302   2.783   0.813 -0.4204  0.1177 -0.1804
 5140TIP3    H136835   0.241   2.710   0.827  0.1639 -0.4621 -0.6174
 5140TIP3    H236836   0.287   2.842   0.887  0.1961 -1.2102  1.0227
 5141TIP3   OH236837   6.201   0.924  15.757 -0.3137 -0.3012  0.7164
 5141TIP3    H136838   6.293   0.903  15.775 -0.2935  1.2497  2.6595
 5141TIP3    H236839   6.152   0.879  15.827 -0.8137  0.6719  1.0126
 5142TIP3   OH236840   3.604   4.149  13.667  0.8178 -0.3475 -0.5615
 5142TIP3    H136841   3.657   4.074  13.694  1.6071  0.1460 -0.7371
 5142TIP3    H236842   3.566   4.182  13.749  0.8279 -0.6638 -0.4313
 5143TIP3   OH236843   4.050   2.735   6.540  0.0108 -0.1252  0.6329
 5143TIP3    H136844   3.993   2.662   6.560 -0.4808  0.8879  3.0771
 5143TIP3    H236845   4.125   2.696   6.494  0.1069 -2.2343  2.5530
 5144TIP3   OH236846   1.710   3.966   4.578 -0.1764 -0.2878  0.1707
 5144TIP3    H136847   1.780   3.959   4.642  1.7657  1.9594 -1.6044
 5144TIP3    H236848   1.726   3.894   4.516  0.3799  0.0226 -0.0481
 5145TIP3   OH236849   0.598   2.019   1.714 -0.0837  0.7114 -0.0801
 5145TIP3    H136850   0.684   1.993   1.747 -0.2473 -1.7582 -1.4666
 5145TIP3    H236851   0.556   1.936   1.688 -1.3069  2.2049 -3.1460
 5146TIP3   OH236852   0.711   6.077   3.436 -0.4613  0.5909  0.0642
 5146TIP3    H136853   0.750   6.084   3.524 -2.1910  2.8133  0.7076
 5146TIP3    H236854   0.618   6.063   3.452 -0.4659 -1.2722 -1.4540
 5147TIP3   OH236855   0.937   3.317  13.417  0.0255  0.1504 -0.1011
 5147TIP3    H136856   0.997   3.258  13.371 -0.1595 -0.3105  0.2496
 5147TIP3    H236857   0.989   3.350  13.491  0.3958  1.0638 -0.7628
 5148TIP3   OH236858   3.222   5.911   0.492 -0.6069 -1.0311 -0.0327
 5148TIP3    H136859   3.227   5.844   0.560 -1.0624  0.5634  1.6042
 5148TIP3    H236860   3.140   5.892   0.446 -1.4555 -0.7522  1.3416
 5149TIP3   OH236861   3.502   3.493  16.073 -0.1802  0.1298  0.2688
 5149TIP3    H136862   3.542   3.405  16.070 -0.2536  0.1285 -4.3945
 5149TIP3    H236863   3.412   3.479  16.044 -0.2628  1.7177 -0.2626
 5150TIP3   OH236864   6.352   4.394   5.431  0.8928  0.1536  0.6212
 5150TIP3    H136865   6.351   4.401   5.526 -1.0963  1.4283  0.5430
 5150TIP3    H236866   6.366   4.483   5.400 -0.3422  0.0476 -0.2781
 5151TIP3   OH236867   0.012   5.797  14.177  0.5901 -0.0645  0.4171
 5151TIP3    H136868   0.084   5.858  14.161 -1.0067  1.6159 -0.6237
 5151TIP3    H236869  -0.065   5.853  14.187 -0.6068 -1.8266  1.4336
 5152TIP3   OH236870   0.866   5.790   3.696 -0.2695 -0.0139 -0.4862
 5152TIP3    H136871   0.919   5.867   3.676  0.1845  0.0311  0.8431
 5152TIP3    H236872   0.895   5.762   3.782 -0.3431 -1.7570 -0.9968
 5153TIP3   OH236873   3.503   3.822  15.883 -0.1768  0.5081  0.0123
 5153TIP3    H136874   3.527   3.914  15.873 -0.9603  0.8454  1.1699
 5153TIP3    H236875   3.583   3.780  15.914  0.4516  0.6195 -1.4230
 5154TIP3   OH236876   0.861   1.113  13.771 -0.1341  0.1158 -0.1486
 5154TIP3    H136877   0.890   1.063  13.695 -1.4898 -0.2079 -0.4585
 5154TIP3    H236878   0.875   1.054  13.845  0.6773  0.2294 -0.2080
 5155TIP3   OH236879   2.498   1.500   1.541  0.4264  0.3113  0.7229
 5155TIP3    H136880   2.484   1.426   1.601  0.5312 -0.1021  0.2393
 5155TIP3    H236881   2.586   1.486   1.507  0.3993  0.5984  0.5407
 5156TIP3   OH236882   5.653   6.064  11.358  0.3971 -0.2779  0.3618
 5156TIP3    H136883   5.585   6.024  11.413  0.4251  1.6154  1.8159
 5156TIP3    H236884   5.605   6.124  11.301  0.6824 -0.0346  0.3783
 5157TIP3   OH236885   3.020   6.286   2.141 -0.2087  0.4401 -0.0399
 5157TIP3    H136886   3.071   6.316   2.216  0.0071  0.2792 -0.1223
 5157TIP3    H236887   2.929   6.291   2.171 -0.1053  0.0808  0.3401
 5158TIP3   OH236888   1.150   2.934  12.699  0.3508  0.3459 -0.3566
 5158TIP3    H136889   1.059   2.915  12.677  0.8715 -2.2040 -0.4074
 5158TIP3    H236890   1.173   3.008  12.643 -2.2880  2.4126  1.1501
 5159TIP3   OH236891   1.970   5.878   3.033 -0.4925 -0.3618 -0.3317
 5159TIP3    H136892   1.897   5.817   3.018 -0.2913 -1.0029  1.1910
 5159TIP3    H236893   1.973   5.931   2.954  0.0855 -3.1290 -2.2375
 5160TIP3   OH236894   1.809   1.122   4.259 -0.1917 -0.0504 -0.0005
 5160TIP3    H136895   1.827   1.043   4.310  2.0926  1.0007  0.8802
 5160TIP3    H236896   1.757   1.091   4.185 -0.4788 -2.1611  1.0447
 5161TIP3   OH236897   6.392   2.541  14.630  0.3544 -0.2452 -0.0583
 5161TIP3    H136898   6.482   2.575  14.634  0.6141 -0.9026 -0.2808
 5161TIP3    H236899   6.402   2.446  14.632 -0.4163 -0.3143  1.3410
 5162TIP3   OH236900   1.402   4.646   0.717  0.3236  0.2165  0.4833
 5162TIP3    H136901   1.483   4.595   0.725  1.2847  1.4219 -1.0090
 5162TIP3    H236902   1.334   4.591   0.756  1.5889 -1.5112  0.3189
 5163TIP3   OH236903   3.006   3.201   4.395 -0.2750 -0.2619  0.1037
 5163TIP3    H136904   3.025   3.263   4.464  1.3733 -1.6293  0.9282
 5163TIP3    H236905   3.084   3.202   4.339 -0.5370 -1.0127 -0.2949
 5164TIP3   OH236906   1.532   3.018  11.567  1.0229 -0.8493  0.5615
 5164TIP3    H136907   1.557   3.061  11.485  0.6145  0.7260  1.2396
 5164TIP3    H236908   1.552   2.926  11.553 -1.8582 -1.0939 -2.3968
 5165TIP3   OH236909   5.364   1.915  11.622  0.0394  0.0963 -0.0471
 5165TIP3    H136910   5.287   1.970  11.640  1.0966  1.3926  0.6286
 5165TIP3    H236911   5.359   1.896  11.529 -1.2131 -0.0058  0.0315
 5166TIP3   OH236912   4.805   3.783  13.931  0.4906  0.0540  0.2712
 5166TIP3    H136913   4.772   3.787  14.021 -0.3736  0.6460 -0.0684
 5166TIP3    H236914   4.886   3.732  13.938  0.7080  0.5421  1.4646
 5167TIP3   OH236915   4.682   3.945   5.046 -0.1162 -0.2421  0.5209
 5167TIP3    H136916   4.760   3.978   5.092 -0.6458 -1.0922  2.0808
 5167TIP3    H236917   4.626   4.021   5.034  1.1650  0.4709 -1.0588
 5168TIP3   OH236918   1.930   0.911   3.571  0.5957 -0.7189  0.1350
 5168TIP3    H136919   2.010   0.861   3.557  1.1497  0.3081 -0.5313
 5168TIP3    H236920   1.957   0.987   3.622  0.0952 -0.2674 -0.2509
 5169TIP3   OH236921   0.616   2.944  13.130  0.3596 -0.2374  0.0100
 5169TIP3    H136922   0.549   3.013  13.123  0.4621 -0.1300  0.0767
 5169TIP3    H236923   0.698   2.992  13.141  0.4375 -0.3706  0.0093
 5170TIP3   OH236924   0.224   0.292   2.337  0.6561 -0.0691  0.0964
 5170TIP3    H136925   0.243   0.351   2.410 -2.8517  0.5806  0.5879
 5170TIP3    H236926   0.164   0.228   2.374 -1.1134  0.2321 -2.1927
 5171TIP3   OH236927   4.685   1.293   4.167  0.8305 -0.4437  0.3813
 5171TIP3    H136928   4.608   1.315   4.115  0.4635  0.0746  1.1244
 5171TIP3    H236929   4.756   1.285   4.104  0.2564 -0.4968 -0.2639
 5172TIP3   OH236930   5.272   0.908   2.866  0.0178  0.1766  0.6017
 5172TIP3    H136931   5.261   0.830   2.812  0.6041  0.4105  0.1382
 5172TIP3    H236932   5.191   0.957   2.854 -0.3329 -0.3323  0.8536
 5173TIP3   OH236933   5.170   0.044  17.205 -0.2326 -0.2842  0.1206
 5173TIP3    H136934   5.227  -0.032  17.217 -1.6563 -1.3185  0.5823
 5173TIP3    H236935   5.173   0.062  17.111  2.1759  0.7574  0.3821
 5174TIP3   OH236936   0.674   3.522  13.999  0.2946  0.1248 -0.3075
 5174TIP3    H136937   0.632   3.557  14.078  0.4911 -1.9108  0.7434
 5174TIP3    H236938   0.603   3.483  13.949  0.2325  1.0455 -0.9439
 5175TIP3   OH236939   3.063   2.120  12.978  0.5068  0.0280 -0.1372
 5175TIP3    H136940   3.004   2.060  12.933  1.7722 -0.8025 -0.7211
 5175TIP3    H236941   3.051   2.204  12.933 -0.9753  0.1464  0.4297
 5176TIP3   OH236942   1.798   3.593  14.030 -0.2965 -0.1413 -0.5574
 5176TIP3    H136943   1.838   3.664  13.979 -0.2875 -0.5307 -1.1067
 5176TIP3    H236944   1.865   3.525  14.032 -0.4957 -0.3349 -0.4765
 5177TIP3   OH236945   2.290   1.961  16.070 -0.2860 -0.2771  0.2839
 5177TIP3    H136946   2.247   1.941  15.987 -0.5247 -2.3519  0.8775
 5177TIP3    H236947   2.360   1.896  16.077  0.3451  0.4942  1.2590
 5178TIP3   OH236948   5.081   3.898  10.606 -0.0738 -0.2740 -0.2272
 5178TIP3    H136949   5.040   3.862  10.684  0.7830  0.7005  0.6712
 5178TIP3    H236950   5.175   3.886  10.620  0.0881 -0.1417 -1.1376
 5179TIP3   OH236951   5.683   5.637  15.030 -0.6560  0.0483 -0.5756
 5179TIP3    H136952   5.736   5.610  15.104  0.3156 -0.2074 -1.3473
 5179TIP3    H236953   5.687   5.733  15.031  0.2197  0.0178 -0.9077
 5180TIP3   OH236954   5.165   6.151   4.896  0.4650  0.4187 -0.0212
 5180TIP3    H136955   5.089   6.152   4.837 -0.0305 -1.5849  0.5699
 5180TIP3    H236956   5.226   6.090   4.856  0.2758 -0.6811  1.3349
 5181TIP3   OH236957   2.857   0.416  15.677  0.1563  0.3207 -0.4944
 5181TIP3    H136958   2.813   0.439  15.595 -0.4649 -0.7178 -0.4499
 5181TIP3    H236959   2.865   0.499  15.724 -3.3054  0.2676  0.2742
 5182TIP3   OH236960   2.271   1.563   3.005  0.4614 -0.3381  0.5101
 5182TIP3    H136961   2.332   1.539   3.075  2.7318  1.1763 -0.8810
 5182TIP3    H236962   2.316   1.537   2.925 -0.1765  1.9230 -0.6198
 5183TIP3   OH236963   1.730   3.102  12.234  0.1301 -0.1420 -0.3403
 5183TIP3    H136964   1.715   3.180  12.287  0.4554  0.2682 -0.8466
 5183TIP3    H236965   1.643   3.066  12.219 -0.2431  1.2866 -1.8422
 5184TIP3   OH236966   0.652   6.156  11.800 -0.7010  0.0823 -0.2829
 5184TIP3    H136967   0.557   6.155  11.789 -0.5523 -0.3670 -1.6475
 5184TIP3    H236968   0.674   6.249  11.806 -1.1062  0.2452 -1.2039
 5185TIP3   OH236969   6.485   3.259  14.063 -0.3635  0.6320  0.0497
 5185TIP3    H136970   6.397   3.256  14.099 -0.4799  1.4272 -0.1535
 5185TIP3    H236971   6.478   3.319  13.989 -0.0603 -0.7016 -1.0867
 5186TIP3   OH236972   5.333   2.611   4.228  0.2899 -0.0399  0.0608
 5186TIP3    H136973   5.341   2.667   4.150 -1.2149 -1.6629 -1.3193
 5186TIP3    H236974   5.423   2.592   4.253  0.8052  1.5318 -0.5336
 5187TIP3   OH236975   5.383   0.300   5.640 -0.4106 -0.1343  0.0673
 5187TIP3    H136976   5.353   0.389   5.624  1.4690  0.1343 -2.1176
 5187TIP3    H236977   5.343   0.248   5.569 -0.2173 -0.7665  0.4134
 5188TIP3   OH236978   5.012   6.098   3.917  0.2037 -0.1922 -0.4866
 5188TIP3    H136979   4.963   6.086   3.836  1.0333  0.6867 -1.1374
 5188TIP3    H236980   5.096   6.134   3.889 -0.2302  2.0272  0.8960
 5189TIP3   OH236981   3.297   6.468   5.600 -0.4350 -0.3608  0.4239
 5189TIP3    H136982   3.349   6.421   5.665  0.1032  1.4650  1.3511
 5189TIP3    H236983   3.224   6.504   5.649 -0.7488 -0.0812 -0.2376
 5190TIP3   OH236984   5.213   0.813  12.332 -0.0307 -0.0874  0.5677
 5190TIP3    H136985   5.172   0.824  12.247 -0.0436 -1.2494  0.4198
 5190TIP3    H236986   5.307   0.824  12.315 -0.1418  0.9123  0.6168
 5191TIP3   OH236987   0.335   6.387  16.817 -0.1163  0.3754  0.1728
 5191TIP3    H136988   0.246   6.419  16.831 -0.0483  0.7356 -0.2222
 5191TIP3    H236989   0.374   6.449  16.756  0.0317 -0.4354 -0.5598
 5192TIP3   OH236990   1.687   4.819   4.555 -0.1027  0.0300  0.2955
 5192TIP3    H136991   1.669   4.765   4.477 -0.4329 -0.2379  0.5551
 5192TIP3    H236992   1.779   4.841   4.548 -0.3209  0.6988 -0.6108
 5193TIP3   OH236993   6.516   4.149  16.743 -0.7871 -0.4349  0.2422
 5193TIP3    H136994   6.605   4.118  16.756 -0.5239 -0.8202 -2.2326
 5193TIP3    H236995   6.509   4.226  16.799  1.6580  0.6344 -0.8633
 5194TIP3   OH236996   1.587   6.060   3.762  0.4662  0.0731  0.4811
 5194TIP3    H136997   1.644   6.134   3.739  0.6347 -0.1995  0.0098
 5194TIP3    H236998   1.600   5.997   3.691  1.4135 -1.0230  1.6059
 5195TIP3   OH236999   3.281   3.507   3.065 -1.0553 -0.0925 -0.5067
 5195TIP3    H137000   3.201   3.461   3.090  0.2736 -2.4951 -0.5598
 5195TIP3    H237001   3.313   3.546   3.146 -0.6212 -1.7799  0.1459
 5196TIP3   OH237002   0.947   0.802   4.135  0.3933 -0.0722 -0.7342
 5196TIP3    H137003   0.891   0.841   4.068 -1.6449 -0.6878  0.5553
 5196TIP3    H237004   0.985   0.876   4.181 -0.7790  0.3748 -0.4795
 5197TIP3   OH237005   2.613   6.206  11.256  0.0214  0.1015 -0.4564
 5197TIP3    H137006   2.534   6.156  11.234  0.5298  0.0266 -2.2589
 5197TIP3    H237007   2.620   6.272  11.186  0.9770  0.7861  0.2594
 5198TIP3   OH237008   3.887   2.474   2.023 -0.1868 -0.3398  0.1171
 5198TIP3    H137009   3.937   2.430   2.092 -0.6020 -0.1095  0.5617
 5198TIP3    H237010   3.848   2.550   2.066 -0.3256 -0.1124 -0.4068
 5199TIP3   OH237011   2.078   6.357   2.095  0.0114 -0.1527  0.3040
 5199TIP3    H137012   2.142   6.428   2.086 -0.0103 -0.0889  0.6662
 5199TIP3    H237013   2.122   6.280   2.057 -0.0297  0.0916 -0.2438
 5200TIP3   OH237014   4.563   2.702  13.653 -0.6237 -0.3682  0.5350
 5200TIP3    H137015   4.552   2.724  13.746 -0.0711  0.1099  0.4904
 5200TIP3    H237016   4.651   2.733  13.632  0.0624 -2.3216  0.3838
 5201TIP3   OH237017   1.660   3.048  15.769 -0.1694 -0.5549  0.3369
 5201TIP3    H137018   1.622   3.136  15.765  0.6949 -0.1904 -0.0992
 5201TIP3    H237019   1.585   2.990  15.782 -0.7922  0.2065  0.2128
 5202TIP3   OH237020   5.234   0.812   1.026  0.4158  0.0686 -0.8332
 5202TIP3    H137021   5.277   0.741   0.978  0.5398 -0.5025  0.0994
 5202TIP3    H237022   5.149   0.776   1.050 -0.5841  1.1733 -2.6234
 5203TIP3   OH237023   6.178   1.882  13.018 -0.4482 -0.4754  0.2505
 5203TIP3    H137024   6.242   1.836  12.963 -1.1241  0.0260 -0.9639
 5203TIP3    H237025   6.219   1.966  13.038 -1.4679  0.6502 -2.1223
 5204TIP3   OH237026   3.272   0.514  12.528 -0.2649  0.2208  0.1606
 5204TIP3    H137027   3.260   0.575  12.600  1.2065 -1.4650  1.8982
 5204TIP3    H237028   3.240   0.430  12.562 -1.7107 -0.1124 -1.9587
 5205TIP3   OH237029   5.101   2.081   4.349  0.0190  0.6232 -0.9926
 5205TIP3    H137030   5.194   2.099   4.338  0.3010  1.4154  2.3843
 5205TIP3    H237031   5.097   2.009   4.411 -1.6088 -0.8589 -2.7439
 5206TIP3   OH237032   1.854   1.800   4.126  0.0147 -0.1536 -0.4307
 5206TIP3    H137033   1.940   1.775   4.094  0.5512 -2.2237  2.4489
 5206TIP3    H237034   1.871   1.860   4.199 -1.0644  0.9436 -1.0441
 5207TIP3   OH237035   2.616   3.396   2.263 -0.2096  0.0303  0.4663
 5207TIP3    H137036   2.625   3.303   2.284  0.7222  0.2736  1.1948
 5207TIP3    H237037   2.707   3.427   2.254 -0.5280  0.7075 -0.4771
 5208TIP3   OH237038   0.893   0.609  14.895 -0.2220  0.3283  0.3451
 5208TIP3    H137039   0.946   0.596  14.817 -0.2331 -1.4984  0.6214
 5208TIP3    H237040   0.922   0.693  14.930 -0.0022  1.0155 -1.4390
 5209TIP3   OH237041   3.626   6.285   0.453 -0.2497  0.1015 -0.5490
 5209TIP3    H137042   3.644   6.232   0.376 -1.1591 -0.1930 -0.5693
 5209TIP3    H237043   3.576   6.228   0.511 -0.2498  0.5666 -0.0838
 5210TIP3   OH237044   4.496   0.734   4.321 -0.2441 -0.1012  0.1798
 5210TIP3    H137045   4.592   0.733   4.317 -0.2809 -1.8841 -0.8417
 5210TIP3    H237046   4.474   0.826   4.334  1.6041  0.3529  0.3069
 5211TIP3   OH237047   3.632   1.502  12.132  0.4214  0.3205  0.1610
 5211TIP3    H137048   3.619   1.560  12.058  0.6481  0.2031  0.0265
 5211TIP3    H237049   3.727   1.491  12.138  0.4165  0.4942  0.5963
 5212TIP3   OH237050   4.670   2.063   1.066 -0.1162  0.1807  0.1974
 5212TIP3    H137051   4.718   1.980   1.070 -1.6093 -0.7268 -0.1707
 5212TIP3    H237052   4.650   2.074   0.974  1.5252  1.8302  0.0127
 5213TIP3   OH237053   4.744   5.111  12.524 -0.0282 -0.5566 -0.0760
 5213TIP3    H137054   4.834   5.144  12.532 -0.8598  1.9713 -0.5347
 5213TIP3    H237055   4.721   5.082  12.612  1.0980 -0.8547  0.1270
 5214TIP3   OH237056   4.745   3.582   2.313  0.0632  0.4559 -0.2315
 5214TIP3    H137057   4.680   3.641   2.276 -0.0659 -0.0359 -0.8045
 5214TIP3    H237058   4.802   3.560   2.240  0.1559 -0.0623 -0.0089
 5215TIP3   OH237059   6.064   6.315  12.616 -0.0296  0.7815 -0.3308
 5215TIP3    H137060   6.159   6.309  12.627 -0.0023 -0.0866 -1.0335
 5215TIP3    H237061   6.033   6.355  12.698  0.8769  0.5545  0.1277
 5216TIP3   OH237062   3.726   2.427   0.846  0.0440  0.0975 -0.5137
 5216TIP3    H137063   3.730   2.429   0.750 -1.2685  0.9972 -0.5652
 5216TIP3    H237064   3.723   2.519   0.872 -0.0664 -0.1476  0.3724
 5217TIP3   OH237065   2.906   0.417   1.633  0.2059 -0.1452 -0.1662
 5217TIP3    H137066   2.871   0.335   1.598  0.5059 -0.2781 -0.1539
 5217TIP3    H237067   2.906   0.477   1.558 -1.0199  0.1683  0.0761
 5218TIP3   OH237068   1.580   2.604  16.714 -0.6544  0.0150  0.1094
 5218TIP3    H137069   1.575   2.520  16.760  1.1936  0.1789  0.6318
 5218TIP3    H237070   1.605   2.580  16.625 -0.0641  0.0157  0.2738
 5219TIP3   OH237071   0.257   4.807  10.822  0.0171  0.7054  0.1525
 5219TIP3    H137072   0.344   4.847  10.828  0.7153 -0.5337 -1.3197
 5219TIP3    H237073   0.271   4.727  10.771 -1.8246 -0.0199  0.7391
 5220TIP3   OH237074   2.308   1.599   1.987  0.5914  0.2510 -0.7221
 5220TIP3    H137075   2.259   1.530   2.032 -1.8757  0.6224 -2.7415
 5220TIP3    H237076   2.246   1.672   1.982  2.7738  2.2574  0.3496
 5221TIP3   OH237077   5.429   5.332   2.639 -0.0976 -0.3693 -0.2429
 5221TIP3    H137078   5.462   5.281   2.565 -1.0240  1.4485 -1.9452
 5221TIP3    H237079   5.477   5.414   2.635  1.5943 -1.1313  2.6591
 5222TIP3   OH237080   0.252   0.442  11.695  0.2564  0.4957 -0.1968
 5222TIP3    H137081   0.263   0.537  11.702 -0.2583  0.5004  0.7101
 5222TIP3    H237082   0.222   0.416  11.782  2.0776 -0.7405  0.0804
 5223TIP3   OH237083   2.120   1.774  14.719 -0.3100  0.1360  0.2213
 5223TIP3    H137084   2.196   1.766  14.662 -0.6077 -1.7313  0.0711
 5223TIP3    H237085   2.050   1.807  14.662 -0.3624 -0.8507 -0.2859
 5224TIP3   OH237086   2.556   5.747  13.661 -0.1356  0.5820  0.3270
 5224TIP3    H137087   2.543   5.714  13.750 -1.4038  2.7855  0.9885
 5224TIP3    H237088   2.483   5.807  13.646  1.0496  1.6295 -1.5460
 5225TIP3   OH237089   6.156   1.133   4.301  0.4514 -0.0956 -0.3749
 5225TIP3    H137090   6.168   1.048   4.259  0.7723  0.2289 -0.9534
 5225TIP3    H237091   6.116   1.187   4.233  1.3049  0.5389 -0.3768
 5226TIP3   OH237092   1.756   3.462  16.385  0.4715 -0.1046 -0.0829
 5226TIP3    H137093   1.721   3.508  16.309 -0.2611  1.5806  1.2443
 5226TIP3    H237094   1.844   3.496  16.396  0.8296 -0.8503 -0.5622
 5227TIP3   OH237095   3.645   5.046   2.756  0.0625  0.0745 -0.2205
 5227TIP3    H137096   3.675   4.956   2.750 -0.5294 -0.0932 -0.8484
 5227TIP3    H237097   3.573   5.044   2.820  0.0233  0.0924 -0.2636
 5228TIP3   OH237098   2.771   5.242  14.325 -0.0729  0.3110 -0.3922
 5228TIP3    H137099   2.814   5.197  14.398 -0.4361  2.0592  0.9457
 5228TIP3    H237100   2.836   5.243  14.255  1.0664  0.5297  0.6581
 5229TIP3   OH237101   3.188   5.698   4.540  0.1654  0.0750  0.0287
 5229TIP3    H137102   3.218   5.788   4.551 -0.3232  0.3052 -0.5025
 5229TIP3    H237103   3.095   5.701   4.558  0.1134 -0.2936 -0.1667
 5230TIP3   OH237104   0.735   5.008  13.805 -0.1222 -0.0050  0.0870
 5230TIP3    H137105   0.745   4.926  13.757  0.4613  0.3707 -0.4422
 5230TIP3    H237106   0.817   5.055  13.789 -0.5615  0.7982  0.1603
 5231TIP3   OH237107   2.763   3.384  14.697  0.2887  0.2338 -0.0048
 5231TIP3    H137108   2.768   3.306  14.751  2.0705  0.5175  0.2784
 5231TIP3    H237109   2.680   3.425  14.721 -0.2691 -1.1308  0.4302
 5232TIP3   OH237110   6.353   4.820  14.328  0.2162  0.3204  0.3512
 5232TIP3    H137111   6.346   4.887  14.397  1.4652  0.5156  0.2923
 5232TIP3    H237112   6.310   4.743  14.365 -2.1697  1.4592  0.0254
 5233TIP3   OH237113   0.446   5.548  12.341 -0.0332 -0.1258 -0.8403
 5233TIP3    H137114   0.393   5.474  12.369 -0.2789  0.1465 -0.5727
 5233TIP3    H237115   0.417   5.566  12.251 -0.4237  0.0469 -0.6806
 5234TIP3   OH237116   0.597   0.668   4.047 -0.0641 -0.8651  0.5004
 5234TIP3    H137117   0.653   0.618   3.988  1.7132  1.2590  0.3478
 5234TIP3    H237118   0.650   0.681   4.125 -0.8820 -0.0582  0.9376
 5235TIP3   OH237119   6.494   6.460   6.187 -1.0015  0.0210 -0.0730
 5235TIP3    H137120   6.422   6.420   6.236 -1.0055  0.5639  0.3857
 5235TIP3    H237121   6.456   6.485   6.103 -0.7364 -1.8487 -0.7582
 5236TIP3   OH237122   1.253   1.169  13.437  0.2738 -0.6496  0.1036
 5236TIP3    H137123   1.238   1.264  13.437  0.3937 -0.6314  0.7030
 5236TIP3    H237124   1.256   1.145  13.344 -1.4166 -0.3213 -0.0478
 5237TIP3   OH237125   5.232   6.719   6.346  0.1680 -0.2578 -0.2917
 5237TIP3    H137126   5.283   6.644   6.375 -0.9089 -1.0953 -0.5266
 5237TIP3    H237127   5.261   6.734   6.256  1.3926  0.5040  0.2103
 5238TIP3   OH237128   5.848   2.134   4.882  0.3030  0.1942 -0.3318
 5238TIP3    H137129   5.789   2.101   4.949  0.7052  0.8359  0.3509
 5238TIP3    H237130   5.880   2.056   4.837 -2.7396 -0.0648 -2.1928
 5239TIP3   OH237131   0.229   0.437   3.670  0.2261 -0.2620 -0.0785
 5239TIP3    H137132   0.184   0.482   3.599  0.5464  2.4971  1.4127
 5239TIP3    H237133   0.168   0.442   3.743  1.7277  0.9243  1.1151
 5240TIP3   OH237134   6.708   5.074  14.355  0.8610 -0.4353  0.0997
 5240TIP3    H137135   6.729   4.981  14.365 -0.5297 -0.7929 -0.1884
 5240TIP3    H237136   6.779   5.109  14.301  2.2046 -0.9909  1.4691
 5241TIP3   OH237137   5.593   3.237   5.480  0.3022 -0.7129 -0.0362
 5241TIP3    H137138   5.601   3.148   5.447 -1.0221 -0.8925  0.1391
 5241TIP3    H237139   5.560   3.228   5.569 -0.0971 -0.0303 -0.1150
 5242TIP3   OH237140   3.879   3.060  12.024  0.2758 -0.2667 -0.3881
 5242TIP3    H137141   3.939   3.128  12.055 -0.9076  0.2892  0.7763
 5242TIP3    H237142   3.862   3.082  11.933 -0.2970  1.1930  0.0385
 5243TIP3   OH237143   1.705   1.396   4.257  0.1190 -0.0896  0.5965
 5243TIP3    H137144   1.736   1.307   4.242  0.4778  0.0340  0.5804
 5243TIP3    H237145   1.650   1.416   4.181  0.2729 -0.1948  0.4580
 5244TIP3   OH237146   0.325   5.899  14.486  0.5485  0.5109 -0.0474
 5244TIP3    H137147   0.241   5.945  14.475 -0.8400 -2.0273 -0.3931
 5244TIP3    H237148   0.333   5.844  14.408  3.0125  1.3948 -0.4743
 5245TIP3   OH237149   5.411   2.230   0.655 -0.3472 -0.2484  0.4551
 5245TIP3    H137150   5.443   2.272   0.735  0.6220 -0.1150  0.0076
 5245TIP3    H237151   5.452   2.280   0.584 -1.8830  0.1819 -0.1464
 5246TIP3   OH237152   0.342   5.888   4.913 -0.0691  0.8497 -0.3191
 5246TIP3    H137153   0.270   5.940   4.949 -0.6833 -0.2013 -0.0344
 5246TIP3    H237154   0.392   5.860   4.989  0.9696  2.0129 -0.5393
 5247TIP3   OH237155   4.447   0.070   3.385 -0.3623 -0.1849 -0.2918
 5247TIP3    H137156   4.471   0.046   3.296 -0.7095 -0.8357 -0.2131
 5247TIP3    H237157   4.353   0.091   3.380 -0.0876  1.0768 -0.3418
 5248TIP3   OH237158   1.112   2.498  13.715  0.0468  0.4541 -0.0485
 5248TIP3    H137159   1.115   2.487  13.620 -1.8108  0.0062 -0.0722
 5248TIP3    H237160   1.192   2.457  13.746  0.2939 -0.0839 -1.3514
 5249TIP3   OH237161   4.297   1.323   2.355 -0.1726  0.0016 -0.2045
 5249TIP3    H137162   4.373   1.270   2.378 -0.5156 -0.1260  0.6744
 5249TIP3    H237163   4.304   1.336   2.261  0.3768 -0.8734 -0.2890
 5250TIP3   OH237164   6.119   4.322   1.434  0.4660  0.2641  0.0663
 5250TIP3    H137165   6.146   4.248   1.379 -2.7452  1.0384 -2.6958
 5250TIP3    H237166   6.066   4.282   1.503  0.1922 -0.1852 -0.3997
 5251TIP3   OH237167   4.612   4.046   4.607 -0.4707 -0.1029 -0.6596
 5251TIP3    H137168   4.662   3.983   4.555 -1.0792 -2.3243  1.3424
 5251TIP3    H237169   4.522   4.037   4.576 -0.4180  0.4070 -0.9605
 5252TIP3   OH237170   3.547   5.726  14.448  0.2481  0.0503 -0.1847
 5252TIP3    H137171   3.476   5.759  14.393  0.7893 -0.5494 -1.2675
 5252TIP3    H237172   3.554   5.789  14.520 -1.2629  0.2028 -0.1608
 5253TIP3   OH237173   4.012   6.679  12.679 -0.0995  0.2738  0.2550
 5253TIP3    H137174   4.056   6.721  12.605 -2.2484 -1.1978 -1.9214
 5253TIP3    H237175   3.941   6.740  12.701 -0.4236 -0.0371  0.0725
 5254TIP3   OH237176   0.137   2.014  15.866 -0.2467  0.6795  0.4949
 5254TIP3    H137177   0.050   2.046  15.842 -0.8711 -0.3170  1.3732
 5254TIP3    H237178   0.156   1.945  15.802 -0.6643  0.0169  1.0747
 5255TIP3   OH237179   1.928   5.777   0.026 -0.3574 -0.1625 -0.7299
 5255TIP3    H137180   2.016   5.811   0.043 -1.5457  2.9561 -0.4852
 5255TIP3    H237181   1.943   5.698  -0.026  2.5802  0.6578 -1.2497
 5256TIP3   OH237182   4.611   0.787  16.111 -0.8843 -0.6859  0.0624
 5256TIP3    H137183   4.544   0.797  16.043 -2.0268 -3.6382  0.6467
 5256TIP3    H237184   4.561   0.778  16.192  0.2339 -2.3031  0.6001
 5257TIP3   OH237185   3.124   1.554  16.173  0.4501 -0.1408  0.4878
 5257TIP3    H137186   3.170   1.569  16.255  2.4601  0.6570 -0.7465
 5257TIP3    H237187   3.159   1.620  16.113 -2.6433  0.7933 -0.3987
 5258TIP3   OH237188   5.834   2.334   1.852  0.3174 -0.4582 -0.4973
 5258TIP3    H137189   5.892   2.276   1.804  0.2559 -1.2766  0.3946
 5258TIP3    H237190   5.836   2.301   1.942  0.6844  1.2323  0.1402
 5259TIP3   OH237191   6.526   3.031  14.774 -0.0552  0.4895  0.2432
 5259TIP3    H137192   6.462   2.963  14.797  0.6295 -0.9289 -1.8675
 5259TIP3    H237193   6.486   3.077  14.700  1.0522  0.0591 -0.6292
 5260TIP3   OH237194   2.215   2.851  15.922 -0.2283 -0.4043 -0.1942
 5260TIP3    H137195   2.245   2.918  15.861  0.1256  1.1207  1.6322
 5260TIP3    H237196   2.129   2.881  15.950  0.6236  0.1946  1.8975
 5261TIP3   OH237197   3.393   4.148   5.963 -0.1534  0.4336  0.1406
 5261TIP3    H137198   3.451   4.134   5.888 -0.0665  0.3626  0.2208
 5261TIP3    H237199   3.390   4.243   5.974  0.7653  0.4004  0.7752
 5262TIP3   OH237200   3.288   3.670  15.847  0.4332  0.4419 -0.7607
 5262TIP3    H137201   3.288   3.666  15.752  0.8922  1.4694 -0.8073
 5262TIP3    H237202   3.356   3.733  15.869  0.3744  0.1665  0.2529
 5263TIP3   OH237203   6.713   4.903   2.733  0.1668  0.3676  0.4329
 5263TIP3    H137204   6.793   4.874   2.689 -0.1528 -1.4860  1.0278
 5263TIP3    H237205   6.727   4.996   2.749  0.6519  0.9056 -2.7980
 5264TIP3   OH237206   2.180   5.593  13.663 -0.3136 -0.7642 -0.4052
 5264TIP3    H137207   2.187   5.631  13.750  1.1390 -0.8767 -0.4700
 5264TIP3    H237208   2.086   5.585  13.648 -0.6044  0.8824  0.4425
 5265TIP3   OH237209   5.304   4.203  13.698  0.2776 -0.1942 -0.2981
 5265TIP3    H137210   5.381   4.225  13.646  1.8763 -0.9172  1.7250
 5265TIP3    H237211   5.274   4.119  13.663 -0.1727  0.5428 -1.7125
 5266TIP3   OH237212   6.489   1.375   5.300  0.0036  0.1458  0.6183
 5266TIP3    H137213   6.505   1.445   5.236  0.8594 -0.6860 -0.0935
 5266TIP3    H237214   6.399   1.348   5.284 -0.1620  0.7393  0.5475
 5267TIP3   OH237215   2.126   4.679  12.062  0.2675  0.1939  0.1950
 5267TIP3    H137216   2.145   4.587  12.045  2.5289  0.6507  0.0516
 5267TIP3    H237217   2.114   4.684  12.157  0.4106 -0.2214  0.2355
 5268TIP3   OH237218   5.406   6.513  15.065  0.0744 -0.0015  0.2681
 5268TIP3    H137219   5.334   6.565  15.030  0.5784  1.7527  1.7465
 5268TIP3    H237220   5.404   6.530  15.160  0.7575 -2.0476  0.6780
 5269TIP3   OH237221   4.551   0.704   4.788 -0.1102  0.7181  0.2550
 5269TIP3    H137222   4.608   0.660   4.725  1.1057  0.6159  1.4035
 5269TIP3    H237223   4.508   0.632   4.835  0.3009  0.7721  0.7168
 5270TIP3   OH237224   5.044   6.353   4.564 -0.1293  0.4007 -0.2235
 5270TIP3    H137225   4.992   6.331   4.641  1.1127  1.5834  0.9730
 5270TIP3    H237226   5.132   6.323   4.584  0.2886  1.0408 -1.0237
 5271TIP3   OH237227   6.673   3.764   1.914 -0.8430 -0.7694  0.9289
 5271TIP3    H137228   6.740   3.768   1.982 -0.1973 -0.3883  0.2934
 5271TIP3    H237229   6.603   3.821   1.945 -0.6968 -0.8558  1.4199
 5272TIP3   OH237230   4.949   1.692  15.172 -0.1340  0.4989  0.0856
 5272TIP3    H137231   4.911   1.747  15.242  0.3029  0.5911  0.2510
 5272TIP3    H237232   4.874   1.642  15.138  0.0815 -1.4114  2.3193
 5273TIP3   OH237233   1.601   1.549  16.127  0.4142 -0.6409  0.4101
 5273TIP3    H137234   1.667   1.484  16.105 -0.3241 -1.7292  1.3456
 5273TIP3    H237235   1.629   1.584  16.211 -0.9105 -2.1099  1.4955
 5274TIP3   OH237236   1.459   6.393   5.068 -0.2579  0.5043  0.4146
 5274TIP3    H137237   1.483   6.469   5.014  0.2285  0.4251  0.5103
 5274TIP3    H237238   1.501   6.319   5.025 -1.2166  0.2026 -0.0033
 5275TIP3   OH237239   1.622   0.933  12.559  0.4006 -0.2240  0.1226
 5275TIP3    H137240   1.708   0.894  12.543 -0.3565 -1.3412 -1.3171
 5275TIP3    H237241   1.624   1.015  12.511 -0.0729 -1.2361 -1.6549
 5276TIP3   OH237242   1.693   4.638   2.720 -0.3406  0.7326 -0.2982
 5276TIP3    H137243   1.702   4.712   2.660  1.6708 -0.2047 -1.1926
 5276TIP3    H237244   1.671   4.678   2.805 -2.0943  2.1389 -1.3772
 5277TIP3   OH237245   1.286   6.273  13.933  0.1519 -0.1805  0.5356
 5277TIP3    H137246   1.295   6.228  14.017 -0.7639 -2.5012 -0.5475
 5277TIP3    H237247   1.377   6.293  13.907  0.5313 -0.7867  1.3749
 5278TIP3   OH237248   0.610   0.572   1.294  0.6454  0.4068 -0.0075
 5278TIP3    H137249   0.614   0.633   1.367  1.6378 -0.9804  1.1190
 5278TIP3    H237250   0.598   0.486   1.334 -0.5735 -0.1788 -1.5605
 5279TIP3   OH237251   5.599   2.497   3.649  0.6182  0.0167 -0.3909
 5279TIP3    H137252   5.556   2.417   3.620  0.6172 -0.3201  0.5117
 5279TIP3    H237253   5.643   2.531   3.571  0.3835 -0.7136 -0.8427
 5280TIP3   OH237254   4.047   3.339  10.697 -0.0890  0.0468 -0.2710
 5280TIP3    H137255   4.115   3.406  10.702  1.8312 -1.8487 -0.2019
 5280TIP3    H237256   3.986   3.362  10.766  1.5672  0.6254  1.0455
 5281TIP3   OH237257   0.570   1.702   2.676  0.1825 -0.4635 -0.1156
 5281TIP3    H137258   0.506   1.653   2.727 -0.2027 -0.0156 -0.1599
 5281TIP3    H237259   0.533   1.706   2.588  1.0334 -1.5768 -0.5358
 5282TIP3   OH237260   0.361   1.335   6.003  0.3660 -0.3609 -0.0728
 5282TIP3    H137261   0.370   1.318   6.096  1.2314 -0.6536 -0.2071
 5282TIP3    H237262   0.357   1.430   5.996 -0.5681 -0.3700  0.3356
 5283TIP3   OH237263   2.635   4.891  14.308  0.4008 -0.6233 -0.2786
 5283TIP3    H137264   2.601   4.925  14.226  1.0379 -1.2811 -0.8233
 5283TIP3    H237265   2.730   4.889  14.296  0.4432 -1.5666  0.1389
 5284TIP3   OH237266   3.469   4.076  11.884 -0.3721  0.1097  0.3730
 5284TIP3    H137267   3.394   4.080  11.944 -0.9158  0.6824 -0.3413
 5284TIP3    H237268   3.492   4.168  11.869 -0.6130 -0.0076 -0.7553
 5285TIP3   OH237269   0.295   4.472   0.545  0.2642  0.7133  0.9008
 5285TIP3    H137270   0.296   4.494   0.638  0.0443  1.1675  0.7966
 5285TIP3    H237271   0.305   4.377   0.543 -0.9599  0.5705  1.4345
 5286TIP3   OH237272   1.019   1.139  14.166 -0.1288 -1.0940 -0.0080
 5286TIP3    H137273   1.114   1.137  14.178  0.1537 -0.5554 -1.8562
 5286TIP3    H237274   1.006   1.195  14.089 -2.1113  0.9511  1.7013
 5287TIP3   OH237275   1.941   5.301  13.554  0.3562  0.2978  0.1727
 5287TIP3    H137276   2.024   5.274  13.594  0.8048 -2.2975 -2.3919
 5287TIP3    H237277   1.880   5.231  13.575 -0.6657  1.2132  0.2923
 5288TIP3   OH237278   2.935   0.229   3.048 -0.6248  0.5270  0.1726
 5288TIP3    H137279   2.980   0.169   2.988  0.4692  0.6562  0.8551
 5288TIP3    H237280   2.842   0.220   3.025 -0.4304 -1.0733 -0.0436
 5289TIP3   OH237281   3.742   0.695  11.731 -0.4067 -0.4798 -0.2615
 5289TIP3    H137282   3.730   0.774  11.784  0.5815 -0.0174 -0.7333
 5289TIP3    H237283   3.684   0.707  11.656  2.8515  1.7437 -2.5206
 5290TIP3   OH237284   0.913   2.493  11.797  0.6551  0.5115  0.0998
 5290TIP3    H137285   0.824   2.522  11.812  0.3013  0.3601 -1.5596
 5290TIP3    H237286   0.960   2.515  11.877 -1.2252 -0.8847  1.6415
 5291TIP3   OH237287   3.237   2.502   5.758 -0.3154 -0.4858 -0.6554
 5291TIP3    H137288   3.292   2.443   5.810  0.1254 -1.5201 -2.2660
 5291TIP3    H237289   3.282   2.586   5.762 -0.2272 -0.5749  0.5250
 5292TIP3   OH237290   4.423   4.586  12.148  0.0959 -0.6676  0.3997
 5292TIP3    H137291   4.471   4.657  12.191  1.4425 -0.8062 -0.8690
 5292TIP3    H237292   4.333   4.619  12.141  0.5715  0.6585  0.3907
 5293TIP3   OH237293   2.433   5.862   5.057 -0.2757  0.2653 -0.0583
 5293TIP3    H137294   2.373   5.863   5.133 -1.1123 -0.1056 -0.7010
 5293TIP3    H237295   2.475   5.776   5.061 -1.8872 -0.6033 -1.2009
 5294TIP3   OH237296   0.389   1.267   1.654 -0.4817  0.1310  0.3846
 5294TIP3    H137297   0.367   1.350   1.696 -3.1137 -0.5864  0.4766
 5294TIP3    H237298   0.401   1.289   1.562  1.6300  1.0721  0.8622
 5295TIP3   OH237299   4.579   0.667   5.194 -0.7211 -0.0275 -0.2504
 5295TIP3    H137300   4.649   0.656   5.130 -0.9914 -2.5773 -0.1399
 5295TIP3    H237301   4.526   0.739   5.160 -1.1513 -1.6720 -3.1780
 5296TIP3   OH237302   5.174   0.931  12.561  0.0524 -0.3055  0.1799
 5296TIP3    H137303   5.172   0.866  12.491 -0.1486 -0.7138  0.5619
 5296TIP3    H237304   5.089   0.975  12.554  0.4677  0.3860 -0.5182
 5297TIP3   OH237305   3.798   0.714   1.688  0.6232 -0.0325  0.2201
 5297TIP3    H137306   3.706   0.689   1.698 -0.0349  2.1251 -0.1791
 5297TIP3    H237307   3.837   0.641   1.640 -1.2046 -0.3805 -0.8273
 5298TIP3   OH237308   3.449   4.945   4.184 -0.6784 -0.0596 -0.3418
 5298TIP3    H137309   3.418   4.946   4.275  0.2254 -0.3276 -0.0230
 5298TIP3    H237310   3.461   4.852   4.164 -0.4509  0.0211 -0.5888
 5299TIP3   OH237311   2.617   0.559  10.697 -0.7030 -0.0161 -0.4770
 5299TIP3    H137312   2.626   0.644  10.654 -0.1072  0.4077  0.4716
 5299TIP3    H237313   2.535   0.566  10.746  0.3318  0.7314  1.1836
 5300TIP3   OH237314   6.763   4.181   2.308  0.3632  0.0203  0.6025
 5300TIP3    H137315   6.668   4.170   2.303  0.2116 -0.3361  3.6250
 5300TIP3    H237316   6.777   4.275   2.298 -0.3922  0.1977  1.1534
 5301TIP3   OH237317   2.084   0.440   2.051 -0.3855 -0.0604 -0.6610
 5301TIP3    H137318   2.123   0.527   2.049 -1.0175  0.2123 -2.1143
 5301TIP3    H237319   2.118   0.400   2.130  1.2036  0.9152 -0.8341
 5302TIP3   OH237320   4.192   1.563   2.680 -0.4784  0.1717  0.3244
 5302TIP3    H137321   4.149   1.529   2.759 -1.1137 -0.6352 -0.3526
 5302TIP3    H237322   4.141   1.525   2.608  1.1759 -0.5305 -0.4963
 5303TIP3   OH237323   5.174   3.567  17.031  0.0749 -0.2542  0.1468
 5303TIP3    H137324   5.224   3.490  17.003  0.7193  0.5357 -0.8814
 5303TIP3    H237325   5.090   3.557  16.987  0.3837 -0.0375 -0.4900
 5304TIP3   OH237326   4.880   2.085   3.464  0.2564 -0.4596  0.3968
 5304TIP3    H137327   4.966   2.125   3.472 -0.3626  1.2512 -1.1985
 5304TIP3    H237328   4.897   2.001   3.421  0.9233  0.8438 -1.9641
 5305TIP3   OH237329   4.755   0.042   5.994  0.3309  0.5258 -0.4120
 5305TIP3    H137330   4.690  -0.027   5.985  1.8520 -1.0119  0.2673
 5305TIP3    H237331   4.705   0.118   6.025 -0.7797 -1.2758  2.4165
 5306TIP3   OH237332   3.343   0.211  15.214 -0.0499  0.1337  0.0079
 5306TIP3    H137333   3.372   0.233  15.125  1.0031  0.1067  0.3368
 5306TIP3    H237334   3.369   0.120  15.226 -2.3359 -0.6278 -0.5064
 5307TIP3   OH237335   0.026   5.369  17.072  0.3838 -0.2298 -0.3711
 5307TIP3    H137336   0.043   5.458  17.042  0.7348 -0.2526 -0.2371
 5307TIP3    H237337  -0.065   5.371  17.103  0.1435 -0.1155 -1.0882
 5308TIP3   OH237338   5.263   3.113   1.057 -0.0045  0.1085  0.0789
 5308TIP3    H137339   5.189   3.168   1.031 -0.9247 -1.2287 -0.2245
 5308TIP3    H237340   5.225   3.051   1.120  0.4852 -1.6254 -1.2979
 5309TIP3   OH237341   1.095   1.395  13.333 -0.2749  0.7885  0.3778
 5309TIP3    H137342   1.001   1.388  13.352 -0.6884 -0.5911 -2.0515
 5309TIP3    H237343   1.100   1.458  13.261  0.8640  2.3628  1.7956
 5310TIP3   OH237344   0.740   2.091  16.321  0.9571  0.2676  0.6360
 5310TIP3    H137345   0.734   1.997  16.333  0.2873  0.4117  1.4550
 5310TIP3    H237346   0.826   2.105  16.281 -0.6332 -1.0369 -3.4332
 5311TIP3   OH237347   0.190   5.633   5.604 -0.0530  0.2583 -0.1397
 5311TIP3    H137348   0.223   5.722   5.588 -0.1267  0.2981 -0.0704
 5311TIP3    H237349   0.169   5.632   5.697  0.3666  0.0278 -0.0476
 5312TIP3   OH237350   4.532   5.517   4.498  0.4708  0.8810  0.7831
 5312TIP3    H137351   4.547   5.504   4.404  1.5840  0.5774  0.9928
 5312TIP3    H237352   4.572   5.602   4.517 -1.0692  1.6311  0.6952
 5313TIP3   OH237353   5.363   5.876  12.836  0.1311  0.4018 -0.4257
 5313TIP3    H137354   5.321   5.873  12.749 -0.8971 -0.0878  0.0736
 5313TIP3    H237355   5.380   5.784  12.857 -0.6536  0.4323  0.3745
 5314TIP3   OH237356   6.617   0.290  11.863 -0.3850 -0.1334 -0.3289
 5314TIP3    H137357   6.600   0.382  11.883 -0.1207 -0.0510 -0.4770
 5314TIP3    H237358   6.542   0.243  11.899 -0.0147  0.0281  0.6806
 5315TIP3   OH237359   1.269   0.925  12.207  0.3312 -0.4746 -0.2227
 5315TIP3    H137360   1.357   0.888  12.216  0.3924 -0.6302 -1.4126
 5315TIP3    H237361   1.233   0.883  12.129 -0.9378 -0.6749  0.4516
 5316TIP3   OH237362   1.673   0.646  17.155 -0.2801  0.0244 -0.1476
 5316TIP3    H137363   1.656   0.737  17.180 -1.4843 -0.3773  0.5555
 5316TIP3    H237364   1.644   0.595  17.230 -0.8525 -1.0168 -1.0540
 5317TIP3   OH237365   3.097   3.286   2.794 -0.0482  0.2021  0.6377
 5317TIP3    H137366   3.039   3.299   2.719 -0.4792 -1.0803  0.7305
 5317TIP3    H237367   3.103   3.190   2.803 -1.3153  0.2982  3.2226
 5318TIP3   OH237368   5.136   2.249  15.385  0.6453 -0.1932  0.5154
 5318TIP3    H137369   5.165   2.334  15.351  1.8767 -0.5137  0.7460
 5318TIP3    H237370   5.041   2.251  15.375  0.9588 -0.2654 -2.9613
 5319TIP3   OH237371   4.581   5.531  14.123  0.0975  0.4328  0.4614
 5319TIP3    H137372   4.660   5.585  14.120  0.2822  0.2130  1.2327
 5319TIP3    H237373   4.515   5.587  14.164 -0.5082  1.0543 -1.3132
 5320TIP3   OH237374   6.370   2.190   3.261  1.2815 -0.4762  0.1469
 5320TIP3    H137375   6.328   2.129   3.200  3.5848 -0.8432 -1.1118
 5320TIP3    H237376   6.353   2.152   3.347 -0.1673 -1.0998 -0.3933
 5321TIP3   OH237377   6.051   4.203  16.197  0.1433  0.2756 -0.9076
 5321TIP3    H137378   6.024   4.285  16.238  0.3680  1.1842 -2.5516
 5321TIP3    H237379   5.969   4.164  16.166  0.2082  0.6897 -1.6039
 5322TIP3   OH237380   6.737   6.083  10.439  0.0368 -0.2869 -0.2182
 5322TIP3    H137381   6.786   6.163  10.420  3.2148 -1.2363  3.2895
 5322TIP3    H237382   6.735   6.036  10.355  1.1876  1.8548 -1.5077
 5323TIP3   OH237383   3.842   1.729   0.613 -0.2901  0.5996  0.6446
 5323TIP3    H137384   3.873   1.819   0.627 -1.9498  1.3708 -0.3896
 5323TIP3    H237385   3.753   1.740   0.579 -1.2415 -1.4950  2.3542
 5324TIP3   OH237386   0.235   4.198   3.913 -0.3918 -0.6788  0.1437
 5324TIP3    H137387   0.150   4.154   3.918 -0.2819 -0.9744 -0.5260
 5324TIP3    H237388   0.294   4.133   3.876 -0.0723 -0.1896 -0.2158
 5325TIP3   OH237389   4.828   4.801   2.606 -0.0758  0.2465  0.5552
 5325TIP3    H137390   4.879   4.875   2.639 -1.1969  0.8665  0.9220
 5325TIP3    H237391   4.884   4.725   2.621  1.3915  1.1011 -0.5005
 5326TIP3   OH237392   4.631   3.317  16.680 -0.3477  0.0706 -0.3161
 5326TIP3    H137393   4.558   3.255  16.668  0.0432 -0.7068  1.2013
 5326TIP3    H237394   4.612   3.388  16.620 -2.4247 -0.0810  0.1303
 5327TIP3   OH237395   2.289   0.944  13.368  0.3871 -0.1918 -0.1354
 5327TIP3    H137396   2.349   0.899  13.428  0.8984 -0.4035 -0.7904
 5327TIP3    H237397   2.327   1.031  13.357  0.3775 -0.2034 -0.2604
 5328TIP3   OH237398   2.103   2.582  11.872  0.1164 -0.1890 -0.2204
 5328TIP3    H137399   2.035   2.648  11.885  2.1495  1.8430  0.3253
 5328TIP3    H237400   2.101   2.564  11.778 -1.0368 -0.0090 -0.2424
 5329TIP3   OH237401   5.753   3.575   4.933  0.0331 -0.4848  0.2338
 5329TIP3    H137402   5.710   3.513   4.874  1.3518 -2.1864  1.0354
 5329TIP3    H237403   5.718   3.660   4.907 -2.3412 -1.6102 -0.4203
 5330TIP3   OH237404   0.407   0.141  14.843  0.1336  0.3735 -0.2140
 5330TIP3    H137405   0.349   0.135  14.918 -0.6837 -1.2017 -0.9604
 5330TIP3    H237406   0.473   0.074  14.858  1.7641  2.1029  0.5973
 5331TIP3   OH237407   3.433   5.252  12.930 -0.4724 -0.3531 -0.1443
 5331TIP3    H137408   3.484   5.206  12.864  1.2179  1.1764  0.0637
 5331TIP3    H237409   3.470   5.340  12.933 -2.5945  0.5505  0.6032
 5332TIP3   OH237410   1.037   4.208   3.531 -0.5376  0.0205 -0.3443
 5332TIP3    H137411   0.964   4.148   3.521 -1.1909  0.8094 -0.3588
 5332TIP3    H237412   0.998   4.288   3.566  0.0781  0.9601 -1.7615
 5333TIP3   OH237413   4.646   2.862   5.724 -0.1457 -0.1170 -0.0246
 5333TIP3    H137414   4.635   2.868   5.630 -0.5521 -0.4508  0.0020
 5333TIP3    H237415   4.570   2.908   5.760 -0.8778 -1.4405  0.1488
 5334TIP3   OH237416   0.824   1.479   2.347 -0.3993 -0.1784 -0.1962
 5334TIP3    H137417   0.873   1.422   2.406  0.9666 -0.7006 -1.7727
 5334TIP3    H237418   0.889   1.542   2.315 -1.7725  2.0030  1.1322
 5335TIP3   OH237419   3.871   4.141  16.911  0.3928  0.0188 -0.0102
 5335TIP3    H137420   3.803   4.073  16.913  0.7434 -0.3721 -1.1679
 5335TIP3    H237421   3.909   4.135  16.823  1.0653  1.0900  0.1963
 5336TIP3   OH237422   2.164   3.379   2.974  0.3528 -0.3480  0.3761
 5336TIP3    H137423   2.203   3.450   2.922  3.1235 -1.2986  1.0412
 5336TIP3    H237424   2.165   3.412   3.064  0.9413 -0.8983  0.5813
 5337TIP3   OH237425   4.440   1.679   5.197 -0.5778 -0.3286  0.3458
 5337TIP3    H137426   4.349   1.704   5.177 -0.5353 -0.7462 -0.4044
 5337TIP3    H237427   4.461   1.613   5.130 -0.2998 -1.4937  1.5549
 5338TIP3   OH237428   5.225   2.989   4.828  0.4786 -0.4486  0.3193
 5338TIP3    H137429   5.301   2.941   4.795  1.6786  1.1806  0.6346
 5338TIP3    H237430   5.153   2.963   4.770  1.0803 -2.5920  0.4791
 5339TIP3   OH237431   1.458   5.719  16.811  0.2844 -0.3490 -0.5090
 5339TIP3    H137432   1.371   5.735  16.775  0.6489  0.0184 -1.2443
 5339TIP3    H237433   1.471   5.624  16.803 -1.1151 -0.8231  2.0882
 5340TIP3   OH237434   3.862   6.506   1.956 -0.4639  0.1092 -0.1063
 5340TIP3    H137435   3.838   6.414   1.959 -1.1738  0.2568 -1.0299
 5340TIP3    H237436   3.955   6.507   1.980 -0.1271 -0.9802 -1.2623
 5341TIP3   OH237437   2.750   5.006   3.826 -0.7166  0.4324  0.5027
 5341TIP3    H137438   2.699   4.929   3.801 -0.2392  0.2082  0.2099
 5341TIP3    H237439   2.777   5.045   3.743  1.4030 -0.6722  0.6462
 5342TIP3   OH237440   1.604   5.379  13.322 -0.5761  0.7468  0.4100
 5342TIP3    H137441   1.631   5.311  13.260 -1.2692  1.5168 -0.7385
 5342TIP3    H237442   1.513   5.359  13.341 -1.2017  2.1750 -1.0251
 5343TIP3   OH237443   6.510   5.883   3.451 -0.0732  0.9847  0.1442
 5343TIP3    H137444   6.579   5.948   3.440 -0.4201  1.3747  0.2544
 5343TIP3    H237445   6.441   5.929   3.499 -0.8029  0.8790 -0.7877
 5344TIP3   OH237446   6.704   4.740   6.019 -0.5925 -0.4757 -0.4529
 5344TIP3    H137447   6.703   4.817   6.076  1.1883 -0.8758  0.1518
 5344TIP3    H237448   6.769   4.760   5.952  0.5243 -1.7955  0.2131
 5345TIP3   OH237449   4.504   0.404  12.278 -0.5955 -0.0420  0.1604
 5345TIP3    H137450   4.554   0.440  12.205 -0.5841  0.2568  0.3122
 5345TIP3    H237451   4.483   0.315  12.252  1.7415 -0.8501  0.9456
 5346TIP3   OH237452   0.732   2.236  14.481 -0.9252 -0.3628  0.2931
 5346TIP3    H137453   0.715   2.326  14.455  0.8910  0.0072  0.2998
 5346TIP3    H237454   0.769   2.243  14.569 -2.0637 -1.2206  0.8530
 5347TIP3   OH237455   6.504   2.708   4.767  0.1236 -0.0635  0.1706
 5347TIP3    H137456   6.516   2.627   4.816  0.1403 -0.7031 -0.8626
 5347TIP3    H237457   6.475   2.772   4.832 -0.7754 -1.1301  0.8472
 5348TIP3   OH237458   0.188   3.098  15.785  0.0041 -0.2744  0.5302
 5348TIP3    H137459   0.201   3.027  15.721  2.4387 -0.0723  0.7491
 5348TIP3    H237460   0.093   3.103  15.797 -0.3823 -1.3789 -1.8750
 5349TIP3   OH237461   3.641   2.134   4.783 -0.3994 -0.2734 -0.7887
 5349TIP3    H137462   3.644   2.220   4.826  2.4324 -0.8913  0.3903
 5349TIP3    H237463   3.554   2.100   4.802 -0.6187  1.2321  1.0094
 5350TIP3   OH237464   1.619   4.448  16.875  0.0476  0.1326 -0.5611
 5350TIP3    H137465   1.617   4.406  16.789 -1.0893  0.2768 -0.6119
 5350TIP3    H237466   1.674   4.526  16.862  2.7371 -1.6413 -0.3086
 5351TIP3   OH237467   3.711   4.903   0.726 -0.3312 -0.3809 -0.6751
 5351TIP3    H137468   3.746   4.819   0.698  1.2398  0.0159  0.0059
 5351TIP3    H237469   3.773   4.968   0.693 -0.7285  0.3967  0.0544
 5352TIP3   OH237470   1.273   1.987  14.921 -0.4004 -1.0791 -0.2778
 5352TIP3    H137471   1.344   1.934  14.885  0.1379 -1.3194  1.0944
 5352TIP3    H237472   1.289   1.988  15.016  1.1948  3.7917 -0.4579
 5353TIP3   OH237473   4.044   5.409  15.789  0.2198  0.7038 -0.5247
 5353TIP3    H137474   3.975   5.342  15.791  0.1322  0.8163  0.4151
 5353TIP3    H237475   4.070   5.413  15.697 -1.0072  0.6320 -0.8905
 5354TIP3   OH237476   2.314   1.654   5.350  0.5605  0.2062  0.6327
 5354TIP3    H137477   2.248   1.691   5.407  1.3791  1.2542  0.9145
 5354TIP3    H237478   2.278   1.663   5.262 -0.4403 -0.8689  0.9162
 5355TIP3   OH237479   4.249   5.371   4.538  0.3676 -0.2634 -0.4846
 5355TIP3    H137480   4.217   5.281   4.525  1.2943 -0.3841 -2.1428
 5355TIP3    H237481   4.343   5.361   4.551  0.5594  0.4986 -1.2530
 5356TIP3   OH237482   2.824   5.072   1.934  0.2315  0.1802  0.2162
 5356TIP3    H137483   2.802   5.165   1.926  0.5702  0.3646  1.2997
 5356TIP3    H237484   2.849   5.046   1.846  0.2828  1.1634 -0.0672
 5357TIP3   OH237485   1.306   2.834  13.966  0.1916 -0.4299  0.2065
 5357TIP3    H137486   1.389   2.879  13.955  0.2515 -0.7650 -0.7080
 5357TIP3    H237487   1.253   2.895  14.019  0.6988  0.1663  0.0318
 5358TIP3   OH237488   4.597   6.141  12.007 -0.2406 -0.2659 -0.3139
 5358TIP3    H137489   4.638   6.226  11.991  2.2726 -0.9992  1.7703
 5358TIP3    H237490   4.542   6.155  12.084 -0.7477 -0.2248 -0.6880
 5359TIP3   OH237491   0.472   2.221   1.171 -0.0205  0.1923  0.5760
 5359TIP3    H137492   0.470   2.131   1.139 -1.1753  0.3270  0.2666
 5359TIP3    H237493   0.547   2.260   1.127 -0.9745  0.0860 -1.2009
 5360TIP3   OH237494   1.110   1.645  12.755  0.1927 -0.7314 -0.0356
 5360TIP3    H137495   1.163   1.722  12.777 -2.8842  2.5912 -3.3999
 5360TIP3    H237496   1.170   1.587  12.708  2.0873  0.5730  0.7262
 5361TIP3   OH237497   3.725   2.027  14.572 -0.1245  0.1170 -0.0147
 5361TIP3    H137498   3.798   2.086  14.587  0.2606 -0.4580  0.3708
 5361TIP3    H237499   3.761   1.956  14.518  0.1919 -1.3857  2.1377
 5362TIP3   OH237500   5.570   0.868   2.481 -0.1116 -0.0351  0.2028
 5362TIP3    H137501   5.534   0.805   2.544  1.9530 -0.9820  0.4715
 5362TIP3    H237502   5.635   0.917   2.531  0.2764  0.4210 -0.7481
 5363TIP3   OH237503   0.081   1.238   4.952 -0.0168  0.1779  0.5631
 5363TIP3    H137504   0.027   1.188   5.012  1.5790 -1.4264  0.7207
 5363TIP3    H237505   0.161   1.186   4.943 -0.5733 -0.1302 -3.6997
 5364TIP3   OH237506   2.366   1.776   3.893  0.0556 -0.4252 -0.6247
 5364TIP3    H137507   2.423   1.805   3.963 -0.2488 -1.0721 -0.0983
 5364TIP3    H237508   2.394   1.826   3.816  0.1131  0.5874  0.0474
 5365TIP3   OH237509   0.813   2.835  12.338  0.8725 -0.6886  0.0033
 5365TIP3    H137510   0.863   2.753  12.333 -0.2972 -1.5446  1.7606
 5365TIP3    H237511   0.848   2.880  12.415  1.4610  0.4488 -0.9151
 5366TIP3   OH237512   1.358   0.274  11.831 -0.0570  0.3551 -0.7420
 5366TIP3    H137513   1.312   0.192  11.814  0.0455  0.1879 -0.2385
 5366TIP3    H237514   1.319   0.337  11.771 -2.7510  0.8560  1.4323
 5367TIP3   OH237515   2.191   2.687   4.045  0.2372  0.6210 -0.1866
 5367TIP3    H137516   2.144   2.678   4.128 -2.1323  0.0520 -1.5481
 5367TIP3    H237517   2.275   2.728   4.069 -0.3011  0.2314  2.4935
 5368TIP3   OH237518   3.969   5.882  12.496 -0.5872 -0.2872  0.4556
 5368TIP3    H137519   4.034   5.950  12.517 -0.4061  0.3156 -2.0085
 5368TIP3    H237520   4.019   5.800  12.499  0.2121  0.1369 -1.0293
 5369TIP3   OH237521   5.313   5.183  12.867 -0.0556  0.5335 -0.2153
 5369TIP3    H137522   5.321   5.275  12.842  2.3411  1.1846  2.6274
 5369TIP3    H237523   5.404   5.152  12.875 -0.7644 -1.1405  1.9509
 5370TIP3   OH237524   6.685   2.609  14.583  0.4270  0.5519 -0.4692
 5370TIP3    H137525   6.659   2.701  14.575 -4.6524 -0.6324  0.6076
 5370TIP3    H237526   6.703   2.598  14.676 -1.6331 -0.0748 -0.1048
 5371TIP3   OH237527   5.593   4.272  14.916 -1.0689 -0.5964  0.2831
 5371TIP3    H137528   5.659   4.283  14.847 -3.0146  0.6682 -1.4689
 5371TIP3    H237529   5.603   4.181  14.945  0.0069 -1.0611 -1.4709
 5372TIP3   OH237530   4.983   6.317   0.572 -0.0667 -0.5934 -0.0494
 5372TIP3    H137531   4.964   6.319   0.666 -1.7167 -2.5800 -0.2917
 5372TIP3    H237532   4.910   6.364   0.532 -0.2417 -1.2050 -0.4506
 5373TIP3   OH237533   5.367   5.151   3.541 -0.6892 -0.2387 -0.5020
 5373TIP3    H137534   5.419   5.163   3.462 -0.8332 -0.6724 -0.6644
 5373TIP3    H237535   5.393   5.065   3.574 -0.8086 -0.1654 -0.2117
 5374TIP3   OH237536   0.922   3.035   0.975  0.0144 -0.4048  0.0557
 5374TIP3    H137537   0.898   3.051   0.883  1.0789 -1.4908 -0.4140
 5374TIP3    H237538   0.941   3.123   1.009  0.7629 -0.1114 -1.0856
 5375TIP3   OH237539   3.539   0.622   1.037 -0.2045  0.1414  0.4590
 5375TIP3    H137540   3.616   0.603   1.090  0.1891 -0.9529 -0.4886
 5375TIP3    H237541   3.570   0.619   0.947 -1.5045 -1.0445  0.0333
 5376TIP3   OH237542   2.691   5.679  11.660 -0.4737 -0.1906 -0.0225
 5376TIP3    H137543   2.633   5.668  11.736  0.3779 -1.8842  0.3951
 5376TIP3    H237544   2.758   5.612  11.671 -0.1662 -0.2517 -2.1218
 5377TIP3   OH237545   0.709   4.492  14.146 -0.0590 -0.1186 -0.1750
 5377TIP3    H137546   0.756   4.576  14.147  0.1389 -0.2336  0.4188
 5377TIP3    H237547   0.648   4.500  14.073  1.1559 -0.1159 -1.2028
 5378TIP3   OH237548   5.596   1.968   0.703 -0.4434 -0.2078  0.5453
 5378TIP3    H137549   5.566   2.054   0.674 -0.4056  0.1001  1.4092
 5378TIP3    H237550   5.639   1.931   0.626 -0.4935  0.5295  0.1532
 5379TIP3   OH237551   5.167   3.464   3.744  0.1306  0.1340  0.3585
 5379TIP3    H137552   5.107   3.534   3.768 -0.3042  0.0491 -0.4739
 5379TIP3    H237553   5.112   3.397   3.704  0.5373 -0.7193  1.2123
 5380TIP3   OH237554   3.085   3.303  11.906 -0.7911 -0.0990  0.0555
 5380TIP3    H137555   3.020   3.370  11.887  0.1619  1.1148  1.0216
 5380TIP3    H237556   3.167   3.336  11.869 -0.6441 -1.4961 -0.9276
 5381TIP3   OH237557   4.960   6.690   3.052  0.1226 -0.4378  0.4807
 5381TIP3    H137558   4.895   6.652   3.111 -0.5467  1.2548  0.8753
 5381TIP3    H237559   4.954   6.784   3.068  2.5395 -0.2439  0.3743
 5382TIP3   OH237560   1.710   2.322  16.008  0.5494  0.3025  0.1168
 5382TIP3    H137561   1.645   2.378  15.966  1.1302  0.8109 -0.1143
 5382TIP3    H237562   1.781   2.382  16.032  0.6204 -0.1326  1.0020
 5383TIP3   OH237563   5.844   5.416  14.263 -0.4182 -0.0382 -0.3229
 5383TIP3    H137564   5.834   5.341  14.321  0.5581 -0.6907 -0.9773
 5383TIP3    H237565   5.936   5.440  14.271 -1.0743  2.1349  1.1215
 5384TIP3   OH237566   2.346   3.347   2.371 -0.0222  0.1938 -0.5248
 5384TIP3    H137567   2.417   3.411   2.369  1.2202 -1.1875 -1.0625
 5384TIP3    H237568   2.304   3.355   2.285 -0.4215  0.8856 -0.2714
 5385TIP3   OH237569   6.435   4.812   6.244 -1.1634  0.3296  0.5047
 5385TIP3    H137570   6.349   4.823   6.205 -1.1019 -0.6692  0.0762
 5385TIP3    H237571   6.445   4.718   6.255  0.9746  0.2308 -1.9466
 5386TIP3   OH237572   4.596   0.142  10.604  0.8848 -0.0277  0.4347
 5386TIP3    H137573   4.663   0.118  10.541  0.8418 -0.2449  0.4739
 5386TIP3    H237574   4.602   0.076  10.673  0.5547 -0.1131  0.3847
 5387TIP3   OH237575   1.724   0.248  17.094 -0.2749  0.2056  0.1783
 5387TIP3    H137576   1.637   0.212  17.078 -0.3418 -0.6355  2.1843
 5387TIP3    H237577   1.730   0.252  17.190  2.4589 -1.1962  0.1030
 5388TIP3   OH237578   5.551   2.207  15.496 -0.2915  1.0751 -0.2008
 5388TIP3    H137579   5.476   2.259  15.524 -2.1698  0.0093 -3.0351
 5388TIP3    H237580   5.532   2.118  15.527  0.4412  1.0525  0.2028
 5389TIP3   OH237581   3.196   1.747  13.068 -0.1541 -0.2315  0.1448
 5389TIP3    H137582   3.211   1.837  13.096 -0.2621  0.0320 -0.6151
 5389TIP3    H237583   3.280   1.703  13.080  0.8228  0.8099 -2.5146
 5390TIP3   OH237584   4.446   2.408  14.363  0.7503  0.3350  0.3327
 5390TIP3    H137585   4.391   2.333  14.341  0.3737  0.4138  0.9778
 5390TIP3    H237586   4.523   2.370  14.405  0.7809  0.2823  0.2281
 5391TIP3   OH237587   0.884   2.881  11.308  0.7428 -0.4854  0.4847
 5391TIP3    H137588   0.802   2.900  11.262  0.3736  0.4706  1.5149
 5391TIP3    H237589   0.917   2.967  11.335  3.3709 -0.6441 -2.0557
 5392TIP3   OH237590   1.794   5.410  15.957 -0.4744 -0.0487  0.1937
 5392TIP3    H137591   1.872   5.370  15.995 -1.4566  0.7474  3.2143
 5392TIP3    H237592   1.825   5.493  15.921  0.6271 -1.1703 -1.4908
 5393TIP3   OH237593   1.401   1.186  12.838  0.0283  0.1851 -0.2424
 5393TIP3    H137594   1.338   1.213  12.905  1.2752  0.5798  0.8115
 5393TIP3    H237595   1.381   1.094  12.821  0.1948 -0.1512  1.2799
 5394TIP3   OH237596   1.273   2.192  11.900  0.0216 -0.2383 -0.7678
 5394TIP3    H137597   1.325   2.261  11.860  3.0026 -2.0022 -0.1073
 5394TIP3    H237598   1.333   2.118  11.908 -2.1604 -1.8694  1.5149
 5395TIP3   OH237599   2.909   0.142   0.106 -0.2875 -0.5164 -0.6839
 5395TIP3    H137600   2.911   0.225   0.153  4.6578 -0.9924  0.2071
 5395TIP3    H237601   2.873   0.079   0.169 -1.5942  0.4390 -0.4657
 5396TIP3   OH237602   0.220   1.820   0.939 -0.4882 -0.0198 -0.0330
 5396TIP3    H137603   0.142   1.858   0.979 -0.3900 -0.6517  0.7799
 5396TIP3    H237604   0.209   1.726   0.950 -0.0043 -0.1563 -0.6584
 5397TIP3   OH237605   3.604   1.792  14.175 -0.1593 -0.1226 -0.2131
 5397TIP3    H137606   3.625   1.728  14.107 -2.3684 -0.9071 -0.1861
 5397TIP3    H237607   3.608   1.742  14.256  1.3825  0.5645  0.1621
 5398TIP3   OH237608   5.686   2.624  16.227  0.5215  0.2964  0.2248
 5398TIP3    H137609   5.749   2.645  16.296  0.8428  1.6708 -0.4665
 5398TIP3    H237610   5.652   2.708  16.198 -1.4790 -0.4086  0.4145
 5399TIP3   OH237611   5.180   6.446   3.762  0.6164 -0.5215 -0.1278
 5399TIP3    H137612   5.269   6.473   3.787  0.6100  0.2126 -0.8520
 5399TIP3    H237613   5.127   6.465   3.839  1.1446 -1.2951  0.4373
 5400TIP3   OH237614   2.373   4.229  15.708  0.6746 -0.3373  0.4489
 5400TIP3    H137615   2.349   4.320  15.691  1.2059 -0.2350  0.2254
 5400TIP3    H237616   2.314   4.201  15.778  0.4068  0.1324  0.4101
 5401TIP3   OH237617   2.974   4.831   4.350 -0.3348  0.7387  0.1629
 5401TIP3    H137618   3.008   4.921   4.347  1.7075  0.0033  0.8745
 5401TIP3    H237619   3.046   4.777   4.317 -2.0106 -0.5390 -1.5388
 5402TIP3   OH237620   4.139   6.727   5.846  0.3183 -0.3642  0.0082
 5402TIP3    H137621   4.178   6.680   5.920  1.8001 -0.3560 -0.7515
 5402TIP3    H237622   4.213   6.757   5.794 -0.6855  0.2639 -1.1054
 5403TIP3   OH237623   5.393   1.475   1.193 -0.6063 -0.4218  0.1587
 5403TIP3    H137624   5.446   1.554   1.182 -1.4288  0.3146  1.3714
 5403TIP3    H237625   5.316   1.489   1.139 -0.0236 -1.0857 -0.8620
 5404TIP3   OH237626   3.677   6.282  16.772  0.5371  0.0147 -0.1055
 5404TIP3    H137627   3.683   6.216  16.703 -1.9566 -0.6145  0.2348
 5404TIP3    H237628   3.765   6.317  16.779  0.9585 -0.2523 -3.2836
 5405TIP3   OH237629   5.290   5.892  10.548 -0.1880  0.6316  0.0101
 5405TIP3    H137630   5.363   5.832  10.531  0.0975  1.1330 -0.5819
 5405TIP3    H237631   5.213   5.848  10.513 -0.2553 -0.1273  1.0979
 5406TIP3   OH237632   4.090   0.828  13.176  0.1512 -0.3410 -0.5840
 5406TIP3    H137633   4.092   0.922  13.160  1.1611 -0.3301 -0.4304
 5406TIP3    H237634   4.006   0.813  13.219  0.5954  0.7067  0.6924
 5407TIP3   OH237635   0.987   3.053   3.126 -0.0018 -0.4295  0.1581
 5407TIP3    H137636   0.920   3.028   3.189 -1.7748  1.3774 -0.9097
 5407TIP3    H237637   0.937   3.092   3.054  2.2285  1.2565 -0.5244
 5408TIP3   OH237638   2.902   0.303   5.157 -0.3940 -0.0637 -0.0922
 5408TIP3    H137639   2.857   0.246   5.219  0.6273 -0.2640  0.4743
 5408TIP3    H237640   2.835   0.365   5.129 -0.4566  1.1231  2.5396
 5409TIP3   OH237641   5.692   4.344   2.634  0.1222 -0.0841 -0.1516
 5409TIP3    H137642   5.755   4.378   2.571  1.3478  0.5451  1.3716
 5409TIP3    H237643   5.704   4.249   2.631  0.3007 -0.0426 -0.7435
 5410TIP3   OH237644   0.785   3.465  14.784  0.2600 -0.5706 -0.1753
 5410TIP3    H137645   0.869   3.443  14.825  0.8468 -0.3946 -1.2793
 5410TIP3    H237646   0.757   3.384  14.741  0.1402 -0.4649 -0.2947
 5411TIP3   OH237647   4.878   0.454   1.176 -0.4397  0.4301  0.3789
 5411TIP3    H137648   4.842   0.540   1.157 -0.6907  0.7283  2.0885
 5411TIP3    H237649   4.933   0.433   1.100 -0.2437  2.1645  0.0193
 5412TIP3   OH237650   5.218   0.697   0.599  0.2123 -0.3065 -0.1313
 5412TIP3    H137651   5.131   0.720   0.629  0.1093 -1.8330  0.7668
 5412TIP3    H237652   5.273   0.771   0.624 -0.8236  0.6547 -0.7059
 5413TIP3   OH237653   1.999   0.939  10.383 -0.0342  0.0450  0.5981
 5413TIP3    H137654   2.050   0.972  10.458 -1.4191  0.5213  1.3560
 5413TIP3    H237655   1.921   0.994  10.382  0.0597  0.1476 -1.3275
 5414TIP3   OH237656   5.141   0.896  15.776 -0.2055 -0.0976  0.4796
 5414TIP3    H137657   5.165   0.835  15.846 -0.4175 -0.7959 -0.0407
 5414TIP3    H237658   5.062   0.940  15.807 -0.8445 -1.0855  0.2999
 5415TIP3   OH237659   5.368   1.299  13.622 -0.5770 -0.3112 -0.4297
 5415TIP3    H137660   5.461   1.314  13.638 -0.9676 -0.1446  1.9300
 5415TIP3    H237661   5.365   1.248  13.541  1.7051 -2.4829  0.7991
 5416TIP3   OH237662   2.294   5.936  16.823 -0.1552  0.4741 -0.3861
 5416TIP3    H137663   2.314   6.022  16.860  1.6033  0.6067 -1.6208
 5416TIP3    H237664   2.235   5.954  16.750 -1.6171  0.4158  0.7490
 5417TIP3   OH237665   3.151   4.933  12.625 -0.3046  0.0941  0.0317
 5417TIP3    H137666   3.143   5.024  12.598 -1.4840 -0.1142 -0.3563
 5417TIP3    H237667   3.064   4.896  12.611  0.2789 -1.2090 -0.2546
 5418TIP3   OH237668   4.953   2.315   3.138  0.2371  0.3193  0.2120
 5418TIP3    H137669   4.979   2.407   3.144  2.4500 -0.2859  0.4252
 5418TIP3    H237670   5.035   2.266   3.152 -0.6756 -1.6584 -1.1590
 5419TIP3   OH237671   4.661   2.394  15.786  0.2293 -0.6238  0.4405
 5419TIP3    H137672   4.572   2.424  15.771  0.2988 -0.2288  0.8051
 5419TIP3    H237673   4.707   2.471  15.819  1.3825 -0.0802 -2.3194
 5420TIP3   OH237674   0.085   3.063   3.618  0.2319  0.0290  0.2866
 5420TIP3    H137675   0.037   2.986   3.588  1.2867 -1.4774  2.3250
 5420TIP3    H237676   0.019   3.133   3.620 -1.6006 -1.6868  1.8017
 5421TIP3   OH237677   5.093   5.294   1.979  0.1457 -0.1918 -0.0475
 5421TIP3    H137678   5.063   5.325   1.894  2.1439  0.0638 -0.6711
 5421TIP3    H237679   5.099   5.373   2.033 -0.7842 -0.3129  0.2514
 5422TIP3   OH237680   6.057   2.441  16.129 -0.2267 -0.5653 -0.5886
 5422TIP3    H137681   6.122   2.510  16.138 -0.0753 -0.8154  0.3132
 5422TIP3    H237682   5.982   2.483  16.088  0.4418 -0.2431 -1.5103
 5423TIP3   OH237683   6.475   2.974   0.174  0.0948  0.6319 -0.0370
 5423TIP3    H137684   6.435   2.893   0.206 -0.6559  0.4979 -1.3020
 5423TIP3    H237685   6.479   3.031   0.251  1.1919 -0.8137  1.0095
 5424TIP3   OH237686   3.947   0.136  15.552 -0.0084  0.3697  0.4701
 5424TIP3    H137687   3.994   0.210  15.591  0.3136  0.8932 -0.8837
 5424TIP3    H237688   3.883   0.177  15.494  1.8071 -0.3962 -2.1873
 5425TIP3   OH237689   1.541   2.018   3.630  0.1137 -0.1089  0.3546
 5425TIP3    H137690   1.537   2.041   3.537  0.8796 -1.8263 -0.1115
 5425TIP3    H237691   1.599   2.084   3.669  0.2026  0.3071 -0.4771
 5426TIP3   OH237692   1.263   3.761  11.201  0.1263 -0.4116 -0.7193
 5426TIP3    H137693   1.265   3.851  11.233  1.3120 -0.3828 -0.8609
 5426TIP3    H237694   1.178   3.753  11.157 -0.7287  0.0957  0.8338
 5427TIP3   OH237695   5.927   1.722  15.961  0.4242  0.0843 -0.2814
 5427TIP3    H137696   5.868   1.662  15.915  1.7462 -1.0171 -0.5596
 5427TIP3    H237697   5.909   1.706  16.054 -0.1102  0.1562 -0.3693
 5428TIP3   OH237698   4.512   0.740  14.194  0.2799  0.3581  0.3209
 5428TIP3    H137699   4.470   0.677  14.252 -0.8122 -0.5080 -1.3700
 5428TIP3    H237700   4.590   0.695  14.161 -1.2509 -0.6812 -1.9838
 5429TIP3   OH237701   1.814   0.340  16.514  0.3916  0.4646  0.2845
 5429TIP3    H137702   1.861   0.413  16.553 -0.1595  0.8724  0.1976
 5429TIP3    H237703   1.881   0.289  16.469  0.7255  1.1290  0.0209
 5430TIP3   OH237704   6.112   5.950   6.082  0.3742  0.2575  0.3707
 5430TIP3    H137705   6.080   5.970   6.170 -0.3532 -0.3422  0.2424
 5430TIP3    H237706   6.091   5.858   6.069  1.3555  0.0916 -0.0650
 5431TIP3   OH237707   0.364   4.022  16.367 -0.3692 -0.4022  0.6442
 5431TIP3    H137708   0.318   3.955  16.317 -1.6121  0.7274  0.2255
 5431TIP3    H237709   0.294   4.076  16.405  0.5614 -0.8675  3.1004
 5432TIP3   OH237710   2.422   4.710  17.005 -0.2531  0.4220  0.5014
 5432TIP3    H137711   2.331   4.732  16.982 -0.0051 -0.0317 -1.0020
 5432TIP3    H237712   2.459   4.791  17.038 -0.2097  1.5641 -2.1743
 5433TIP3   OH237713   2.744   1.814   3.559  0.3664 -0.4005  0.0027
 5433TIP3    H137714   2.832   1.798   3.590  0.2544 -0.0336  0.5104
 5433TIP3    H237715   2.705   1.873   3.624 -0.6384 -1.4968  0.4076
 5434TIP3   OH237716   0.176   0.495   6.601  0.2233 -0.6610 -0.1176
 5434TIP3    H137717   0.123   0.415   6.608 -0.5331 -0.1254  0.4243
 5434TIP3    H237718   0.135   0.544   6.529  0.5499 -0.6596 -0.3031
 5435TIP3   OH237719   3.993   2.776  12.346  0.1537 -0.4816 -0.3580
 5435TIP3    H137720   3.995   2.794  12.252 -1.5673 -1.7981 -0.6789
 5435TIP3    H237721   3.984   2.681  12.352 -0.2209 -0.3660  1.1139
 5436TIP3   OH237722   2.583   2.691   3.349 -0.0330  0.2446 -0.0492
 5436TIP3    H137723   2.509   2.748   3.330 -0.0775 -0.3898 -1.8645
 5436TIP3    H237724   2.549   2.602   3.337  0.8701 -0.0631 -0.3990
 5437TIP3   OH237725   4.857   1.820  13.501 -0.1885  0.5620 -0.0790
 5437TIP3    H137726   4.844   1.914  13.513  1.3677  0.8771 -0.6174
 5437TIP3    H237727   4.943   1.814  13.459  0.5094 -1.1921  1.5309
 5438TIP3   OH237728   5.464   2.114   5.699 -0.1373 -0.5576  0.0740
 5438TIP3    H137729   5.508   2.036   5.666  1.0411 -0.6495  1.7666
 5438TIP3    H237730   5.491   2.119   5.791 -0.6459  1.5352  0.1319
 5439TIP3   OH237731   5.597   3.621   2.856 -0.5284 -0.2155  0.1810
 5439TIP3    H137732   5.531   3.679   2.894 -0.5938  0.4697 -0.9450
 5439TIP3    H237733   5.550   3.541   2.835 -0.2795 -0.9913  2.4401
 5440TIP3   OH237734   3.932   0.148   5.221  0.3890 -0.1917  0.1677
 5440TIP3    H137735   3.917   0.098   5.141 -0.4888 -0.3423  0.4197
 5440TIP3    H237736   3.886   0.231   5.206  3.0140  1.1317 -0.8206
 5441TIP3   OH237737   2.226   5.230  13.591  0.0222  0.0660  0.2427
 5441TIP3    H137738   2.264   5.155  13.637  0.2763  0.4974  0.7421
 5441TIP3    H237739   2.231   5.206  13.498  1.9524  0.2950  0.2646
 5442TIP3   OH237740   3.281   6.609  16.545 -0.0702 -0.5850 -0.0165
 5442TIP3    H137741   3.334   6.637  16.471 -0.1739 -0.4638 -0.0448
 5442TIP3    H237742   3.255   6.519  16.523  1.2663 -1.1506  0.6188
 5443TIP3   OH237743   1.735   6.353  12.840  0.5150  0.7483  0.6094
 5443TIP3    H137744   1.803   6.333  12.904 -0.1337 -0.5100  0.9241
 5443TIP3    H237745   1.776   6.415  12.780  2.3988 -1.0468 -0.0232
 5444TIP3   OH237746   4.979   1.279   1.131  0.6469 -0.1172 -0.0316
 5444TIP3    H137747   4.985   1.373   1.121  0.1475 -0.1152 -0.3302
 5444TIP3    H237748   4.900   1.265   1.184  0.6056 -0.3753 -0.1569
 5445TIP3   OH237749   4.567   0.525  15.488 -0.6142  0.0752 -0.8389
 5445TIP3    H137750   4.658   0.545  15.465 -0.7922 -0.7451 -2.3117
 5445TIP3    H237751   4.547   0.446  15.438 -1.4628 -0.9796  1.1476
 5446TIP3   OH237752   1.882   6.422  14.622 -0.4825  0.5529 -0.1715
 5446TIP3    H137753   1.907   6.468  14.702  0.0585  0.6677 -0.4108
 5446TIP3    H237754   1.824   6.352  14.653  0.9774 -0.3912  0.5003
 5447TIP3   OH237755   4.465   5.388  11.122  0.1887 -0.2193 -0.0232
 5447TIP3    H137756   4.381   5.342  11.128  0.6219 -0.9528  0.5662
 5447TIP3    H237757   4.506   5.352  11.043 -0.6045  1.0964 -1.0559
 5448TIP3   OH237758   0.324   3.404  12.462 -0.3075 -0.0625  0.1220
 5448TIP3    H137759   0.230   3.400  12.442  0.0387 -1.4274 -1.3225
 5448TIP3    H237760   0.349   3.313  12.476  0.8976  0.2637  0.1409
 5449TIP3   OH237761   4.857   2.119  12.920 -0.0521 -0.1491  0.4909
 5449TIP3    H137762   4.800   2.176  12.971  0.8928  1.5616 -0.2862
 5449TIP3    H237763   4.847   2.151  12.830  0.3594 -1.3465  0.0135
 5450TIP3   OH237764   3.146   4.287   3.265  0.1929 -0.1798  0.0426
 5450TIP3    H137765   3.058   4.292   3.302  0.0086 -0.6516 -0.3246
 5450TIP3    H237766   3.140   4.332   3.181  0.4310  0.2397  0.2482
 5451TIP3   OH237767   3.981   3.656   5.182  0.4914  0.3394  0.3535
 5451TIP3    H137768   3.955   3.643   5.273 -1.1954 -0.4248 -0.2139
 5451TIP3    H237769   4.050   3.722   5.185  0.3902  0.3636  2.1748
 5452TIP3   OH237770   4.490   6.578   2.635  0.1707  0.2672  0.3763
 5452TIP3    H137771   4.500   6.641   2.706 -0.5930  0.6973  0.1039
 5452TIP3    H237772   4.439   6.624   2.569  1.1205 -0.0340 -0.5747
 5453TIP3   OH237773   4.172   4.704   4.931  0.1672 -0.4697  0.4865
 5453TIP3    H137774   4.150   4.770   4.997 -0.5228  0.0290 -0.2286
 5453TIP3    H237775   4.261   4.677   4.953  1.3249  2.3154 -0.5120
 5454TIP3   OH237776   1.407   1.674   6.042 -0.1195  0.3660  0.3881
 5454TIP3    H137777   1.368   1.753   6.079 -2.4280  0.1129 -1.3426
 5454TIP3    H237778   1.397   1.607   6.109 -0.6678  0.8659  0.8024
 5455TIP3   OH237779   1.958   6.599  13.059 -0.0270 -0.8546 -0.0371
 5455TIP3    H137780   1.934   6.515  13.020  1.1162 -0.2109 -2.2044
 5455TIP3    H237781   1.879   6.652  13.052 -0.1210 -1.0662 -0.6055
 5456TIP3   OH237782   0.080   3.973  10.555 -0.7237  0.0413 -0.0263
 5456TIP3    H137783   0.138   3.935  10.489 -2.1734 -0.5207 -0.9880
 5456TIP3    H237784   0.077   4.066  10.532  0.1515  0.1653  0.3140
 5457TIP3   OH237785   2.470   6.462   4.554  0.3347 -0.2230  0.1457
 5457TIP3    H137786   2.555   6.456   4.511 -0.0423 -0.9549 -0.5219
 5457TIP3    H237787   2.408   6.434   4.487 -0.5818  1.7342  0.1480
 5458TIP3   OH237788   5.176   5.918  14.219 -0.6461  0.0958  0.3961
 5458TIP3    H137789   5.082   5.935  14.213 -0.1038  2.7061 -2.0185
 5458TIP3    H237790   5.214   6.002  14.246  1.0372 -0.8208  0.9408
 5459TIP3   OH237791   4.719   2.991  16.696 -0.2319 -0.4888 -0.3190
 5459TIP3    H137792   4.661   2.999  16.772  0.0640  0.4911 -0.1837
 5459TIP3    H237793   4.762   3.077  16.690 -1.3678 -0.0291 -2.4692
 5460TIP3   OH237794   2.881   0.921   4.216 -0.7463 -0.6874 -0.6314
 5460TIP3    H137795   2.840   0.880   4.293  0.4507 -0.4156  0.1653
 5460TIP3    H237796   2.859   1.013   4.224  2.7435  0.0481  1.6356
 5461TIP3   OH237797   4.575   4.184  15.569 -0.4516 -0.0486  0.0053
 5461TIP3    H137798   4.532   4.265  15.541 -1.6015 -0.5799  0.2004
 5461TIP3    H237799   4.569   4.185  15.665  0.3490  0.0733  0.0578
 5462TIP3   OH237800   5.166   1.955  14.458 -0.1977  0.7282 -0.1580
 5462TIP3    H137801   5.141   2.035  14.504  0.7810  0.3701  1.0235
 5462TIP3    H237802   5.085   1.925  14.416 -0.5032  2.4955 -0.8784
 5463TIP3   OH237803   1.272   0.477  11.999 -0.3948 -0.1122  0.3574
 5463TIP3    H137804   1.285   0.409  11.933 -1.1301  0.9947 -0.9531
 5463TIP3    H237805   1.190   0.454  12.041  0.3514 -1.1293  1.2803
 5464TIP3   OH237806   6.572   4.177  13.198  0.2787  0.0745 -0.5385
 5464TIP3    H137807   6.619   4.099  13.169 -0.3515  0.7807 -3.6367
 5464TIP3    H237808   6.640   4.235  13.231  1.0927 -0.6335 -0.9589
 5465TIP3   OH237809   4.523   0.347  13.010  0.4928 -0.0420 -0.2007
 5465TIP3    H137810   4.556   0.257  13.010 -1.3333 -0.7290  0.3262
 5465TIP3    H237811   4.433   0.340  12.977  0.9636  1.8499 -2.0052
 5466TIP3   OH237812   0.333   5.822  11.145 -0.2380  0.0506 -0.1337
 5466TIP3    H137813   0.364   5.910  11.165  1.6754 -0.9939  1.7380
 5466TIP3    H237814   0.374   5.800  11.061  1.6830 -0.1048  0.7959
 5467TIP3   OH237815   2.909   4.796   6.469  0.3074  0.0890 -0.1236
 5467TIP3    H137816   2.822   4.758   6.475  0.1020  0.5780  0.0312
 5467TIP3    H237817   2.942   4.792   6.559 -0.1586  1.3043  0.1155
 5468TIP3   OH237818   4.092   0.282  11.040  0.3972 -0.0200  0.2116
 5468TIP3    H137819   4.047   0.222  10.982 -0.3294 -0.3456  1.0988
 5468TIP3    H237820   4.058   0.368  11.018 -0.2304 -0.1982  0.4723
 5469TIP3   OH237821   2.909   1.291   2.262  0.1778  0.3974  0.4009
 5469TIP3    H137822   2.941   1.366   2.212  1.5890 -0.5729 -0.1819
 5469TIP3    H237823   2.860   1.239   2.198  1.1523 -0.3471  0.2620
 5470TIP3   OH237824   5.827   4.828  16.389  0.5852 -0.0628  0.0277
 5470TIP3    H137825   5.766   4.755  16.397  0.9798 -0.3885  0.0855
 5470TIP3    H237826   5.778   4.896  16.342  0.2087 -0.3534  0.0033
 5471TIP3   OH237827   3.949   2.346  13.422  0.1484  0.0519 -0.4853
 5471TIP3    H137828   3.868   2.301  13.445  1.0705 -1.2724  0.2589
 5471TIP3    H237829   3.967   2.320  13.332 -0.2094  0.2738 -0.6189
 5472TIP3   OH237830   2.764   0.208  11.945  0.2560 -0.5357  0.5259
 5472TIP3    H137831   2.668   0.208  11.944  0.1670  3.1641 -0.1875
 5472TIP3    H237832   2.789   0.124  11.908 -2.7420 -0.7643 -1.1564
 5473TIP3   OH237833   0.201   6.435   3.221 -0.4911  0.5578  0.3943
 5473TIP3    H137834   0.270   6.374   3.247 -2.1582 -1.1263  0.9809
 5473TIP3    H237835   0.239   6.522   3.235  0.1026 -0.2804  4.6557
 5474TIP3   OH237836   0.786   3.866   3.226  0.2798 -0.4041 -0.8926
 5474TIP3    H137837   0.794   3.836   3.317 -1.5579 -3.1855 -1.5727
 5474TIP3    H237838   0.870   3.907   3.206  1.2980 -1.2477  1.5459
 5475TIP3   OH237839   4.307   6.246  16.039  0.0954 -0.4085  0.5472
 5475TIP3    H137840   4.255   6.266  15.962  2.5669  1.3550 -0.7270
 5475TIP3    H237841   4.302   6.150  16.047 -0.1190 -0.6362 -1.8693
 5476TIP3   OH237842   1.192   6.048   3.258 -0.7105 -0.0709  0.3067
 5476TIP3    H137843   1.261   6.029   3.194  0.5547  0.2871  1.5626
 5476TIP3    H237844   1.111   6.043   3.207  0.2160 -0.6819 -1.1407
 5477TIP3   OH237845   2.554   0.496  13.261 -0.0805  0.3795  0.0540
 5477TIP3    H137846   2.618   0.567  13.262  0.0429  0.2709 -0.3240
 5477TIP3    H237847   2.538   0.478  13.354  0.3494  0.4789  0.1501
 5478TIP3   OH237848   5.083   4.645  16.356 -0.1311  0.0033  0.4879
 5478TIP3    H137849   5.101   4.737  16.338  2.1829 -0.5740 -0.3487
 5478TIP3    H237850   5.121   4.630  16.442 -0.2106 -0.2552  0.4772
 5479TIP3   OH237851   4.560   3.486  11.499  0.1586  0.0737 -0.0977
 5479TIP3    H137852   4.536   3.509  11.410  1.5255  0.4599 -0.3739
 5479TIP3    H237853   4.643   3.530  11.514 -0.9609  1.5569  2.0238
 5480TIP3   OH237854   2.375   4.128   6.318  0.3967 -0.6559 -0.2204
 5480TIP3    H137855   2.430   4.069   6.267 -0.0033 -2.5155  1.4184
 5480TIP3    H237856   2.365   4.084   6.402 -1.8101  0.6814  0.2529
 5481TIP3   OH237857   4.645   3.135   1.539 -0.3601  0.4018 -0.6542
 5481TIP3    H137858   4.675   3.048   1.566 -0.2737  0.6798  0.1558
 5481TIP3    H237859   4.550   3.130   1.545 -0.3212  0.5875  0.0790
 5482TIP3   OH237860   6.654   6.193  12.554 -0.2846  0.4505  0.1466
 5482TIP3    H137861   6.740   6.228  12.573  0.1102  0.2028 -1.1440
 5482TIP3    H237862   6.622   6.159  12.638  1.6937 -1.2516  0.2486
 5483TIP3   OH237863   2.348   0.059  14.824  0.0989  0.2370  0.1196
 5483TIP3    H137864   2.336   0.152  14.845  3.0768  0.6225  0.3378
 5483TIP3    H237865   2.439   0.053  14.796 -1.3155 -1.8232 -4.4300
 5484TIP3   OH237866   2.132   3.559   1.550  0.6353 -0.1563  0.3023
 5484TIP3    H137867   2.131   3.653   1.569  2.7861 -0.1388  0.4787
 5484TIP3    H237868   2.130   3.553   1.455  1.2452  0.1073  0.2684
 5485TIP3   OH237869   1.690   1.771   1.076  0.2913 -0.0982 -0.1334
 5485TIP3    H137870   1.695   1.866   1.083 -1.1035  0.0248 -0.5319
 5485TIP3    H237871   1.672   1.755   0.983 -0.8128 -0.6725  0.1679
 5486TIP3   OH237872   5.868   0.909  16.221 -0.0622 -0.4162 -0.0019
 5486TIP3    H137873   5.892   0.992  16.180  0.8126 -2.2106 -3.3058
 5486TIP3    H237874   5.935   0.848  16.190 -0.1943 -2.1789  3.0889
 5487TIP3   OH237875   3.696   2.716  14.535  0.2283  0.3734  0.2747
 5487TIP3    H137876   3.787   2.728  14.508  0.2644  2.7701  1.3526
 5487TIP3    H237877   3.697   2.724  14.630 -0.8517 -1.4043  0.4534
 5488TIP3   OH237878   3.234   4.492  11.267  0.5656  0.0286 -0.1877
 5488TIP3    H137879   3.198   4.422  11.322 -0.3538  0.6263 -0.0213
 5488TIP3    H237880   3.314   4.518  11.313  0.2810 -0.0948  0.3886
 5489TIP3   OH237881   0.378   4.951   1.802 -0.1491  0.0716  0.0185
 5489TIP3    H137882   0.319   5.001   1.746  0.6935 -0.1672 -1.0910
 5489TIP3    H237883   0.427   5.017   1.851  0.0942  0.3151 -0.5459
 5490TIP3   OH237884   6.238   3.429  15.988 -0.2965  0.5172  0.9049
 5490TIP3    H137885   6.246   3.460  16.078  0.7121 -0.7570  1.2688
 5490TIP3    H237886   6.258   3.505  15.934  1.8534  0.5929  1.7804
 5491TIP3   OH237887   4.244   4.624  16.202  0.4614  0.2434  0.0124
 5491TIP3    H137888   4.199   4.703  16.229  1.4313  0.9299 -0.3357
 5491TIP3    H237889   4.176   4.569  16.164 -0.3984  0.4720  1.2109
 5492TIP3   OH237890   0.055   6.508   2.235  0.4037  0.0156  0.3683
 5492TIP3    H137891   0.094   6.422   2.219  1.2676  0.6145 -0.7162
 5492TIP3    H237892  -0.018   6.513   2.173 -1.5041 -1.1249  2.4256
 5493TIP3   OH237893   5.893   0.458  10.472 -0.2861  0.2199  0.2834
 5493TIP3    H137894   5.834   0.413  10.412  0.9589 -1.1745  0.0603
 5493TIP3    H237895   5.869   0.424  10.559 -1.0655  1.0789  0.4033
 5494TIP3   OH237896   4.263   3.297   2.778 -0.0878 -0.4393  0.3406
 5494TIP3    H137897   4.228   3.343   2.701 -2.0108 -0.0684  1.4001
 5494TIP3    H237898   4.327   3.236   2.742  0.6563  1.2632 -1.3459
 5495TIP3   OH237899   2.568   5.157   5.862  0.0461  0.0169 -0.3323
 5495TIP3    H137900   2.596   5.111   5.941  1.7425 -0.0652 -0.9578
 5495TIP3    H237901   2.528   5.090   5.807 -0.0771 -0.1601 -0.0234
 5496TIP3   OH237902   3.438   5.472   5.922  0.1476 -0.2223  0.2572
 5496TIP3    H137903   3.428   5.531   5.847 -0.8671  0.3818  0.8645
 5496TIP3    H237904   3.448   5.531   5.997  0.9853 -0.8271  0.6188
 5497TIP3   OH237905   2.399   3.632  16.835 -0.6395  0.5818  0.0383
 5497TIP3    H137906   2.420   3.725  16.832  0.2869  0.4291  1.2950
 5497TIP3    H237907   2.481   3.590  16.861  0.1437 -1.0233 -4.5496
 5498TIP3   OH237908   3.500   3.474   2.301  0.3354  0.2017  0.6079
 5498TIP3    H137909   3.556   3.398   2.284 -1.8598 -1.2792 -0.3679
 5498TIP3    H237910   3.529   3.507   2.386  1.8250 -1.2959  0.7029
 5499TIP3   OH237911   1.463   2.152   0.415 -0.0384  0.8568  0.2923
 5499TIP3    H137912   1.440   2.060   0.403  0.3682  0.8142 -0.1871
 5499TIP3    H237913   1.521   2.152   0.492  2.6155  0.2573 -1.6110
 5500TIP3   OH237914   6.058   1.908  14.547  0.1678 -0.5362  0.1920
 5500TIP3    H137915   6.018   1.995  14.540  1.4611  0.0666  0.2644
 5500TIP3    H237916   6.089   1.902  14.637 -0.5759 -1.3818  0.4086
 5501TIP3   OH237917   2.138   4.916  11.519  0.3939 -0.1330 -0.1087
 5501TIP3    H137918   2.152   4.871  11.436 -2.2632 -1.1609 -0.0695
 5501TIP3    H237919   2.044   4.907  11.535  0.8989 -0.1942  3.1444
 5502TIP3   OH237920   5.193   3.616  10.841  0.2633 -0.2167 -0.5156
 5502TIP3    H137921   5.271   3.668  10.862 -0.2345 -0.2735  1.6414
 5502TIP3    H237922   5.204   3.535  10.890  1.2591 -2.4428 -4.2220
 5503TIP3   OH237923   6.160   5.910   4.339  0.1291  0.2393 -0.7960
 5503TIP3    H137924   6.205   5.833   4.375 -1.5309  0.0112  0.8388
 5503TIP3    H237925   6.086   5.924   4.397  0.2103  2.8958 -1.2779
 5504TIP3   OH237926   3.955   0.507  13.826  0.0814  0.4331  0.1749
 5504TIP3    H137927   3.898   0.547  13.891 -0.3871 -0.1367  0.1237
 5504TIP3    H237928   3.997   0.433  13.871  0.7913  0.8530  0.2163
 5505TIP3   OH237929   3.085   6.349   1.862 -0.1651 -0.0357  0.1787
 5505TIP3    H137930   3.069   6.338   1.956  1.3953 -0.6405  0.3973
 5505TIP3    H237931   3.176   6.379   1.857 -0.3015  0.1714 -1.1320
 5506TIP3   OH237932   0.184   2.927  13.891 -0.2341  1.0305  0.0062
 5506TIP3    H137933   0.169   2.898  13.981 -0.1928 -1.8763 -0.8672
 5506TIP3    H237934   0.256   2.872  13.859 -0.8397  1.3931 -2.0880
 5507TIP3   OH237935   0.972   1.705   5.976 -0.4201  0.3449 -0.6350
 5507TIP3    H137936   0.997   1.701   5.883  0.7444  2.1885 -0.4256
 5507TIP3    H237937   1.052   1.680   6.023 -0.8655 -0.0906 -0.1075
 5508TIP3   OH237938   5.622   1.434   5.639  0.1674  0.3556 -0.0340
 5508TIP3    H137939   5.675   1.500   5.593  0.1812 -0.3670 -1.0729
 5508TIP3    H237940   5.548   1.484   5.675  1.3368  1.3035  1.1073
 5509TIP3   OH237941   6.443   1.991  12.371  0.2084 -0.0740 -0.0905
 5509TIP3    H137942   6.421   2.082  12.392 -2.1395 -0.0493 -2.4561
 5509TIP3    H237943   6.449   1.989  12.276  0.5733 -2.3282 -0.0419
 5510TIP3   OH237944   3.094   3.031   5.715  0.2502  0.6706 -0.2754
 5510TIP3    H137945   3.087   3.110   5.661  0.3225  1.3775  0.7385
 5510TIP3    H237946   3.027   3.041   5.782 -0.1468 -0.4226 -0.4968
 5511TIP3   OH237947   2.041   4.695   0.382 -0.2334 -0.3190 -0.4466
 5511TIP3    H137948   2.113   4.639   0.353 -1.0589 -1.1347 -0.9514
 5511TIP3    H237949   1.983   4.700   0.306 -0.8407  0.1203  0.0465
 5512TIP3   OH237950   4.761   5.645   2.172 -0.3659 -0.3170 -0.0913
 5512TIP3    H137951   4.717   5.582   2.229 -1.2785  0.0121 -0.4224
 5512TIP3    H237952   4.846   5.605   2.155 -0.3223 -0.7127  0.9892
 5513TIP3   OH237953   0.869   0.130   1.414  0.9033  0.0201  0.4715
 5513TIP3    H137954   0.941   0.071   1.394  0.9018 -0.5808  2.1708
 5513TIP3    H237955   0.909   0.201   1.465  0.6736  0.8077 -0.4301
 5514TIP3   OH237956   0.329   1.750   6.306 -0.0765 -0.2944 -0.2837
 5514TIP3    H137957   0.396   1.816   6.293 -1.5545  1.4034  0.5258
 5514TIP3    H237958   0.370   1.684   6.362  2.1687 -1.2942 -2.9759
 5515TIP3   OH237959   2.036   4.273   0.170 -0.7002 -0.1857 -0.3914
 5515TIP3    H137960   1.983   4.195   0.189 -1.4434  0.5634  0.6728
 5515TIP3    H237961   2.124   4.249   0.198 -0.2413 -1.7921 -3.0703
 5516TIP3   OH237962   1.841   4.700   4.808  0.4087 -0.2619 -0.4569
 5516TIP3    H137963   1.916   4.656   4.766  0.2243 -0.3857 -0.6560
 5516TIP3    H237964   1.820   4.772   4.749  1.2039  0.5684  0.2567
 5517TIP3   OH237965   5.960   5.394  16.888 -0.1112 -0.3059  1.0367
 5517TIP3    H137966   6.048   5.358  16.900  0.6341  0.8493 -0.7151
 5517TIP3    H237967   5.968   5.486  16.916 -1.0583 -0.5041  1.9778
 5518TIP3   OH237968   4.931   2.929  11.543 -0.3706  0.0251  0.3132
 5518TIP3    H137969   4.935   2.948  11.449  0.7849  0.1477  0.3783
 5518TIP3    H237970   4.980   3.000  11.584 -0.5348 -0.2409  0.9780
 5519TIP3   OH237971   4.508   0.298  15.338  0.3867 -0.1278 -0.8037
 5519TIP3    H137972   4.522   0.211  15.301 -1.7085 -1.1599  0.7299
 5519TIP3    H237973   4.413   0.304  15.350  0.7675  1.2388  1.8083
 5520TIP3   OH237974   0.857   6.502  11.142  0.4196 -0.4186  0.6747
 5520TIP3    H137975   0.793   6.442  11.180  1.9861 -1.7629  1.2610
 5520TIP3    H237976   0.805   6.569  11.099 -1.3754 -1.3649  1.3350
 5521TIP3   OH237977   4.656   0.612  16.840 -0.1881 -0.3060 -0.4781
 5521TIP3    H137978   4.645   0.679  16.772  2.2747  1.0487  0.4043
 5521TIP3    H237979   4.750   0.595  16.841 -0.6319 -2.8481  0.2168
 5522TIP3   OH237980   4.254   3.124   4.847 -0.3106 -1.0065 -0.4514
 5522TIP3    H137981   4.328   3.063   4.835 -0.6031 -1.3746 -0.4081
 5522TIP3    H237982   4.219   3.136   4.759 -1.1345 -2.0292 -0.2733
 5523TIP3   OH237983   4.569   4.551   5.820 -0.6840 -0.3882  0.0450
 5523TIP3    H137984   4.605   4.481   5.765 -0.9418 -1.4484  1.2055
 5523TIP3    H237985   4.642   4.578   5.875 -1.2964 -1.7034  1.5527
 5524TIP3   OH237986   5.256   5.597  11.978 -0.4065  0.2167  0.0783
 5524TIP3    H137987   5.303   5.662  12.031 -1.2441  1.2033 -0.3880
 5524TIP3    H237988   5.178   5.577  12.028 -0.7938  0.5408 -0.3911
 5525TIP3   OH237989   0.143   3.485   4.973 -0.5149  0.0307 -0.6061
 5525TIP3    H137990   0.203   3.554   4.944  0.0794 -1.8157 -3.9490
 5525TIP3    H237991   0.091   3.464   4.895  0.2324 -4.2276 -0.0769
 5526TIP3   OH237992   2.535   6.183  13.979 -0.4542 -0.4472 -0.0678
 5526TIP3    H137993   2.484   6.103  13.961 -1.2313  0.3117 -1.3193
 5526TIP3    H237994   2.573   6.168  14.066 -1.0492 -1.9394 -0.0406
 5527TIP3   OH237995   5.940   6.381   2.833  0.2027 -0.3270  0.1201
 5527TIP3    H137996   5.878   6.403   2.902  0.9127  2.1087  0.0025
 5527TIP3    H237997   5.888   6.385   2.752 -0.0755 -0.8688  0.2672
 5528TIP3   OH237998   2.321   3.643  11.937 -0.1108  0.1779 -0.2317
 5528TIP3    H137999   2.397   3.687  11.900  1.2968 -1.8260  0.1865
 5528TIP3    H238000   2.289   3.702  12.005 -0.0934  1.9039 -1.6859
 5529TIP3   OH238001   0.495   3.909   5.074 -0.2927 -0.6137  0.2191
 5529TIP3    H138002   0.569   3.958   5.109 -0.6927  1.3144 -1.5788
 5529TIP3    H238003   0.425   3.923   5.137  0.4421 -1.3303  1.2260
 5530TIP3   OH238004   3.853   0.344   0.292 -0.2764 -0.5316 -0.1586
 5530TIP3    H138005   3.776   0.353   0.237  0.0043  0.1396 -0.4424
 5530TIP3    H238006   3.827   0.282   0.360 -1.1776 -0.0351 -0.0493
 5531TIP3   OH238007   4.940   0.287   2.003  0.3033  0.2303 -0.0203
 5531TIP3    H138008   4.868   0.264   2.061 -0.0232 -0.4286 -0.6796
 5531TIP3    H238009   4.925   0.379   1.981 -1.2996 -0.3653 -1.5113
 5532TIP3   OH238010   4.691   3.720   0.421 -0.1029 -0.3150  0.0425
 5532TIP3    H138011   4.682   3.804   0.375  0.5897  0.9977  2.2036
 5532TIP3    H238012   4.601   3.687   0.427 -0.6812  1.3234  0.9952
 5533TIP3   OH238013   1.145   2.496  13.119 -0.8307 -0.1948  0.5166
 5533TIP3    H138014   1.150   2.481  13.024  1.0093 -0.9755  0.7216
 5533TIP3    H238015   1.092   2.576  13.127 -0.5847  0.1672 -1.1883
 5534TIP3   OH238016   5.846   5.545   4.310  0.5128 -0.1922 -0.1718
 5534TIP3    H138017   5.808   5.626   4.342 -0.0227 -0.7864  0.7223
 5534TIP3    H238018   5.818   5.539   4.219  0.1303  0.3715 -0.0888
 5535TIP3   OH238019   1.512   5.706   6.173 -0.4579  0.1727 -0.3301
 5535TIP3    H138020   1.476   5.617   6.178 -2.0838  0.9332  2.3320
 5535TIP3    H238021   1.438   5.763   6.195  0.8444  2.1440 -0.9189
 5536TIP3   OH238022   2.525   3.311  16.067 -0.0917 -0.2452 -0.1826
 5536TIP3    H138023   2.590   3.382  16.070  1.0271 -1.1459 -1.8331
 5536TIP3    H238024   2.567   3.238  16.112 -0.9288 -0.0998  0.8368
 5537TIP3   OH238025   4.799   2.858  14.763 -1.0387  0.2905  0.5077
 5537TIP3    H138026   4.809   2.907  14.845  0.4116  0.3437  0.3105
 5537TIP3    H238027   4.706   2.838  14.759 -1.3526  1.4543  1.5078
 5538TIP3   OH238028   3.059   6.165  11.773 -0.2900  0.3556  0.1061
 5538TIP3    H138029   3.057   6.164  11.677 -2.1190 -0.3719  0.1237
 5538TIP3    H238030   2.968   6.180  11.798  0.2288  0.8971  1.7391
 5539TIP3   OH238031   0.124   0.714  16.359  0.0179  0.1784 -0.6812
 5539TIP3    H138032   0.208   0.679  16.330  0.4298 -1.4248  2.3397
 5539TIP3    H238033   0.136   0.809  16.359  2.1227 -0.0659  0.5352
 5540TIP3   OH238034   3.851   6.446   4.438 -0.3407  0.2161  0.4767
 5540TIP3    H138035   3.766   6.459   4.479 -0.7255 -0.3782 -0.1373
 5540TIP3    H238036   3.834   6.452   4.344  0.1161 -0.9044  0.3131
 5541TIP3   OH238037   0.226   6.775  16.543  0.3471 -0.3273  0.2590
 5541TIP3    H138038   0.277   6.797  16.621  0.9015  0.1528 -0.2294
 5541TIP3    H238039   0.271   6.821  16.472  0.0331 -1.0124 -0.3889
 5542TIP3   OH238040   2.451   1.479  15.789  0.6941  0.4264 -0.3334
 5542TIP3    H138041   2.432   1.567  15.760  1.1819  0.3916 -0.7770
 5542TIP3    H238042   2.447   1.483  15.885 -1.9296  0.3040 -0.4210
 5543TIP3   OH238043   2.002   0.060  16.011  0.2926 -0.0490 -0.2900
 5543TIP3    H138044   2.091   0.030  15.997  0.4815  0.6013 -0.4827
 5543TIP3    H238045   1.965  -0.003  16.074  0.6756 -0.6945 -0.7096
 5544TIP3   OH238046   5.167   6.040   1.017 -0.3542 -0.4188  0.0026
 5544TIP3    H138047   5.135   6.089   1.093 -1.2759 -0.3582 -0.4172
 5544TIP3    H238048   5.113   5.961   1.015 -1.8232  0.5838 -1.8269
 5545TIP3   OH238049   1.129   2.231   5.670 -0.1171  0.1340 -0.4649
 5545TIP3    H138050   1.200   2.295   5.674 -1.7975  1.9994  0.2186
 5545TIP3    H238051   1.150   2.176   5.594  2.4695  0.1041  0.2218
 5546TIP3   OH238052   2.536   6.464   0.866 -0.1267  0.0449  0.1343
 5546TIP3    H138053   2.469   6.481   0.933  0.3380 -0.6499  0.7804
 5546TIP3    H238054   2.543   6.547   0.818 -0.1031  0.7102  1.2720
 5547TIP3   OH238055   3.528   2.806  15.096 -0.1686 -0.0657 -0.5651
 5547TIP3    H138056   3.607   2.837  15.053  0.8404 -0.8611  0.6744
 5547TIP3    H238057   3.553   2.798  15.188 -1.7118 -0.2609 -0.1512
 5548TIP3   OH238058   3.923   0.679  10.607 -0.8393 -0.1574  0.7300
 5548TIP3    H138059   3.981   0.609  10.636 -1.4513 -0.9339  0.0896
 5548TIP3    H238060   3.965   0.715  10.529 -0.7658 -0.1239  0.7855
 5549TIP3   OH238061   5.504   4.501   1.554  0.2405 -0.1015  0.3202
 5549TIP3    H138062   5.467   4.562   1.618 -0.1161  0.2271 -0.1954
 5549TIP3    H238063   5.456   4.518   1.474  0.3264 -0.8828  0.0973
 5550TIP3   OH238064   5.587   6.093   5.266  0.1323  0.1610  0.0021
 5550TIP3    H138065   5.573   6.065   5.176  0.8509 -1.1007  0.2627
 5550TIP3    H238066   5.518   6.049   5.316  1.0020 -0.8332  0.3539
 5551TIP3   OH238067   0.238   2.247  17.149  0.2069 -0.2647 -0.4078
 5551TIP3    H138068   0.199   2.180  17.093 -0.6661  0.1526 -0.3117
 5551TIP3    H238069   0.210   2.330  17.111 -0.1665  0.0236  0.4786
 5552TIP3   OH238070   3.225   5.310  16.040 -0.5774 -0.0340  0.3543
 5552TIP3    H138071   3.152   5.267  15.995  0.3798 -1.3623  0.0276
 5552TIP3    H238072   3.239   5.258  16.119  0.2973 -0.0624  0.1877
 5553TIP3   OH238073   0.253   0.140  17.229  0.6924  0.1345 -0.0635
 5553TIP3    H138074   0.244   0.215  17.170 -0.3994  0.8049  0.9286
 5553TIP3    H238075   0.329   0.161  17.284 -0.3950  1.1276  1.0778
 5554TIP3   OH238076   5.621   3.340  12.147 -0.3726  0.0656  0.0961
 5554TIP3    H138077   5.579   3.257  12.122 -3.3003  1.1349  1.2652
 5554TIP3    H238078   5.570   3.371  12.222  0.2730  3.2225 -0.6975
 5555TIP3   OH238079   0.680   2.147  11.218  0.0002  0.3922  0.3089
 5555TIP3    H138080   0.702   2.239  11.203 -0.0223  0.0708 -1.8508
 5555TIP3    H238081   0.760   2.100  11.193  0.8924 -0.0624  3.7701
 5556TIP3   OH238082   4.804   6.335   5.251 -0.6490  0.0941 -0.1508
 5556TIP3    H138083   4.815   6.317   5.344  0.5374  0.9464 -0.1191
 5556TIP3    H238084   4.863   6.274   5.207 -0.9581 -0.0782 -0.3278
 5557TIP3   OH238085   5.019   4.512   5.276  0.1904  0.5665  0.0509
 5557TIP3    H138086   5.037   4.603   5.252  2.5398  0.2377  0.4870
 5557TIP3    H238087   5.105   4.470   5.278 -0.8064 -1.5058  0.5311
 5558TIP3   OH238088   1.561   4.753   3.231 -0.3389  0.0921 -0.3574
 5558TIP3    H138089   1.495   4.819   3.250 -1.3529 -0.4759 -1.7478
 5558TIP3    H238090   1.527   4.673   3.272 -0.6639 -0.2554 -1.2798
 5559TIP3   OH238091   4.643   1.172  15.767  0.2886  0.2165  0.4892
 5559TIP3    H138092   4.553   1.165  15.736  0.2069  0.5738  0.6474
 5559TIP3    H238093   4.688   1.225  15.702 -0.1388  1.8671  1.5131
 5560TIP3   OH238094   1.458   1.740   0.276 -0.2135 -0.3692  0.3646
 5560TIP3    H138095   1.444   1.812   0.215 -0.0433 -0.5800  0.0748
 5560TIP3    H238096   1.490   1.782   0.356 -0.4215 -0.0951  0.3043
 5561TIP3   OH238097   6.060   5.020   0.809 -0.4105 -0.3662 -0.0678
 5561TIP3    H138098   6.141   5.064   0.833  0.8949 -1.5686 -2.0519
 5561TIP3    H238099   5.998   5.091   0.790  1.1755  0.6446 -1.6869
 5562TIP3   OH238100   5.748   3.042  16.310  0.1563  0.3426  0.4960
 5562TIP3    H138101   5.827   3.095  16.308  0.9142 -0.7791  0.0810
 5562TIP3    H238102   5.728   3.031  16.403  0.7802  0.2105  0.6125
 5563TIP3   OH238103   2.805   3.593  13.930 -0.5488 -0.0820  0.1794
 5563TIP3    H138104   2.775   3.573  14.018  0.2620  0.2937  0.5462
 5563TIP3    H238105   2.829   3.686  13.933  1.6753 -0.6360  0.2003
 5564TIP3   OH238106   0.868   3.868  13.351  0.0470 -0.0961  0.4270
 5564TIP3    H138107   0.899   3.794  13.299 -3.7653 -0.8616 -0.9047
 5564TIP3    H238108   0.824   3.829  13.426 -1.0528  0.8435  0.2778
 5565TIP3   OH238109   6.141   1.764   1.243 -0.3280  0.3103 -0.5371
 5565TIP3    H138110   6.186   1.685   1.273 -1.0419  0.1719  0.2148
 5565TIP3    H238111   6.154   1.765   1.148  0.6198 -0.1135 -0.4172
 5566TIP3   OH238112   0.025   5.744   0.200 -0.2605  0.3723 -0.0343
 5566TIP3    H138113  -0.012   5.723   0.286 -0.1360 -1.4398 -0.3929
 5566TIP3    H238114   0.105   5.793   0.219  0.2349 -0.7845  0.9162
 5567TIP3   OH238115   5.126   1.767  16.089 -0.5657  0.0477  0.2248
 5567TIP3    H138116   5.166   1.682  16.106  0.0040  0.3450  0.3903
 5567TIP3    H238117   5.041   1.762  16.133  0.2938  0.2731  1.9477
 5568TIP3   OH238118   0.962   3.051  11.506 -0.5009 -0.1785 -0.1524
 5568TIP3    H138119   1.041   3.064  11.453  0.0209  1.1865  0.9342
 5568TIP3    H238120   0.943   3.137  11.543 -1.4022 -0.9047  1.1317
 5569TIP3   OH238121   4.393   1.647   1.399 -0.5683 -0.2415 -0.8105
 5569TIP3    H138122   4.334   1.575   1.421 -1.9870  1.3835  0.9122
 5569TIP3    H238123   4.350   1.692   1.327 -0.7261  0.0822 -0.5184
 5570TIP3   OH238124   6.758   4.742  11.086 -0.6924  0.2614 -0.4229
 5570TIP3    H138125   6.781   4.832  11.065  1.2520 -0.4817 -1.5804
 5570TIP3    H238126   6.806   4.722  11.166 -0.7700  0.0985 -0.4153
 5571TIP3   OH238127   2.567   2.380  13.984 -0.0195  0.2933 -0.2672
 5571TIP3    H138128   2.573   2.293  14.022  0.1106  0.1695 -0.5656
 5571TIP3    H238129   2.656   2.415  13.990 -0.0236  0.3189 -0.3506
 5572TIP3   OH238130   5.613   5.021   2.561  0.4591 -0.0092 -0.0054
 5572TIP3    H138131   5.633   4.996   2.651 -1.1527 -0.7156  0.1836
 5572TIP3    H238132   5.698   5.032   2.519  1.2628  1.8918  2.0161
 5573TIP3   OH238133   0.946   2.154   2.221 -0.0690 -0.3021 -0.2692
 5573TIP3    H138134   0.944   2.236   2.171  0.1475 -1.2610 -1.8896
 5573TIP3    H238135   1.021   2.107   2.185  1.7167  0.1114  2.8118
 5574TIP3   OH238136   2.056   1.009  13.158  0.6071 -0.2482 -0.2385
 5574TIP3    H138137   2.058   0.999  13.253 -0.5182 -2.3997 -0.4117
 5574TIP3    H238138   2.123   0.949  13.126  1.9103  1.4413 -0.7724
 5575TIP3   OH238139   5.594   2.612   5.219 -0.1030  0.2329  0.6353
 5575TIP3    H138140   5.658   2.655   5.275 -0.0608  3.3410 -1.6141
 5575TIP3    H238141   5.589   2.669   5.141 -2.1516 -2.4281 -1.2677
 5576TIP3   OH238142   0.936   4.640  14.881 -0.2069 -0.3780 -0.0202
 5576TIP3    H138143   0.865   4.691  14.842 -1.9250  1.1732  4.8272
 5576TIP3    H238144   1.015   4.669  14.835 -1.9848  2.0310 -1.6519
 5577TIP3   OH238145   5.873   2.479  11.784  0.6467  0.5910 -0.6709
 5577TIP3    H138146   5.894   2.564  11.744 -2.3365  2.8206  2.1989
 5577TIP3    H238147   5.792   2.452  11.740  1.2200 -0.4368 -1.0947
 5578TIP3   OH238148   0.964   6.741  13.678  0.0547 -0.2907  0.0138
 5578TIP3    H138149   1.028   6.791  13.728  1.7004 -0.1157 -2.2134
 5578TIP3    H238150   0.899   6.713  13.743  1.1207  1.5193  1.9058
 5579TIP3   OH238151   3.616   2.276  11.530  0.7859  0.0131 -0.3300
 5579TIP3    H138152   3.527   2.276  11.565  0.0577 -0.1932 -2.1378
 5579TIP3    H238153   3.658   2.351  11.572 -0.4864  0.6142 -0.1052
 5580TIP3   OH238154   0.359   5.111   4.210 -0.0248 -0.2039  0.3815
 5580TIP3    H138155   0.351   5.026   4.252  1.1952 -0.1961  0.6622
 5580TIP3    H238156   0.272   5.130   4.176 -1.1106 -0.0914  3.1129
 5581TIP3   OH238157   2.746   2.624   2.270  0.3253 -0.3481 -0.6231
 5581TIP3    H138158   2.654   2.624   2.297  0.6867 -0.5602  0.6465
 5581TIP3    H238159   2.794   2.648   2.349  1.2843  0.9438 -1.5964
 5582TIP3   OH238160   4.756   2.199  14.997 -0.1666  0.5168  0.2084
 5582TIP3    H138161   4.814   2.245  15.058 -1.1595  0.5397  1.1453
 5582TIP3    H238162   4.795   2.112  14.989  1.8184  1.5286 -1.7080
 5583TIP3   OH238163   3.204   0.854   5.187 -0.3027 -0.4067  0.2611
 5583TIP3    H138164   3.257   0.929   5.163  1.4157 -1.3062  1.1524
 5583TIP3    H238165   3.220   0.790   5.117 -0.8200 -0.3848  0.1228
 5584TIP3   OH238166   3.004   2.618  13.878  0.1312 -0.4857 -0.2246
 5584TIP3    H138167   3.087   2.601  13.832 -0.0998 -1.1940 -0.3763
 5584TIP3    H238168   3.019   2.702  13.922  0.8632 -0.5099 -0.4094
 5585TIP3   OH238169   0.959   1.422   1.276 -0.3756 -0.2196 -0.6087
 5585TIP3    H138170   0.931   1.435   1.366 -2.5857  2.1989 -1.5674
 5585TIP3    H238171   1.053   1.436   1.277 -0.2477 -1.0651  1.4323
 5586TIP3   OH238172   3.645   3.265   2.151 -0.6636  0.2059  0.1507
 5586TIP3    H138173   3.630   3.223   2.066 -2.1136  1.5575 -0.2818
 5586TIP3    H238174   3.638   3.193   2.214  0.0102 -0.7346 -0.8197
 5587TIP3   OH238175   4.335   1.128   1.957 -0.1857 -0.4221 -0.0781
 5587TIP3    H138176   4.266   1.115   2.022 -0.5855 -0.8943 -0.5952
 5587TIP3    H238177   4.288   1.143   1.875  0.3232 -0.9521 -0.4698
 5588TIP3   OH238178   2.263   3.447  13.515 -0.0309  0.1793 -0.3642
 5588TIP3    H138179   2.354   3.461  13.542  0.7094  0.9772 -3.0947
 5588TIP3    H238180   2.233   3.534  13.487 -1.1211 -0.3773 -0.9601
 5589TIP3   OH238181   5.223   5.887  11.324  0.3238  0.0216 -0.4321
 5589TIP3    H138182   5.277   5.851  11.395  1.8938  0.0612 -1.5659
 5589TIP3    H238183   5.175   5.812  11.289 -0.3619 -0.0205  0.5731
 5590TIP3   OH238184   4.233   4.974   0.497 -0.1261  0.4196 -0.1670
 5590TIP3    H138185   4.157   5.014   0.453 -0.2521  1.4949  1.0033
 5590TIP3    H238186   4.262   5.041   0.559  1.3676 -0.2647 -0.1294
 5591TIP3   OH238187   6.760   1.511  17.113  0.2189 -0.0906 -0.6880
 5591TIP3    H138188   6.789   1.602  17.121  0.3579 -0.0971 -1.1310
 5591TIP3    H238189   6.771   1.476  17.201  1.4165 -0.0438 -0.8067
 5592TIP3   OH238190   6.210   0.036  11.684 -0.3583  0.0291 -0.3061
 5592TIP3    H138191   6.178   0.115  11.641  0.2734  0.9726  0.9307
 5592TIP3    H238192   6.305   0.046  11.685 -0.2110 -1.2059 -0.9997
 5593TIP3   OH238193   4.810   3.475  15.065 -0.3934 -0.6663 -0.3728
 5593TIP3    H138194   4.863   3.542  15.109 -0.3314 -0.7552 -0.3139
 5593TIP3    H238195   4.776   3.421  15.136 -0.3330 -0.7807 -0.4319
 5594TIP3   OH238196   6.697   2.897   3.463 -0.1171 -0.1941 -0.9204
 5594TIP3    H138197   6.646   2.951   3.523  2.2251  0.4726  0.5519
 5594TIP3    H238198   6.659   2.810   3.470 -0.6354  0.1509  0.6274
 5595TIP3   OH238199   1.785   6.705  11.011 -0.6220  0.0000 -0.2716
 5595TIP3    H138200   1.761   6.613  11.006 -0.3869 -0.1012  0.4171
 5595TIP3    H238201   1.802   6.731  10.920  1.3867 -1.1804 -0.2592
 5596TIP3   OH238202   2.622   5.803   6.059  0.1342 -0.1222 -0.4734
 5596TIP3    H138203   2.706   5.804   6.106  0.0659  0.3929 -0.3586
 5596TIP3    H238204   2.597   5.895   6.053 -0.7852 -0.3242  0.1305
 5597TIP3   OH238205   1.834   0.818   1.145 -0.1852 -0.2631 -0.2464
 5597TIP3    H138206   1.783   0.770   1.210 -0.0609  0.4247  0.3682
 5597TIP3    H238207   1.898   0.868   1.196 -0.6968  1.0188 -0.8217
 5598TIP3   OH238208   3.316   5.284   1.864 -1.0903 -0.5014  0.5414
 5598TIP3    H138209   3.391   5.293   1.805 -1.7128 -0.8558 -0.3018
 5598TIP3    H238210   3.356   5.267   1.950 -0.2159 -1.9846 -0.1326
 5599TIP3   OH238211   5.177   3.295  15.255  0.2034  0.5270 -0.1860
 5599TIP3    H138212   5.136   3.227  15.309 -1.2775  0.5247 -1.2924
 5599TIP3    H238213   5.247   3.330  15.310 -0.0374 -0.8054  0.9987
 5600TIP3   OH238214   2.334   5.942   4.817 -0.2343  0.4599  0.3109
 5600TIP3    H138215   2.355   5.946   4.910 -1.6547  1.0168  0.6350
 5600TIP3    H238216   2.386   6.011   4.777  1.3168 -0.5943  0.4865
 5601TIP3   OH238217   6.063   4.810  11.703 -0.2501 -0.2661 -0.3007
 5601TIP3    H138218   6.121   4.734  11.705 -2.0150 -1.6220  0.1136
 5601TIP3    H238219   6.013   4.800  11.622 -1.3447 -0.1951  0.3582
 5602TIP3   OH238220   4.681   3.886   2.433 -0.3244 -0.1942  0.3765
 5602TIP3    H138221   4.755   3.896   2.373 -0.2317 -3.8276 -0.1815
 5602TIP3    H238222   4.720   3.891   2.521  0.2478 -0.0132  0.1166
 5603TIP3   OH238223   5.694   1.577   4.306  0.0685 -0.4454  0.4373
 5603TIP3    H138224   5.644   1.651   4.272  0.1858 -0.8730 -0.6834
 5603TIP3    H238225   5.653   1.558   4.391  1.7846  2.6404  2.0539
 5604TIP3   OH238226   0.229   3.031  12.504 -0.3372 -0.0014 -0.1660
 5604TIP3    H138227   0.176   3.093  12.554 -0.5194 -0.8458  0.7090
 5604TIP3    H238228   0.194   2.945  12.528 -0.4306 -0.4229 -1.7535
 5605TIP3   OH238229   6.568   6.312  12.253 -0.3794  0.0246 -0.5641
 5605TIP3    H138230   6.587   6.402  12.277 -1.4147  0.5468 -1.6303
 5605TIP3    H238231   6.575   6.263  12.335  0.9651  0.9249 -0.1131
 5606TIP3   OH238232   6.701   6.391  14.478  0.0137 -0.3159 -0.2874
 5606TIP3    H138233   6.709   6.433  14.393  3.4839 -1.5532 -0.6711
 5606TIP3    H238234   6.759   6.441  14.535 -2.3895  0.5893  1.4363
 5607TIP3   OH238235   5.304   2.458   5.991  0.1612  0.3695  0.3177
 5607TIP3    H138236   5.234   2.441   6.053  0.6182 -1.3003  0.4065
 5607TIP3    H238237   5.379   2.484   6.045  0.1503  0.2842  0.3752
 5608TIP3   OH238238   0.968   3.467  15.551  0.6395  0.4404 -0.3282
 5608TIP3    H138239   0.873   3.466  15.560  0.1895 -2.3704 -4.0618
 5608TIP3    H238240   0.985   3.535  15.486  1.1376  0.6543  0.0269
 5609TIP3   OH238241   6.180   2.131   1.989 -0.1032 -0.3584  0.2351
 5609TIP3    H138242   6.184   2.099   2.079  1.6385 -1.8580 -0.3490
 5609TIP3    H238243   6.266   2.111   1.952 -0.8722  0.0298 -1.8376
 5610TIP3   OH238244   3.911   2.316  16.516 -0.1949 -0.3154  0.3422
 5610TIP3    H138245   3.875   2.229  16.504 -0.6403  0.0376 -0.9126
 5610TIP3    H238246   3.931   2.321  16.610  0.8667 -2.1411  0.2288
 5611TIP3   OH238247   0.035   5.689   1.612 -0.3203 -0.2351  0.1038
 5611TIP3    H138248  -0.025   5.621   1.642 -2.0605  0.1445 -2.4013
 5611TIP3    H238249   0.087   5.646   1.543 -0.5440  0.6011 -0.5920
 5612TIP3   OH238250   4.590   3.300   5.731  0.3788 -0.1085  0.0963
 5612TIP3    H138251   4.665   3.267   5.681 -0.6644 -0.4820 -1.2451
 5612TIP3    H238252   4.592   3.395   5.717  0.2979 -0.1740 -0.3912
 5613TIP3   OH238253   0.686   4.351  12.293  0.3032  0.2261 -0.0932
 5613TIP3    H138254   0.612   4.408  12.311 -0.7825 -0.1972 -2.9651
 5613TIP3    H238255   0.749   4.407  12.248  0.0398 -0.3653 -1.2086
 5614TIP3   OH238256   5.698   2.499  14.076  0.2167  0.4340  0.4000
 5614TIP3    H138257   5.732   2.413  14.100 -1.6272  0.1340  2.0488
 5614TIP3    H238258   5.701   2.549  14.157 -1.3011  1.0436  0.0925
 5615TIP3   OH238259   5.577   4.596  16.044  0.7615  0.0232  0.0483
 5615TIP3    H138260   5.569   4.510  16.002  0.5197  0.1216 -0.1082
 5615TIP3    H238261   5.594   4.657  15.973 -1.2897  0.4329 -0.1161
 5616TIP3   OH238262   3.009   5.669  17.119  0.0088  0.3225 -0.0500
 5616TIP3    H138263   2.997   5.752  17.072 -0.0653  0.8600  0.8991
 5616TIP3    H238264   3.028   5.605  17.050 -2.6098  0.5742 -1.0434
 5617TIP3   OH238265   3.257   1.847   3.881  0.1744 -0.1798 -0.1572
 5617TIP3    H138266   3.280   1.787   3.952 -0.3957  0.7422  0.8169
 5617TIP3    H238267   3.229   1.789   3.809 -0.5762 -1.0769  0.8453
 5618TIP3   OH238268   4.410   3.498  12.641  0.2585  0.0248 -0.0852
 5618TIP3    H138269   4.468   3.545  12.581  0.4904 -0.6232 -0.3667
 5618TIP3    H238270   4.336   3.471  12.587 -0.2326  0.7093  0.2382
 5619TIP3   OH238271   0.445   5.828   1.998  0.1045 -0.0788 -0.0218
 5619TIP3    H138272   0.355   5.802   2.018 -0.5069  1.6802 -0.4067
 5619TIP3    H238273   0.500   5.764   2.045 -1.3166  0.1912  2.0587
 5620TIP3   OH238274   5.702   2.767   4.258 -0.1957  0.0185  0.2464
 5620TIP3    H138275   5.653   2.834   4.209  0.7058  0.5266  0.0346
 5620TIP3    H238276   5.782   2.812   4.286  1.3722 -1.5258 -1.6307
 5621TIP3   OH238277   5.157   6.587  13.098  0.3397 -0.8197  0.0423
 5621TIP3    H138278   5.099   6.573  13.024 -0.0388 -1.0417  0.3757
 5621TIP3    H238279   5.243   6.561  13.067  0.6175  1.3589 -1.0659
 5622TIP3   OH238280   4.259   1.008  10.507 -0.0494  0.0405  0.4573
 5622TIP3    H138281   4.210   1.086  10.533  0.2728  0.3925  0.0271
 5622TIP3    H238282   4.349   1.025  10.535  0.6123  1.0584 -2.1002
 5623TIP3   OH238283   5.633   1.148  14.445 -0.1393  0.1841 -0.0654
 5623TIP3    H138284   5.613   1.199  14.523 -0.7830  0.9324 -0.7180
 5623TIP3    H238285   5.726   1.164  14.429 -0.6146  2.1480 -0.9797
 5624TIP3   OH238286   4.211   4.809   4.144 -0.0985 -0.5898 -0.0262
 5624TIP3    H138287   4.283   4.865   4.113  1.0677 -1.9954  0.0978
 5624TIP3    H238288   4.132   4.858   4.123  0.8442  0.3105 -1.5535
 5625TIP3   OH238289   6.028   3.562   3.479 -0.5270  0.2654 -0.2843
 5625TIP3    H138290   5.964   3.503   3.440 -2.6878  0.8103  2.3087
 5625TIP3    H238291   6.081   3.507   3.536  0.6740  0.0173 -1.5897
 5626TIP3   OH238292   2.440   6.272   3.110  0.6396  0.1423  0.0090
 5626TIP3    H138293   2.380   6.344   3.134  0.0197 -0.1669 -0.6072
 5626TIP3    H238294   2.403   6.236   3.030  0.6170 -1.2666  0.6533
 5627TIP3   OH238295   4.053   0.632   3.617 -0.5006  0.1356 -0.0587
 5627TIP3    H138296   4.008   0.689   3.680 -1.8096 -0.5325 -0.3640
 5627TIP3    H238297   4.138   0.615   3.656 -1.4914 -0.7225  1.8014
 5628TIP3   OH238298   0.872   6.326  14.790 -0.3312  0.1364  0.7176
 5628TIP3    H138299   0.928   6.257  14.826 -0.8309  0.7231  2.6742
 5628TIP3    H238300   0.927   6.404  14.789  0.0218 -0.1121 -0.8609
 5629TIP3   OH238301   3.474   0.657   4.548  0.1839  0.3940 -0.2794
 5629TIP3    H138302   3.456   0.563   4.551 -0.2061  0.4913  0.7620
 5629TIP3    H238303   3.470   0.679   4.455  0.4157 -0.6441 -0.5482
 5630TIP3   OH238304   2.131   1.523   1.597  0.3309  0.2050  0.2692
 5630TIP3    H138305   2.205   1.568   1.638  0.2854 -0.2029  0.8001
 5630TIP3    H238306   2.105   1.581   1.525 -0.0875  1.3182  1.2945
 5631TIP3   OH238307   5.803   5.793  16.110  0.2061  0.3367  0.5227
 5631TIP3    H138308   5.874   5.755  16.057  1.5574  1.1201  1.7389
 5631TIP3    H238309   5.847   5.829  16.187 -1.8465 -1.8159  2.8059
 5632TIP3   OH238310   2.435   5.006  14.502 -0.6755 -0.7234  0.5405
 5632TIP3    H138311   2.530   4.997  14.511 -0.5965  0.6854  1.2083
 5632TIP3    H238312   2.401   4.922  14.533  0.3004 -0.8156  1.4167
 5633TIP3   OH238313   5.602   3.956   5.929 -0.2325  0.4670  0.5634
 5633TIP3    H138314   5.694   3.941   5.949 -0.2932 -0.4636  0.1506
 5633TIP3    H238315   5.594   4.051   5.921  1.5711  0.3534 -3.6738
 5634TIP3   OH238316   6.529   0.320   5.756  0.2781  0.5828  0.8202
 5634TIP3    H138317   6.456   0.259   5.764  0.2393  0.4797 -0.2553
 5634TIP3    H238318   6.602   0.276   5.800  0.1649 -0.1075  0.3216
 5635TIP3   OH238319   2.989   4.895   0.097  0.9126  0.3607  0.1731
 5635TIP3    H138320   2.935   4.974   0.086 -1.1344 -0.8550  1.1288
 5635TIP3    H238321   2.939   4.826   0.054  2.5587 -0.5008 -0.4047
 5636TIP3   OH238322   0.131   0.364  15.197 -0.1647 -0.2835  0.1201
 5636TIP3    H138323   0.063   0.371  15.264  1.0463  0.2828  1.3146
 5636TIP3    H238324   0.101   0.422  15.127  0.3099  1.9738  1.7213
 5637TIP3   OH238325   2.619   2.183   2.437 -0.2245 -0.5286  0.1985
 5637TIP3    H138326   2.610   2.241   2.513 -2.3990 -0.0250 -0.4087
 5637TIP3    H238327   2.704   2.205   2.400 -0.2078  0.9708  1.0854
 5638TIP3   OH238328   1.729   5.703   5.450 -0.6122 -0.1880 -0.0173
 5638TIP3    H138329   1.815   5.684   5.412 -0.1564  0.8825  0.4766
 5638TIP3    H238330   1.716   5.633   5.513 -0.0334 -0.2792  0.0108
 5639TIP3   OH238331   4.459   6.418   0.031  0.1666  0.3980 -0.7025
 5639TIP3    H138332   4.464   6.371  -0.053  0.6356 -0.6473 -0.0953
 5639TIP3    H238333   4.524   6.487   0.023 -0.2737  0.7274 -1.4680
 5640TIP3   OH238334   5.898   3.973  14.627 -0.1506 -0.1984  0.2444
 5640TIP3    H138335   5.908   4.024  14.547 -0.2878 -0.9373 -0.2508
 5640TIP3    H238336   5.851   3.894  14.600  2.1722 -1.7338  0.5154
 5641TIP3   OH238337   1.302   0.995   1.628  0.5044 -0.2700 -0.1996
 5641TIP3    H138338   1.225   0.951   1.662 -0.2611  1.0654 -0.1659
 5641TIP3    H238339   1.341   0.932   1.567  0.6382 -1.8023  1.4426
 5642TIP3   OH238340   2.286   1.130  14.633 -0.1025  0.3902  0.2208
 5642TIP3    H138341   2.348   1.105  14.702 -0.6089  2.0105  1.2951
 5642TIP3    H238342   2.202   1.137  14.678 -0.8525 -0.6486 -1.0054
 5643TIP3   OH238343   5.143   4.212  17.099 -0.5337  0.2725 -0.4711
 5643TIP3    H138344   5.212   4.245  17.157  0.7270 -1.4866 -0.9296
 5643TIP3    H238345   5.183   4.210  17.012 -1.8091  1.0850 -1.0997
 5644TIP3   OH238346   0.636   4.685   3.719 -0.0663 -0.1180  0.3769
 5644TIP3    H138347   0.686   4.728   3.649 -0.2949 -0.1299  0.2063
 5644TIP3    H238348   0.583   4.620   3.674 -1.7153  1.2311  0.3196
 5645TIP3   OH238349   1.788   4.508  14.033  0.2242 -0.9922 -0.2526
 5645TIP3    H138350   1.830   4.433  14.075  0.5711 -0.7817 -0.2242
 5645TIP3    H238351   1.700   4.509  14.071  0.3331 -1.1697  0.0160
 5646TIP3   OH238352   1.076   3.556  16.839  0.2415  0.5189  0.5032
 5646TIP3    H138353   1.129   3.504  16.779 -0.1516  1.0271 -0.2906
 5646TIP3    H238354   1.030   3.619  16.783 -1.9431 -0.5266  1.0781
 5647TIP3   OH238355   2.157   4.888  17.134 -0.2700  0.2835 -0.6566
 5647TIP3    H138356   2.215   4.964  17.124 -1.5592  1.2822 -0.6205
 5647TIP3    H238357   2.125   4.870  17.046  0.2968 -0.4490 -0.7197
 5648TIP3   OH238358   5.301   1.321  14.816 -0.4010  0.0513  0.5869
 5648TIP3    H138359   5.291   1.340  14.909 -0.1905  0.6348  0.4968
 5648TIP3    H238360   5.317   1.227  14.811 -1.1194 -0.1050  1.0870
 5649TIP3   OH238361   4.883   6.377  16.499 -0.2009  0.2203 -1.0545
 5649TIP3    H138362   4.798   6.359  16.541  0.2445  0.4375 -0.0410
 5649TIP3    H238363   4.861   6.395  16.408 -1.2979  0.6763 -0.7139
 5650TIP3   OH238364   4.940   6.226  14.062  0.2109 -0.0098  0.1111
 5650TIP3    H138365   4.955   6.168  14.137  0.6516  0.9583  0.7758
 5650TIP3    H238366   5.027   6.236  14.022  0.0095 -0.3730 -0.4260
 5651TIP3   OH238367   1.348   6.426  13.486 -0.5954 -0.0203  0.2880
 5651TIP3    H138368   1.273   6.482  13.463 -2.9911 -2.8240  0.9573
 5651TIP3    H238369   1.321   6.382  13.566  1.1009 -2.3541 -0.3902
 5652TIP3   OH238370   5.394   4.987  14.356 -0.1885  0.1467  0.1312
 5652TIP3    H138371   5.369   4.947  14.272 -1.3747  0.6892  0.2122
 5652TIP3    H238372   5.310   5.014  14.395  0.3388 -0.2815  1.5802
 5653TIP3   OH238373   4.226   2.699   6.029 -0.9498  0.1272 -0.2211
 5653TIP3    H138374   4.310   2.655   6.016 -1.1414 -0.0195 -0.9743
 5653TIP3    H238375   4.245   2.792   6.013 -1.2678 -0.0989 -1.9752
 5654TIP3   OH238376   2.070   6.762  13.555  0.0002  0.3098 -0.2056
 5654TIP3    H138377   2.009   6.710  13.607  0.2059 -2.5694 -2.6961
 5654TIP3    H238378   2.137   6.790  13.617 -1.2459 -0.6142  1.6210
 5655TIP3   OH238379   2.493   3.952   2.995  0.0881  0.6825 -0.0197
 5655TIP3    H138380   2.562   3.915   2.941  0.0521 -0.6907  0.8380
 5655TIP3    H238381   2.538   3.982   3.074 -0.4365 -1.3556  1.0856
 5656TIP3   OH238382   2.274   2.837  12.831 -0.0824  0.2482 -0.4311
 5656TIP3    H138383   2.351   2.844  12.775  0.6752 -0.9790  0.4103
 5656TIP3    H238384   2.273   2.745  12.858 -0.1836  0.8829  1.8691
 5657TIP3   OH238385   2.434   5.095   3.767  0.0444  0.3654 -0.2645
 5657TIP3    H138386   2.415   5.005   3.796  1.6462  0.3608  0.8482
 5657TIP3    H238387   2.439   5.145   3.849  0.0238  1.2976 -0.8361
 5658TIP3   OH238388   5.274   1.731  13.954 -0.1401 -0.5424 -0.2593
 5658TIP3    H138389   5.304   1.739  14.044  0.5790 -1.4387 -0.4095
 5658TIP3    H238390   5.306   1.811  13.911 -3.1106  1.3788  0.9716
 5659TIP3   OH238391   0.569   1.231  14.840  0.0500 -0.3404 -0.2434
 5659TIP3    H138392   0.663   1.244  14.852 -0.1577  2.6828 -1.3570
 5659TIP3    H238393   0.557   1.231  14.745 -1.2903  1.3624 -0.1029
 5660TIP3   OH238394   3.343   0.057   0.205  0.1496  0.5290 -0.1614
 5660TIP3    H138395   3.429   0.049   0.164  0.1749  0.7714 -0.1534
 5660TIP3    H238396   3.282   0.031   0.137  0.2436  0.1247 -0.0936
 5661TIP3   OH238397   3.085   1.427   4.042  0.0867 -0.2434 -0.4316
 5661TIP3    H138398   3.011   1.467   3.997 -0.3479 -1.2707 -0.6386
 5661TIP3    H238399   3.047   1.385   4.119  0.2131 -1.9653 -1.2600
 5662TIP3   OH238400   2.651   4.563  13.711 -0.5403  0.2814 -0.3356
 5662TIP3    H138401   2.572   4.575  13.657 -0.7249 -1.3222 -0.4459
 5662TIP3    H238402   2.689   4.481  13.680 -0.8566 -0.8765  2.2260
 5663TIP3   OH238403   1.734   1.792   3.329 -0.3278 -0.5995  0.5240
 5663TIP3    H138404   1.792   1.718   3.307  0.4146  0.6373 -1.9742
 5663TIP3    H238405   1.794   1.862   3.355 -0.8230  0.0768 -0.1434
 5664TIP3   OH238406   2.140   4.713  13.679 -0.5107 -0.2927 -0.4643
 5664TIP3    H138407   2.212   4.745  13.624 -0.0432  0.0476  0.3207
 5664TIP3    H238408   2.079   4.786  13.683  0.4307  0.4292  1.1129
 5665TIP3   OH238409   4.245   0.740  14.951  0.5814 -0.4052  0.1963
 5665TIP3    H138410   4.212   0.743  15.040 -1.5520  0.0605 -0.5838
 5665TIP3    H238411   4.197   0.668  14.909 -0.2037  0.9333 -1.2485
 5666TIP3   OH238412   3.205   5.134   2.373  0.1229 -0.2585 -0.0007
 5666TIP3    H138413   3.140   5.131   2.303 -0.4824 -1.1360  0.5913
 5666TIP3    H238414   3.155   5.158   2.451  0.6005 -0.4373  0.3606
 5667TIP3   OH238415   5.039   3.935   5.947 -0.4952 -0.3472 -0.0141
 5667TIP3    H138416   5.045   4.030   5.943  0.8728 -0.4808 -1.5119
 5667TIP3    H238417   5.126   3.906   5.977 -1.5488 -1.0335  2.5272
 5668TIP3   OH238418   2.817   4.164   1.038  0.2498 -0.4771  0.0576
 5668TIP3    H138419   2.803   4.246   0.991  1.6984 -0.6527 -0.7149
 5668TIP3    H238420   2.759   4.169   1.114  0.8655  1.5907  0.4144
 5669TIP3   OH238421   5.722   6.779  10.991 -0.0902  0.0098 -0.0007
 5669TIP3    H138422   5.639   6.735  10.974 -1.2621  2.3458 -0.5703
 5669TIP3    H238423   5.766   6.780  10.906 -1.4123  2.5785 -0.6955
 5670TIP3   OH238424   0.916   2.494   1.922 -0.7920  0.1703  0.1767
 5670TIP3    H138425   0.885   2.554   1.990  0.7297  0.7354  0.4158
 5670TIP3    H238426   0.982   2.545   1.874  0.2351 -1.1820  0.1289
 5671TIP3   OH238427   2.364   2.663  10.565 -0.5988 -0.1289 -0.0195
 5671TIP3    H138428   2.430   2.603  10.531 -0.0534  0.3580  0.1924
 5671TIP3    H238429   2.413   2.737  10.601 -1.3070  0.7854 -0.9158
 5672TIP3   OH238430   6.517   1.879   5.672  0.1966  0.1900  0.1025
 5672TIP3    H138431   6.479   1.958   5.710 -1.2502  0.0802 -1.0612
 5672TIP3    H238432   6.513   1.815   5.743 -1.2484  0.3680  0.1987
 5673TIP3   OH238433   2.218   4.289  13.736  0.4453  0.2663  0.5559
 5673TIP3    H138434   2.176   4.268  13.819  0.2079 -0.1638  0.3304
 5673TIP3    H238435   2.166   4.243  13.670 -0.0446  1.5307  0.0492
 5674TIP3   OH238436   3.523   3.507   4.246 -0.4750  0.0288  0.1758
 5674TIP3    H138437   3.504   3.461   4.328 -2.2981  2.4933  1.1770
 5674TIP3    H238438   3.558   3.591   4.274  0.8837  0.0873 -1.6323
 5675TIP3   OH238439   4.355   0.284  14.914 -0.4931 -0.2821  0.2176
 5675TIP3    H138440   4.332   0.198  14.949 -2.4625  0.2960  0.3980
 5675TIP3    H238441   4.272   0.320  14.883  0.5793  0.8636 -1.4106
 5676TIP3   OH238442   3.605   6.593  14.231 -0.8573 -0.3504 -0.4119
 5676TIP3    H138443   3.659   6.667  14.205 -0.1193 -0.0899  1.8059
 5676TIP3    H238444   3.538   6.631  14.288 -1.0897 -1.2558 -0.0803
 5677TIP3   OH238445   5.435   1.428   4.249 -0.0511 -0.0283  0.8249
 5677TIP3    H138446   5.372   1.472   4.193  1.5238 -0.8732 -1.6659
 5677TIP3    H238447   5.426   1.473   4.334 -3.2130  0.5371  0.2527
 5678TIP3   OH238448   2.205   5.386   3.141 -0.1452 -0.1654  0.5125
 5678TIP3    H138449   2.232   5.428   3.222 -0.2552  0.9594 -0.0267
 5678TIP3    H238450   2.127   5.434   3.114 -0.5249 -1.0028  0.1214
 5679TIP3   OH238451   3.327   4.997   2.713  0.0918  0.0543 -0.0630
 5679TIP3    H138452   3.346   5.086   2.743  1.1337 -0.7851  1.8751
 5679TIP3    H238453   3.232   4.993   2.708 -0.0810  0.5730  2.2160
 5680TIP3   OH238454   2.300   5.596  16.480 -0.2846 -0.0243  0.3604
 5680TIP3    H138455   2.316   5.572  16.389 -0.9556  0.4709  0.1075
 5680TIP3    H238456   2.375   5.650  16.504  0.6260 -1.3396  0.5563
 5681TIP3   OH238457   2.795   6.570   0.043  0.4045  0.3317  0.5180
 5681TIP3    H138458   2.728   6.502   0.038  1.2672 -0.4726 -0.1934
 5681TIP3    H238459   2.875   6.523   0.066  1.0726  1.0604 -0.2804
 5682TIP3   OH238460   2.277   2.128  16.293  0.3122  0.3605 -0.4031
 5682TIP3    H138461   2.290   2.067  16.220 -1.4637  0.3056 -0.6774
 5682TIP3    H238462   2.363   2.169  16.304  1.2181 -1.3260 -0.9842
 5683TIP3   OH238463   3.408   3.758   1.932  0.8222  0.6789  0.3980
 5683TIP3    H138464   3.394   3.781   1.840 -2.6775  1.0846  0.9576
 5683TIP3    H238465   3.432   3.665   1.930 -0.3210  0.3917 -0.8719
 5684TIP3   OH238466   1.254   6.173   5.650  0.2039 -0.2263  0.4654
 5684TIP3    H138467   1.255   6.147   5.742 -2.8551 -2.8564 -0.1577
 5684TIP3    H238468   1.194   6.248   5.647 -0.2448 -0.5801  0.5204
 5685TIP3   OH238469   6.412   4.262   3.593  0.1699  0.1721  0.0369
 5685TIP3    H138470   6.353   4.335   3.573  0.1465  0.9567  2.7673
 5685TIP3    H238471   6.499   4.300   3.591  0.4959 -0.6120 -2.3020
 5686TIP3   OH238472   0.265   3.532   5.905 -0.3311  0.3128 -0.6441
 5686TIP3    H138473   0.284   3.447   5.943  3.0655  0.7532 -1.2473
 5686TIP3    H238474   0.210   3.513   5.830 -0.3946 -1.2484 -0.2150
 5687TIP3   OH238475   5.272   1.545  11.503 -0.0658 -0.0272 -0.0169
 5687TIP3    H138476   5.357   1.584  11.522 -0.0532 -0.2052  0.2956
 5687TIP3    H238477   5.291   1.473  11.443  0.3406 -1.7750  2.1119
 5688TIP3   OH238478   0.336   6.032  15.927  1.0502  0.7629 -0.0381
 5688TIP3    H138479   0.379   6.116  15.941  0.2746  1.0755  0.4788
 5688TIP3    H238480   0.368   5.976  15.997  2.2452  0.3536 -0.8926
 5689TIP3   OH238481   2.141   0.347  15.472 -0.0037 -0.1350 -0.4369
 5689TIP3    H138482   2.058   0.298  15.468 -0.8573  1.1288  1.3389
 5689TIP3    H238483   2.135   0.399  15.552  1.3115  2.1319 -1.7467
 5690TIP3   OH238484   4.924   3.407  16.660 -0.2570  0.4995 -0.5473
 5690TIP3    H138485   4.832   3.386  16.644 -0.1077 -0.8451  0.2527
 5690TIP3    H238486   4.969   3.322  16.654  0.4317  0.6056  2.3191
 5691TIP3   OH238487   1.129   0.580  14.458 -0.1334  0.2376  0.1290
 5691TIP3    H138488   1.089   0.549  14.539 -1.6345 -1.4178 -1.1999
 5691TIP3    H238489   1.061   0.632  14.416  0.2252  0.1269 -0.6059
 5692TIP3   OH238490   1.002   5.228  13.144  0.1283 -0.2761 -0.4243
 5692TIP3    H138491   0.924   5.199  13.191  1.4378 -0.9566  1.4327
 5692TIP3    H238492   1.069   5.162  13.166  1.6148  1.0887 -0.7370
 5693TIP3   OH238493   5.030   0.105  11.218  0.0904 -0.3173 -0.1945
 5693TIP3    H138494   5.041   0.041  11.147 -3.1344 -1.6619  0.3963
 5693TIP3    H238495   5.104   0.091  11.276  0.5267 -2.1320 -1.1489
 5694TIP3   OH238496   2.606   2.184   3.705 -0.0089 -0.3710  0.4448
 5694TIP3    H138497   2.551   2.106   3.695  0.0821 -0.4254  0.3779
 5694TIP3    H238498   2.554   2.255   3.668  0.2734 -0.5455 -0.2917
 5695TIP3   OH238499   1.248   5.798  12.358  0.6422 -0.1249 -0.1613
 5695TIP3    H138500   1.254   5.847  12.276  1.0918  1.2050  0.6616
 5695TIP3    H238501   1.245   5.706  12.330  2.2970  0.2305 -1.6043
 5696TIP3   OH238502   1.961   1.972   5.133  0.0089  0.1408 -0.3573
 5696TIP3    H138503   2.009   2.051   5.109  1.0152 -0.4535 -0.3697
 5696TIP3    H238504   1.980   1.910   5.062  1.6624 -1.0850  1.1162
 5697TIP3   OH238505   2.890   5.004  14.911 -0.2271  0.2401 -0.0746
 5697TIP3    H138506   2.924   4.968  14.993 -1.3511 -0.8720 -0.0742
 5697TIP3    H238507   2.940   5.084  14.897  0.7354 -0.1375  1.1308
 5698TIP3   OH238508   3.396   3.635  17.145  0.1866 -0.0894 -0.0683
 5698TIP3    H138509   3.338   3.659  17.216 -2.3133 -0.1877 -2.0038
 5698TIP3    H238510   3.413   3.717  17.099 -0.6188 -0.4792 -1.0811
 5699TIP3   OH238511   2.000   3.791  11.476  0.0669  0.1832 -0.1880
 5699TIP3    H138512   2.043   3.841  11.545  0.4997 -0.5507  0.0751
 5699TIP3    H238513   2.000   3.850  11.400  1.8722  0.0585 -0.3011
 5700TIP3   OH238514   4.391   5.030   1.268  0.1739  1.2015  0.2992
 5700TIP3    H138515   4.419   5.111   1.225 -0.1470  1.1587  0.0080
 5700TIP3    H238516   4.296   5.036   1.272  0.1705  0.9968  0.5945
 5701TIP3   OH238517   2.888   0.829  11.136 -0.4535 -0.0091  0.1826
 5701TIP3    H138518   2.915   0.913  11.174  0.0151  0.1056 -0.4081
 5701TIP3    H238519   2.814   0.802  11.190 -0.5576  0.7469  0.4307
 5702TIP3   OH238520   4.437   0.396  15.715  0.1175  0.1436 -0.2443
 5702TIP3    H138521   4.474   0.396  15.803  0.3732  1.7232 -0.3345
 5702TIP3    H238522   4.496   0.451  15.664  1.1965 -2.5157 -1.9723
 5703TIP3   OH238523   4.922   1.837   3.379 -0.4993 -0.2407  0.3004
 5703TIP3    H138524   5.002   1.829   3.431 -1.3735  1.4718  2.0054
 5703TIP3    H238525   4.868   1.763   3.406  0.0621 -0.7778 -0.0424
 5704TIP3   OH238526   1.720   0.564   4.994 -0.7090  0.1538 -0.1533
 5704TIP3    H138527   1.756   0.609   4.918 -0.9785  0.9960  0.2171
 5704TIP3    H238528   1.719   0.629   5.063  0.9117 -1.0220  1.0099
 5705TIP3   OH238529   2.353   6.239  11.687  0.1099  0.2963 -0.4294
 5705TIP3    H138530   2.400   6.285  11.618  1.6363  1.1450  1.1322
 5705TIP3    H238531   2.261   6.263  11.674  0.2600 -0.2050 -2.6189
 5706TIP3   OH238532   3.999   5.433   0.175 -0.1467  0.1593 -0.4316
 5706TIP3    H138533   3.995   5.525   0.201  0.3040 -0.0926  0.5557
 5706TIP3    H238534   4.053   5.433   0.095 -1.2171  0.8880 -1.1615
 5707TIP3   OH238535   6.391   6.044   4.945 -0.0257 -0.2052  0.0006
 5707TIP3    H138536   6.415   5.999   5.027 -0.7104 -0.0500  0.2901
 5707TIP3    H238537   6.319   5.993   4.910 -0.1157  0.0676 -0.2102
 5708TIP3   OH238538   5.392   3.250   4.982  0.1827 -0.4737 -0.0904
 5708TIP3    H138539   5.409   3.343   4.990 -0.9424 -0.1325 -1.4173
 5708TIP3    H238540   5.427   3.226   4.896  0.1310 -1.1803  0.0802
 5709TIP3   OH238541   5.072   0.081   3.758  0.2268 -0.0125 -0.5390
 5709TIP3    H138542   5.071   0.027   3.679  1.4013 -1.8581  0.6781
 5709TIP3    H238543   4.997   0.050   3.809  1.0263 -0.6695  0.2563
 5710TIP3   OH238544   2.213   6.198   3.791 -0.1063  0.1182  0.1297
 5710TIP3    H138545   2.288   6.143   3.815 -0.8015 -0.8697  0.0820
 5710TIP3    H238546   2.252   6.277   3.755  0.9193 -0.2317  0.4486
 5711TIP3   OH238547   5.446   3.544   5.019  0.3176 -0.5260  1.0698
 5711TIP3    H138548   5.353   3.525   5.029  0.5861 -1.6763  1.5183
 5711TIP3    H238549   5.486   3.511   5.100  0.9723  0.9728  1.3809
 5712TIP3   OH238550   1.084   1.095   0.206  0.4962  0.0540 -0.2626
 5712TIP3    H138551   1.005   1.041   0.209  1.2834 -1.1579 -1.0018
 5712TIP3    H238552   1.072   1.150   0.130  0.6400 -0.5758 -0.7457
 5713TIP3   OH238553   4.754   4.056  13.880 -0.3749 -0.0248 -0.2599
 5713TIP3    H138554   4.779   3.981  13.934  2.5403  0.3224 -1.0372
 5713TIP3    H238555   4.728   4.017  13.796 -0.6622 -0.3052 -0.0389
 5714TIP3   OH238556   4.393   5.841   2.816  0.0082 -0.2516  0.2062
 5714TIP3    H138557   4.477   5.885   2.808 -0.6151  0.5752 -2.7593
 5714TIP3    H238558   4.340   5.898   2.872  0.4188  0.8573 -0.5295
 5715TIP3   OH238559   2.569   5.552   0.934  0.0331 -0.2759 -0.6886
 5715TIP3    H138560   2.488   5.604   0.933 -0.7683 -1.4905 -0.5013
 5715TIP3    H238561   2.627   5.599   0.993  0.0163  1.4235 -1.9864
 5716TIP3   OH238562   2.613   0.865  12.487  0.0318  0.9537 -0.3539
 5716TIP3    H138563   2.589   0.871  12.580 -2.4280  2.3615 -1.0247
 5716TIP3    H238564   2.538   0.820  12.447  2.4783 -2.6214 -1.2054
 5717TIP3   OH238565   4.232   1.368   5.146 -0.4553  0.1869  0.0908
 5717TIP3    H138566   4.169   1.439   5.132 -0.4786  0.0658 -0.4473
 5717TIP3    H238567   4.278   1.360   5.062  0.0884  0.0920  0.3935
 5718TIP3   OH238568   4.410   5.157  12.040  0.1096  0.0670  0.7778
 5718TIP3    H138569   4.497   5.122  12.059 -0.5448 -2.0947 -0.0531
 5718TIP3    H238570   4.425   5.224  11.974  1.1193 -0.4078  0.5204
 5719TIP3   OH238571   5.438   5.280   6.265  0.3248  0.5561  0.0721
 5719TIP3    H138572   5.414   5.368   6.292  0.6470  1.4867 -2.5945
 5719TIP3    H238573   5.516   5.259   6.317 -0.5614  1.2640  1.7162
 5720TIP3   OH238574   3.496   3.172   0.302  0.7130  0.3482  0.1901
 5720TIP3    H138575   3.478   3.221   0.222  0.0100 -0.8405 -0.3955
 5720TIP3    H238576   3.451   3.222   0.370 -2.8035 -1.2143 -0.8870
 5721TIP3   OH238577   1.010   1.369   5.702  0.1015  1.1965  0.0429
 5721TIP3    H138578   0.956   1.330   5.633  0.9258 -1.1353  0.6636
 5721TIP3    H238579   1.085   1.407   5.656  0.9715 -0.9093 -0.3545
 5722TIP3   OH238580   5.370   0.678   3.793  0.2960  0.3827 -0.1263
 5722TIP3    H138581   5.336   0.622   3.863  0.1598  1.6568  0.8491
 5722TIP3    H238582   5.350   0.631   3.712 -3.2729  0.8070  0.4267
 5723TIP3   OH238583   5.646   6.637   4.314 -0.2016 -0.4126  0.2971
 5723TIP3    H138584   5.586   6.661   4.385 -0.5738  0.8094 -0.4006
 5723TIP3    H238585   5.639   6.542   4.306 -1.7286 -0.3248  0.5208
 5724TIP3   OH238586   3.542   6.565  12.157  0.0058 -0.6142 -0.5607
 5724TIP3    H138587   3.569   6.637  12.099  0.2301 -1.0169 -0.9614
 5724TIP3    H238588   3.606   6.568  12.229 -1.0035  0.6625  0.3110
 5725TIP3   OH238589   3.091   5.780   5.575  0.1552 -0.2205 -0.0863
 5725TIP3    H138590   3.106   5.765   5.668 -1.3128 -3.1521 -0.2672
 5725TIP3    H238591   3.159   5.731   5.530 -0.2107 -0.2816 -0.5881
 5726TIP3   OH238592   2.184   2.219  12.204 -0.7030 -0.4343 -0.0022
 5726TIP3    H138593   2.121   2.286  12.231 -1.0378 -0.5239 -0.5597
 5726TIP3    H238594   2.209   2.245  12.116  0.8510  0.1957  0.6076
 5727TIP3   OH238595   2.671   0.808   3.260  0.0954 -0.5701  0.0130
 5727TIP3    H138596   2.656   0.795   3.167 -1.0437 -1.4073  0.3007
 5727TIP3    H238597   2.660   0.721   3.299  0.6542 -0.2493  0.9166
 5728TIP3   OH238598   5.328   6.720  13.464 -0.6114  0.0370  0.1211
 5728TIP3    H138599   5.272   6.791  13.431 -0.0114 -0.6162 -2.4113
 5728TIP3    H238600   5.383   6.697  13.390  0.8642 -1.4794  1.6455
 5729TIP3   OH238601   0.048   4.948  16.025  0.2638  0.0197  0.0789
 5729TIP3    H138602   0.087   4.906  16.102  2.4585  1.1961 -0.3372
 5729TIP3    H238603   0.078   5.039  16.030 -2.3192  0.9182 -0.3895
 5730TIP3   OH238604   5.495   6.733   2.959  0.0685 -0.1422  0.6145
 5730TIP3    H138605   5.541   6.677   3.021  1.6469  2.0374  1.4836
 5730TIP3    H238606   5.407   6.743   2.995  0.2978 -0.7057  1.3323
 5731TIP3   OH238607   0.301   1.620  15.464  0.0770  0.1476 -0.2103
 5731TIP3    H138608   0.274   1.610  15.373  2.9031  0.8480 -1.1592
 5731TIP3    H238609   0.385   1.664  15.460 -2.0989  5.0611  2.9537
 5732TIP3   OH238610   3.156   0.298  13.152  0.1369 -0.2985 -0.1061
 5732TIP3    H138611   3.114   0.239  13.215 -1.7659  0.3127 -0.7641
 5732TIP3    H238612   3.250   0.288  13.168 -0.2279 -2.3256  0.8432
 5733TIP3   OH238613   3.739   6.385  11.358  0.3829 -0.9143  0.4190
 5733TIP3    H138614   3.744   6.381  11.454  2.5092 -0.8263  0.3265
 5733TIP3    H238615   3.650   6.356  11.338 -0.8268  1.1380  2.5432
 5734TIP3   OH238616   4.952   2.812   5.086  0.6143  0.3158 -0.5957
 5734TIP3    H138617   5.032   2.865   5.083  0.9304 -0.2184 -2.0551
 5734TIP3    H238618   4.947   2.782   5.177  0.7767  2.3085  0.0869
 5735TIP3   OH238619   4.073   1.473   3.662  0.3516  0.6359 -0.0706
 5735TIP3    H138620   3.996   1.476   3.605  1.3843 -0.7505 -1.5976
 5735TIP3    H238621   4.115   1.558   3.650  0.2908  0.5388 -1.0123
 5736TIP3   OH238622   5.032   1.147  11.481  0.2237 -0.2195  0.2890
 5736TIP3    H138623   5.035   1.054  11.459  0.0796 -0.4548  1.2119
 5736TIP3    H238624   5.115   1.165  11.524  0.0689 -0.0375  0.5207
 5737TIP3   OH238625   0.100   3.209   4.517 -0.0689 -0.1640 -0.5976
 5737TIP3    H138626   0.184   3.254   4.523 -0.1593  0.0537 -0.9413
 5737TIP3    H238627   0.072   3.222   4.426  1.1146 -3.0619 -1.4570
 5738TIP3   OH238628   1.916   6.326   5.353  0.2701  0.0362 -0.0351
 5738TIP3    H138629   1.823   6.311   5.372 -0.4599  2.2348 -1.5795
 5738TIP3    H238630   1.953   6.356   5.436 -0.5738 -0.1146  0.4040
 5739TIP3   OH238631   3.456   4.964  12.566 -0.4025  0.3479  0.2852
 5739TIP3    H138632   3.441   5.022  12.491 -3.7600 -0.6501  0.0894
 5739TIP3    H238633   3.398   4.889  12.550 -0.8079 -0.1074  3.6005
 5740TIP3   OH238634   0.473   5.195   0.637  0.4037 -0.1920 -0.6328
 5740TIP3    H138635   0.443   5.130   0.701 -1.0038  2.2706  1.2757
 5740TIP3    H238636   0.568   5.194   0.645  0.4183 -2.1912 -0.8194
 5741TIP3   OH238637   5.782   5.325  11.268  0.1904  0.0754 -0.4023
 5741TIP3    H138638   5.760   5.232  11.265 -2.1791  0.6053 -0.1040
 5741TIP3    H238639   5.865   5.328  11.316 -0.2121 -1.7976  0.4689
 5742TIP3   OH238640   5.472   0.261   0.302 -0.2183  0.0925  0.3815
 5742TIP3    H138641   5.563   0.279   0.322  0.4700 -1.5624 -1.1227
 5742TIP3    H238642   5.438   0.216   0.379  0.3569  0.3217  0.7687
 5743TIP3   OH238643   4.039   2.215   3.077  0.1175 -0.2452 -0.3071
 5743TIP3    H138644   4.123   2.206   3.032 -0.4007 -3.0363 -0.8144
 5743TIP3    H238645   3.977   2.166   3.022 -0.9410 -1.9565  2.3233
 5744TIP3   OH238646   2.727   1.467  14.862 -0.0883 -0.1384  0.0982
 5744TIP3    H138647   2.712   1.446  14.769 -0.3827 -0.1919  0.1567
 5744TIP3    H238648   2.821   1.483  14.868 -0.0510 -0.2386 -0.1893
 5745TIP3   OH238649   3.419   6.668  16.271  0.4058  0.3432  0.2390
 5745TIP3    H138650   3.363   6.745  16.263  2.0051  1.5349  0.1803
 5745TIP3    H238651   3.405   6.621  16.189 -1.8149 -0.3106  0.9628
 5746TIP3   OH238652   1.460   0.694  16.598  0.3053 -0.4201 -1.0901
 5746TIP3    H138653   1.538   0.740  16.628 -1.0554  0.2792  1.6215
 5746TIP3    H238654   1.401   0.764  16.570 -0.2457 -0.7633 -0.8042
 5747TIP3   OH238655   0.400   2.610   2.908 -0.6024  0.0262  0.6569
 5747TIP3    H138656   0.419   2.516   2.907 -3.1835 -0.5312  0.7568
 5747TIP3    H238657   0.395   2.633   3.001 -2.0754 -0.2257  0.6595
 5748TIP3   OH238658   0.504   2.553   1.258  0.6219 -0.5601  0.7580
 5748TIP3    H138659   0.420   2.592   1.233 -0.0439 -2.0209  0.6226
 5748TIP3    H238660   0.501   2.548   1.353 -0.3264 -2.4458  0.6557
 5749TIP3   OH238661   2.351   6.487  11.797 -0.0135  0.4106 -0.0954
 5749TIP3    H138662   2.329   6.394  11.792  1.0366  0.0830  1.0533
 5749TIP3    H238663   2.354   6.516  11.706 -0.3631 -0.6769 -0.4620
 5750TIP3   OH238664   5.924   0.806  12.438  0.3521 -0.5775 -0.6895
 5750TIP3    H138665   5.976   0.801  12.358  0.1684  0.8968 -0.9056
 5750TIP3    H238666   5.833   0.814  12.408  0.4166  1.6456 -0.3748
 5751TIP3   OH238667   6.427   3.455   5.366 -0.2391 -0.4479  0.0925
 5751TIP3    H138668   6.466   3.415   5.288  0.1850  1.1808 -0.5536
 5751TIP3    H238669   6.336   3.424   5.366 -1.0494  1.6094 -2.5898
 5752TIP3   OH238670   0.890   2.249  11.446  0.4032 -0.1029 -0.2738
 5752TIP3    H138671   0.824   2.290  11.390 -0.2536  0.6463  1.0304
 5752TIP3    H238672   0.949   2.320  11.470 -1.2121  0.3254  2.6671
 5753TIP3   OH238673   1.934   0.801  11.684  0.4104 -0.2798  0.0074
 5753TIP3    H138674   1.861   0.762  11.732 -0.1234 -0.2690 -0.7990
 5753TIP3    H238675   1.963   0.733  11.624 -0.1700  0.3662 -1.0223
 5754TIP3   OH238676   3.195   6.107  14.743 -0.6305 -0.4913  0.5065
 5754TIP3    H138677   3.110   6.140  14.713 -0.4727  0.4345  1.0441
 5754TIP3    H238678   3.257   6.139  14.677 -0.4536  0.4650  1.1204
 5755TIP3   OH238679   6.204   0.830   1.698 -0.5310  0.3500 -0.3767
 5755TIP3    H138680   6.157   0.812   1.617 -1.1883  0.4424 -0.0176
 5755TIP3    H238681   6.146   0.799   1.768 -0.4324  1.2184  0.1070
 5756TIP3   OH238682   2.533   1.943  12.051  0.5373 -0.2600  0.3543
 5756TIP3    H138683   2.542   1.977  11.962  1.7712 -1.4573  0.0051
 5756TIP3    H238684   2.508   2.019  12.104 -1.6975  0.1601 -1.2591
 5757TIP3   OH238685   3.139   0.022  11.445  0.5075  0.0709  0.3091
 5757TIP3    H138686   3.053   0.035  11.486  0.4124 -0.5840  0.3241
 5757TIP3    H238687   3.200   0.066  11.504  0.1520  0.7771  0.1510
 5758TIP3   OH238688   4.264   4.010   4.578  0.4927  1.1354  0.1176
 5758TIP3    H138689   4.177   3.993   4.542  0.7928 -0.3493  0.0679
 5758TIP3    H238690   4.262   3.972   4.666  0.7791  1.9666  0.4867
 5759TIP3   OH238691   3.364   4.436  15.901  0.3502  0.4004  0.5765
 5759TIP3    H138692   3.303   4.482  15.845  0.3370  1.0752  1.1363
 5759TIP3    H238693   3.440   4.418  15.846  0.4078  1.2079  0.3996
 5760TIP3   OH238694   3.946   1.814   3.690  0.2143 -0.2031  0.0390
 5760TIP3    H138695   3.861   1.770   3.697  0.8329 -1.5400 -0.6999
 5760TIP3    H238696   3.940   1.865   3.609 -0.6955  1.5238  1.1715
 5761TIP3   OH238697   0.108   5.115   4.046 -0.1431  0.3501  0.2299
 5761TIP3    H138698   0.106   5.019   4.049 -0.2307  0.3232 -0.6077
 5761TIP3    H238699   0.017   5.141   4.054 -0.1049  0.3698  0.6105
 5762TIP3   OH238700   1.765   2.807   4.462  0.2457 -0.2826  0.2792
 5762TIP3    H138701   1.697   2.758   4.416 -0.1423  0.8252 -0.3519
 5762TIP3    H238702   1.774   2.889   4.412  2.3194 -0.5814  0.1032
 5763TIP3   OH238703   1.117   6.357   2.108  0.2749  0.1405 -0.0086
 5763TIP3    H138704   1.105   6.430   2.047 -4.1662 -1.4611 -1.3238
 5763TIP3    H238705   1.113   6.397   2.195 -2.5517  1.5316 -0.6967
 5764TIP3   OH238706   2.708   2.546  16.445  0.3318 -0.0448 -0.1542
 5764TIP3    H138707   2.748   2.593  16.518  0.8906  0.3100 -0.6838
 5764TIP3    H238708   2.770   2.557  16.372 -1.8094  2.5185 -1.6594
 5765TIP3   OH238709   3.836   5.548   3.510 -0.0298  0.2045  0.6642
 5765TIP3    H138710   3.803   5.631   3.477  0.4216 -0.4763 -1.5794
 5765TIP3    H238711   3.762   5.508   3.555 -0.2792  1.7393  1.6445
 5766TIP3   OH238712   2.701   5.999  14.783 -0.2629 -0.5207  0.1621
 5766TIP3    H138713   2.616   6.006  14.826 -0.0677  0.2515  0.4317
 5766TIP3    H238714   2.712   5.905  14.767 -0.6587 -0.7394  1.1445
 5767TIP3   OH238715   2.063   5.183  10.942 -0.7666 -0.0246 -0.5935
 5767TIP3    H138716   2.091   5.107  10.891 -0.5637  0.6896 -1.5626
 5767TIP3    H238717   2.044   5.148  11.029 -0.8136 -1.2061 -1.0680
 5768TIP3   OH238718   4.433   4.363   1.316  0.0756  0.2830  0.1683
 5768TIP3    H138719   4.351   4.321   1.290 -1.0326  0.4476  3.1839
 5768TIP3    H238720   4.491   4.290   1.337 -0.0007  0.1816  0.0313
 5769TIP3   OH238721   2.550   4.339  15.925  0.0389 -0.8953 -0.2393
 5769TIP3    H138722   2.472   4.359  15.976 -0.4510 -0.1252 -1.2604
 5769TIP3    H238723   2.526   4.361  15.835  1.9224  0.8122 -0.3645
 5770TIP3   OH238724   3.384   4.966   0.349 -0.5792 -0.5964 -0.3404
 5770TIP3    H138725   3.438   5.040   0.323 -1.6984  0.5687  0.5996
 5770TIP3    H238726   3.445   4.902   0.384  0.1551  0.8453  1.0423
 5771TIP3   OH238727   3.743   5.979   6.057 -0.0498  1.1035  0.4410
 5771TIP3    H138728   3.676   5.912   6.045 -1.6756  2.5098  1.3962
 5771TIP3    H238729   3.810   5.936   6.111 -0.5281 -0.0880  0.1070
 5772TIP3   OH238730   3.077   2.782   1.231  0.1867 -0.1221 -0.1483
 5772TIP3    H138731   3.034   2.816   1.153 -0.3059 -0.0749  0.1390
 5772TIP3    H238732   3.130   2.709   1.199 -1.1987 -1.0829 -0.3150
 5773TIP3   OH238733   0.250   1.194  11.851  0.4519  0.4916  0.7335
 5773TIP3    H138734   0.326   1.188  11.909  0.5197  1.3170  0.7498
 5773TIP3    H238735   0.197   1.117  11.870  2.1205 -0.9833 -0.4743
 5774TIP3   OH238736   6.334   2.020   3.516 -0.3797  0.1691 -0.8481
 5774TIP3    H138737   6.429   2.018   3.517 -0.3869 -0.2307 -0.2425
 5774TIP3    H238738   6.309   1.984   3.601 -1.0554  1.6462 -0.4057
 5775TIP3   OH238739   3.503   1.748   2.975  0.8901 -0.7300 -0.3051
 5775TIP3    H138740   3.552   1.798   3.040  2.2514 -0.5316 -1.4512
 5775TIP3    H238741   3.435   1.704   3.025  0.6705  0.9910  0.9592
 5776TIP3   OH238742   5.919   6.634   3.918 -0.4658 -0.7316  0.0086
 5776TIP3    H138743   5.882   6.582   3.846  1.7113 -0.9572 -1.0041
 5776TIP3    H238744   5.957   6.710   3.875  1.0832 -0.9923  0.8766
 5777TIP3   OH238745   1.349   0.332  13.734  0.3902  0.2326  0.2481
 5777TIP3    H138746   1.289   0.297  13.668  0.3561 -0.7112  0.7648
 5777TIP3    H238747   1.315   0.298  13.817  0.7863  0.9128  0.6907
 5778TIP3   OH238748   0.531   2.887  16.256  0.4119 -0.6895  0.1787
 5778TIP3    H138749   0.610   2.931  16.225  0.3644  0.8990  2.1983
 5778TIP3    H238750   0.563   2.808  16.299  0.9188  0.0049  1.0901
 5779TIP3   OH238751   5.222   1.282  15.143 -0.3550 -0.4263 -0.2018
 5779TIP3    H138752   5.266   1.367  15.135 -0.0265 -0.3596  1.9358
 5779TIP3    H238753   5.275   1.234  15.206 -1.6354 -1.4899  0.0723
 5780TIP3   OH238754   6.760   6.142   6.167 -0.3860  0.3665 -0.4711
 5780TIP3    H138755   6.713   6.203   6.225 -0.7858 -0.8316  0.4917
 5780TIP3    H238756   6.692   6.108   6.108 -0.0387  1.3388 -1.4481
 5781TIP3   OH238757   2.216   1.837   3.329  0.5766  0.1708 -0.2653
 5781TIP3    H138758   2.192   1.827   3.236  0.7659 -1.8802 -0.0932
 5781TIP3    H238759   2.136   1.815   3.376  0.3433  1.6679  0.0752
 5782TIP3   OH238760   4.503   3.958  14.697 -0.0649  0.5927  0.1174
 5782TIP3    H138761   4.426   4.000  14.734 -0.2048  1.5159 -1.1622
 5782TIP3    H238762   4.528   4.015  14.623 -0.6334 -1.8751 -2.0611
 5783TIP3   OH238763   0.504   0.070  11.146 -0.7931  0.2991  0.1859
 5783TIP3    H138764   0.469   0.126  11.215 -0.8349 -0.4124  0.7491
 5783TIP3    H238765   0.446  -0.005  11.144  1.2180 -1.3913  1.8357
 5784TIP3   OH238766   3.539   6.629   5.481  0.1592 -0.3955 -0.1376
 5784TIP3    H138767   3.455   6.587   5.499  0.3963 -1.6321 -1.8155
 5784TIP3    H238768   3.515   6.713   5.440 -0.2876  0.6838  2.2523
 5785TIP3   OH238769   1.600   1.119   3.173 -0.4881 -0.2761  0.5153
 5785TIP3    H138770   1.557   1.203   3.187  0.1177  0.2287 -0.5278
 5785TIP3    H238771   1.684   1.128   3.218  1.7339  1.5850 -3.6946
 5786TIP3   OH238772   2.904   5.417   0.176  0.3451 -0.1217  0.5617
 5786TIP3    H138773   2.844   5.371   0.234  0.2746 -2.1886 -1.0793
 5786TIP3    H238774   2.884   5.383   0.089  2.3725  0.7978 -0.3113
 5787TIP3   OH238775   6.703   6.156   1.563 -0.1151  0.2627  0.6522
 5787TIP3    H138776   6.690   6.248   1.541  1.1224  0.0991 -0.8550
 5787TIP3    H238777   6.696   6.152   1.658 -0.4401  1.8636  0.6978
 5788TIP3   OH238778   2.909   2.102  14.349 -0.3069 -0.2867 -0.2237
 5788TIP3    H138779   2.905   2.009  14.370  2.3465 -0.1699  1.0060
 5788TIP3    H238780   2.903   2.105  14.254 -0.5563 -1.6915 -0.2684
 5789TIP3   OH238781   0.075   3.208  12.643 -0.3261  0.0960  1.0316
 5789TIP3    H138782  -0.009   3.250  12.624  0.7778  2.2796  0.8658
 5789TIP3    H238783   0.088   3.221  12.737 -0.6135 -1.1176  1.2569
 5790TIP3   OH238784   3.179   5.336   4.853  0.5857 -0.0057 -0.2721
 5790TIP3    H138785   3.201   5.291   4.934  0.7019 -0.8782 -0.7795
 5790TIP3    H238786   3.206   5.276   4.784 -1.9016 -0.4210 -0.9347
 5791TIP3   OH238787   1.846   0.898  14.405  0.4215  0.1909 -0.6028
 5791TIP3    H138788   1.917   0.868  14.348 -1.1824 -0.8443 -2.0811
 5791TIP3    H238789   1.780   0.829  14.401  0.7758 -0.5561  3.5532
 5792TIP3   OH238790   2.868   1.260  15.780  0.1194 -0.1638 -0.1384
 5792TIP3    H138791   2.906   1.318  15.846  0.8194  1.5985 -2.0554
 5792TIP3    H238792   2.773   1.264  15.796  0.1162  1.9051 -0.5508
 5793TIP3   OH238793   3.496   1.841   0.843  0.4264  0.0464  0.3497
 5793TIP3    H138794   3.574   1.892   0.864  0.1825  0.7341 -0.3966
 5793TIP3    H238795   3.460   1.883   0.764 -0.4415 -0.5374  0.4274
 5794TIP3   OH238796   4.888   2.461  14.171  0.0252  0.0180 -0.7414
 5794TIP3    H138797   4.916   2.462  14.262  2.5200 -0.0283 -1.4568
 5794TIP3    H238798   4.865   2.370  14.154  0.3837 -0.1428 -0.3739
 5795TIP3   OH238799   4.952   0.470  15.068 -0.3069 -0.3038  0.7538
 5795TIP3    H138800   5.028   0.413  15.056 -0.4079 -0.5617  1.3142
 5795TIP3    H238801   4.886   0.414  15.110 -0.8882 -0.1425  0.0536
 5796TIP3   OH238802   1.757   1.338   5.127 -0.2146  0.5128  0.0309
 5796TIP3    H138803   1.843   1.343   5.167 -0.4043 -0.3861  0.5489
 5796TIP3    H238804   1.752   1.250   5.091 -1.4280  0.1063  1.1641
 5797TIP3   OH238805   5.144   4.126   4.883 -0.1071 -0.0936 -0.4645
 5797TIP3    H138806   5.081   4.084   4.824 -1.2982  0.4955  0.3881
 5797TIP3    H238807   5.196   4.053   4.917 -0.3423 -0.5825 -1.1304
 5798TIP3   OH238808   0.621   3.814  14.601  0.8950 -0.3551  0.0275
 5798TIP3    H138809   0.674   3.843  14.527 -0.5602  0.1175 -0.8543
 5798TIP3    H238810   0.566   3.745  14.565  0.9514 -0.8938  0.9524
 5799TIP3   OH238811   4.687   2.515   3.064  0.2913  0.5861  0.3935
 5799TIP3    H138812   4.627   2.562   3.121  0.5957  2.7264 -1.0028
 5799TIP3    H238813   4.770   2.562   3.074  0.8263 -0.2034 -0.3499
 5800TIP3   OH238814   2.935   2.417   1.865  0.6836 -0.5716  0.4666
 5800TIP3    H138815   2.994   2.483   1.903  0.6065 -0.2127 -0.0443
 5800TIP3    H238816   2.852   2.431   1.911 -0.0319  1.2760 -1.3254
 5801TIP3   OH238817   0.995   3.383  13.095  0.1759  0.2429  0.3942
 5801TIP3    H138818   1.046   3.366  13.015 -0.2289  0.3001  0.1218
 5801TIP3    H238819   1.059   3.416  13.157  0.9919 -2.1776  0.9236
 5802TIP3   OH238820   6.393   2.881  16.438  0.5704  0.0667  0.1463
 5802TIP3    H138821   6.453   2.934  16.385  0.1134  1.9549  1.4720
 5802TIP3    H238822   6.320   2.860  16.380  0.0888  2.0940 -0.0078
 5803TIP3   OH238823   4.768   3.085   0.267 -0.1064  0.3457  0.6067
 5803TIP3    H138824   4.722   3.154   0.316  0.2463 -0.4059  2.0104
 5803TIP3    H238825   4.839   3.058   0.324 -0.6676 -1.6983  0.3674
 5804TIP3   OH238826   4.399   3.661  16.991  0.4210  0.1468  0.1015
 5804TIP3    H138827   4.316   3.705  16.973 -0.5462 -1.9987 -0.8857
 5804TIP3    H238828   4.461   3.702  16.931 -0.2818  0.6542 -0.2917
 5805TIP3   OH238829   0.102   5.665  11.885  0.3817  0.3394 -0.1297
 5805TIP3    H138830   0.056   5.588  11.916  0.2604  0.2829 -0.4391
 5805TIP3    H238831   0.051   5.695  11.809  0.3679  0.7820  0.0519
 5806TIP3   OH238832   5.541   0.829  15.536 -0.1763 -0.4913  0.1387
 5806TIP3    H138833   5.579   0.900  15.588 -0.4831  1.2588 -1.9376
 5806TIP3    H238834   5.448   0.828  15.561 -0.4745  0.8180 -0.8080
 5807TIP3   OH238835   0.650   1.643  10.859 -0.3367 -0.0352 -0.2757
 5807TIP3    H138836   0.707   1.668  10.932 -1.3593 -0.6393  0.7463
 5807TIP3    H238837   0.627   1.552  10.876 -1.4554  0.1438 -0.7676
 5808TIP3   OH238838   3.648   2.903   3.427 -0.3841  0.2513  0.2799
 5808TIP3    H138839   3.560   2.899   3.465 -0.1396  1.9157  1.0904
 5808TIP3    H238840   3.701   2.845   3.481 -0.3831  1.4048  1.5486
 5809TIP3   OH238841   0.756   1.847  13.145 -0.5100 -0.3523  0.3157
 5809TIP3    H138842   0.768   1.757  13.176  1.2485  0.2501  1.5001
 5809TIP3    H238843   0.779   1.844  13.052 -0.4047 -1.1160  0.3633
 5810TIP3   OH238844   0.140   0.055   3.753 -0.2106  0.9309  0.3837
 5810TIP3    H138845   0.062   0.003   3.772  0.5530 -1.1625 -1.9434
 5810TIP3    H238846   0.117   0.104   3.673  1.8261 -2.0751 -2.1843
 5811TIP3   OH238847   1.043   1.825   1.324  0.1673  0.0593  0.3607
 5811TIP3    H138848   1.136   1.842   1.333 -0.0070  1.0049  0.4850
 5811TIP3    H238849   1.036   1.768   1.248  1.0429 -2.0225  1.8027
 5812TIP3   OH238850   1.333   5.383   4.416 -0.5352 -0.4021 -0.4929
 5812TIP3    H138851   1.385   5.305   4.432  0.1552  0.2275  0.4126
 5812TIP3    H238852   1.380   5.430   4.347  0.1384  0.1739  0.3346
 5813TIP3   OH238853   0.643   0.193  15.784 -0.2077 -0.2702  0.3310
 5813TIP3    H138854   0.667   0.282  15.810 -0.4847  0.2444 -1.1160
 5813TIP3    H238855   0.547   0.194  15.780 -0.1858 -0.4675 -0.2630
 5814TIP3   OH238856   1.468   3.179  13.270  0.0303  0.0416  0.4105
 5814TIP3    H138857   1.499   3.092  13.293  1.9076  0.8445  0.9443
 5814TIP3    H238858   1.447   3.172  13.177 -1.2708 -1.3729  0.7782
 5815TIP3   OH238859   5.507   4.514   0.493 -0.2929  0.2326  0.2022
 5815TIP3    H138860   5.602   4.528   0.495 -0.2150 -0.3989  1.4799
 5815TIP3    H238861   5.485   4.487   0.582 -1.5363 -0.4944 -0.3122
 5816TIP3   OH238862   0.181   5.700   3.939  0.1706  0.0147  0.4549
 5816TIP3    H138863   0.212   5.761   4.006 -0.4129 -0.4945  1.1880
 5816TIP3    H238864   0.211   5.738   3.856  2.2423 -0.1449  1.1046
 5817TIP3   OH238865   5.478   4.700   0.276 -0.2158 -0.3154 -0.3038
 5817TIP3    H138866   5.560   4.698   0.227  0.6742  1.8077  1.0341
 5817TIP3    H238867   5.496   4.649   0.355 -0.4468 -0.5168 -0.3798
 5818TIP3   OH238868   3.158   0.104  12.596  0.1866  0.3402  0.4220
 5818TIP3    H138869   3.199   0.064  12.519 -0.8621 -0.4693  0.2668
 5818TIP3    H238870   3.228   0.109  12.661  0.5177 -1.1614  0.2090
 5819TIP3   OH238871   3.267   0.128   1.194  0.2741  0.1315  0.0539
 5819TIP3    H138872   3.251   0.152   1.285 -0.8868  0.2187 -0.1769
 5819TIP3    H238873   3.273   0.032   1.196 -0.1826  0.1040  0.1524
 5820TIP3   OH238874   1.535   3.005   3.717  0.2768 -0.5353  0.3011
 5820TIP3    H138875   1.489   3.087   3.739  0.4117  0.3229 -2.5088
 5820TIP3    H238876   1.624   3.019   3.749  0.3316  0.4512 -0.2711
 5821TIP3   OH238877   6.720   1.056  14.830  0.0581  0.1441  0.1915
 5821TIP3    H138878   6.710   0.961  14.840 -0.9115  0.1008 -1.0693
 5821TIP3    H238879   6.682   1.092  14.911  0.3067 -0.5330  0.6138
 5822TIP3   OH238880   5.254   6.523   5.416 -0.1393  0.8193  0.8660
 5822TIP3    H138881   5.330   6.506   5.472  0.4363  0.8598  0.1207
 5822TIP3    H238882   5.265   6.613   5.387 -0.4854  0.8341  0.7804
 5823TIP3   OH238883   4.618   5.589  13.632  0.3723 -0.3701 -0.3753
 5823TIP3    H138884   4.535   5.548  13.607  1.3520 -2.2100 -0.7025
 5823TIP3    H238885   4.615   5.592  13.728 -0.0828 -0.3845 -0.3870
 5824TIP3   OH238886   3.933   3.241   6.024  0.5433 -0.0409  0.7117
 5824TIP3    H138887   3.997   3.278   5.964 -0.3445  0.0834 -0.1827
 5824TIP3    H238888   3.984   3.211   6.099  1.6297  0.1204  0.0456
 5825TIP3   OH238889   6.749   0.591  16.716 -0.3633  1.1477 -0.5411
 5825TIP3    H138890   6.663   0.619  16.747 -0.9041  2.4439 -3.1400
 5825TIP3    H238891   6.810   0.659  16.747 -0.5948  1.3911 -0.6244
 5826TIP3   OH238892   1.310   2.935   0.885  0.0593 -0.3098 -0.3089
 5826TIP3    H138893   1.288   2.932   0.792 -1.4439  0.4870 -0.0016
 5826TIP3    H238894   1.266   2.859   0.923 -1.8222  0.9959  0.2190
 5827TIP3   OH238895   6.023   2.512  13.982 -0.1872  0.0447 -0.0184
 5827TIP3    H138896   5.943   2.530  14.032 -0.6824  1.6855 -1.3359
 5827TIP3    H238897   5.993   2.466  13.904  0.2965 -0.3783  0.0436
 5828TIP3   OH238898   4.863   0.510  15.453 -0.0189  0.0524 -0.0133
 5828TIP3    H138899   4.869   0.518  15.548 -0.6616  2.9638 -0.1668
 5828TIP3    H238900   4.934   0.565  15.420 -1.1394  0.7926 -1.2248
 5829TIP3   OH238901   1.982   4.285  16.124 -0.1684  0.1737  0.0955
 5829TIP3    H138902   1.927   4.273  16.201  0.9519  0.6285  0.9960
 5829TIP3    H238903   1.957   4.371  16.091 -1.2193 -0.3688 -0.5285
 5830TIP3   OH238904   5.664   2.979   2.708  0.4633  0.1068  0.1168
 5830TIP3    H138905   5.744   2.964   2.658  0.2233 -0.3695 -0.1310
 5830TIP3    H238906   5.679   2.932   2.790 -0.4891 -1.9892 -0.8604
 5831TIP3   OH238907   0.085   6.727  15.760  0.7771 -0.3571  0.0610
 5831TIP3    H138908   0.002   6.771  15.783 -0.3782 -2.8156  0.7608
 5831TIP3    H238909   0.150   6.768  15.817 -0.4492 -0.1505  1.3464
 5832TIP3   OH238910   5.087   6.600   4.844  0.3016  0.0196  0.0151
 5832TIP3    H138911   5.017   6.584   4.908  1.1652 -0.8739  0.7472
 5832TIP3    H238912   5.143   6.523   4.849 -0.0642 -0.4599 -2.4558
 5833TIP3   OH238913   3.354   6.217  13.146 -0.5693 -0.2963  0.0126
 5833TIP3    H138914   3.306   6.143  13.108 -3.5580  1.4564  0.2162
 5833TIP3    H238915   3.327   6.292  13.094 -0.4189  1.2405  2.1245
 5834TIP3   OH238916   1.340   4.247  17.063 -0.4293 -0.5617  0.3378
 5834TIP3    H138917   1.249   4.274  17.048 -0.3647 -1.3900 -1.6868
 5834TIP3    H238918   1.381   4.323  17.105 -1.1697  1.1414 -1.9386
 5835TIP3   OH238919   4.495   3.250   2.626  0.0759 -0.3173 -0.0455
 5835TIP3    H138920   4.509   3.248   2.531  0.5638  0.5380  0.0069
 5835TIP3    H238921   4.514   3.340   2.651 -0.1127 -0.5279  0.8617
 5836TIP3   OH238922   5.472   6.295  16.117  0.0376  0.2121  0.2157
 5836TIP3    H138923   5.414   6.365  16.148 -0.6970 -1.0239  1.6907
 5836TIP3    H238924   5.501   6.250  16.197  0.0687 -1.5090 -0.7345
 5837TIP3   OH238925   1.262   3.902   3.946 -0.5943 -0.6528  0.1017
 5837TIP3    H138926   1.313   3.901   4.027  1.3880 -3.6542 -1.1059
 5837TIP3    H238927   1.305   3.967   3.891 -1.0929  0.3689  0.8962
 5838TIP3   OH238928   5.162   1.972   2.116  0.7323  0.0912 -0.4483
 5838TIP3    H138929   5.158   2.045   2.177 -0.2561  0.5491 -1.0557
 5838TIP3    H238930   5.224   1.911   2.156 -1.2650 -0.4572  1.9016
 5839TIP3   OH238931   1.099   6.088  16.457  0.3640 -0.0894  0.5575
 5839TIP3    H138932   1.022   6.062  16.507  0.3701 -0.0336  0.5962
 5839TIP3    H238933   1.107   6.182  16.472  1.2479 -0.3296  1.6585
 5840TIP3   OH238934   6.505   1.259  13.818  0.1292 -0.2739 -0.3462
 5840TIP3    H138935   6.459   1.267  13.901  1.1870 -1.0834  0.3278
 5840TIP3    H238936   6.491   1.343  13.774 -1.7661 -0.4129 -0.0542
 5841TIP3   OH238937   0.691   0.253  16.479 -0.1349 -0.0519  0.2689
 5841TIP3    H138938   0.629   0.226  16.547  1.2769 -0.9843  1.2137
 5841TIP3    H238939   0.703   0.346  16.493 -0.6749 -0.0313  0.6127
 5842TIP3   OH238940   5.842   1.731  12.626  0.1042 -0.4370  0.4139
 5842TIP3    H138941   5.826   1.639  12.609 -0.3538 -0.2124 -0.4052
 5842TIP3    H238942   5.857   1.769  12.539  3.1014 -0.2677  0.9457
 5843TIP3   OH238943   1.886   2.415   1.987 -0.5112  0.4345 -0.4828
 5843TIP3    H138944   1.851   2.327   1.973 -0.4027 -0.1536  2.6011
 5843TIP3    H238945   1.981   2.403   1.986 -0.4982  0.3249  0.8297
 5844TIP3   OH238946   1.802   5.777  13.863 -0.4412 -0.2620  0.0938
 5844TIP3    H138947   1.845   5.843  13.809 -1.3581 -0.7238 -1.2188
 5844TIP3    H238948   1.724   5.820  13.897 -0.0448 -0.0787  0.7831
 5845TIP3   OH238949   5.931   0.400  11.687  0.5620  0.6916 -0.0919
 5845TIP3    H138950   5.992   0.458  11.733  1.5618 -1.0965  0.8919
 5845TIP3    H238951   5.855   0.455  11.669  1.8554  2.5704 -0.0291
 5846TIP3   OH238952   5.087   0.067   2.116  0.4715 -0.3648  0.0990
 5846TIP3    H138953   5.111   0.013   2.041 -1.7894 -1.6056  0.2266
 5846TIP3    H238954   5.059   0.151   2.077  1.5303 -0.1826 -0.2742
 5847TIP3   OH238955   2.452   1.686  13.249  0.0005 -0.3612  0.4631
 5847TIP3    H138956   2.359   1.664  13.250 -0.4065  1.3768  1.8453
 5847TIP3    H238957   2.475   1.687  13.156 -2.0848  2.1108 -0.0883
 5848TIP3   OH238958   2.688   1.030   1.050 -0.1927 -0.6737 -0.5709
 5848TIP3    H138959   2.615   0.991   1.098 -0.2664  1.0098  0.7468
 5848TIP3    H238960   2.647   1.081   0.980 -0.3858  1.4598  1.0593
 5849TIP3   OH238961   5.178   3.768   2.700  0.4731  0.1468  0.0218
 5849TIP3    H138962   5.252   3.722   2.660  1.3408  1.8322 -0.3243
 5849TIP3    H238963   5.157   3.837   2.638 -2.4160 -1.2401 -0.6599
 5850TIP3   OH238964   0.335   2.659  11.282  0.1390  0.0651 -0.2382
 5850TIP3    H138965   0.339   2.564  11.289 -0.3391 -0.0157 -1.0520
 5850TIP3    H238966   0.426   2.688  11.293  0.2835 -0.4805  0.0057
 5851TIP3   OH238967   3.167   0.461   0.653 -0.0137  0.4525 -0.0435
 5851TIP3    H138968   3.202   0.542   0.616  0.1949  2.0340  3.4582
 5851TIP3    H238969   3.245   0.407   0.669  0.0630  0.5634 -0.0439
 5852TIP3   OH238970   3.329   1.279   4.929  0.2173  0.2670 -0.2889
 5852TIP3    H138971   3.274   1.209   4.895  0.2779  0.7286 -1.3567
 5852TIP3    H238972   3.280   1.314   5.004  0.9812 -2.0201  1.3441
 5853TIP3   OH238973   2.672   5.495  10.621  0.0088 -0.1003  0.0921
 5853TIP3    H138974   2.686   5.540  10.704  2.0422  0.5166 -0.5666
 5853TIP3    H238975   2.704   5.406  10.636 -0.8311 -0.3666  0.3476
 5854TIP3   OH238976   4.388   6.487  13.714  0.1689 -0.2016  0.3058
 5854TIP3    H138977   4.320   6.468  13.779 -0.8861 -0.0895 -0.7505
 5854TIP3    H238978   4.413   6.577  13.732  0.9542 -0.6409  1.5101
 5855TIP3   OH238979   2.827   4.958   1.066 -0.2877 -0.2785 -0.0922
 5855TIP3    H138980   2.880   5.013   1.123  0.4783  0.9820 -1.9742
 5855TIP3    H238981   2.873   4.874   1.063  0.8755  0.3642 -0.6132
 5856TIP3   OH238982   2.440   6.348   6.281  0.1352 -0.0165 -0.2764
 5856TIP3    H138983   2.492   6.268   6.289 -1.0928 -0.6404  2.1132
 5856TIP3    H238984   2.500   6.418   6.308 -0.1075 -0.6931  2.1642
 5857TIP3   OH238985   5.713   0.531   5.082 -0.5822  0.1617 -0.3058
 5857TIP3    H138986   5.705   0.461   5.017 -1.0336  0.8923 -1.0343
 5857TIP3    H238987   5.661   0.603   5.047 -2.0741  0.0373  1.5827
 5858TIP3   OH238988   5.227   0.169  13.362 -0.0840  0.5946  0.2972
 5858TIP3    H138989   5.191   0.257  13.374 -0.7422  0.3740 -0.0033
 5858TIP3    H238990   5.183   0.136  13.284  1.2889  0.5637 -0.4722
 5859TIP3   OH238991   4.623   4.172  14.509  0.0978 -0.5006 -0.3872
 5859TIP3    H138992   4.646   4.239  14.446 -2.7109  0.1271 -0.7913
 5859TIP3    H238993   4.586   4.219  14.583 -2.1366 -1.5975 -0.7778
 5860TIP3   OH238994   0.184   4.582   2.265 -0.0584 -0.2548 -0.3855
 5860TIP3    H138995   0.224   4.656   2.310 -0.1359 -0.1530 -0.4846
 5860TIP3    H238996   0.256   4.540   2.219 -0.1734  0.2874 -1.0651
 5861TIP3   OH238997   2.680   1.545   0.823 -0.2522 -0.1359  0.3673
 5861TIP3    H138998   2.714   1.614   0.766  0.6397  0.1938  1.3024
 5861TIP3    H238999   2.707   1.464   0.780 -2.2721  0.0423 -1.3402
 5862TIP3   OH239000   4.810   1.787  15.361  0.2795 -0.2467 -0.2623
 5862TIP3    H139001   4.860   1.762  15.439 -0.8770 -0.5912  0.3777
 5862TIP3    H239002   4.726   1.742  15.371 -0.1539  0.3129 -1.3386
 5863TIP3   OH239003   0.951   2.534  16.329  0.0452 -0.4186  0.3120
 5863TIP3    H139004   0.886   2.528  16.400 -0.2496  0.7717  0.1559
 5863TIP3    H239005   0.957   2.628  16.310  1.0678 -0.6123 -0.3761
 5864TIP3   OH239006   3.331   1.215  15.105  0.1983 -0.0602  0.3394
 5864TIP3    H139007   3.373   1.275  15.167 -1.1614  0.2407  0.9853
 5864TIP3    H239008   3.244   1.253  15.090  0.5870  0.0280 -1.9748
 5865TIP3   OH239009   2.361   6.545   5.739 -0.5720  0.3185 -0.0054
 5865TIP3    H139010   2.322   6.500   5.814 -2.4046  1.7110 -0.1055
 5865TIP3    H239011   2.452   6.514   5.738 -0.7025 -0.2534  2.3678
 5866TIP3   OH239012   2.061   3.492   5.916  0.1262 -0.4018  0.0282
 5866TIP3    H139013   1.978   3.495   5.964  1.0185  1.4649  1.5106
 5866TIP3    H239014   2.128   3.479   5.984  1.1777 -0.3715 -0.9926
 5867TIP3   OH239015   5.274   4.527   0.763 -0.3298 -0.0444 -0.2054
 5867TIP3    H139016   5.254   4.578   0.685 -0.5835  1.2001  0.6572
 5867TIP3    H239017   5.362   4.554   0.788 -0.8983  0.8434  0.9016
 5868TIP3   OH239018   4.751   1.564   1.623  0.3076  0.4156 -0.2956
 5868TIP3    H139019   4.788   1.652   1.617  0.5075  0.2392 -1.8280
 5868TIP3    H239020   4.799   1.513   1.558 -1.5924 -0.1726 -1.2889
 5869TIP3   OH239021   5.042   5.569  12.172 -0.1621  0.6062  0.9061
 5869TIP3    H139022   4.952   5.544  12.150  0.4594 -0.3641 -0.5694
 5869TIP3    H239023   5.058   5.529  12.257 -0.4569 -0.9110  0.2574
 5870TIP3   OH239024   2.816   4.360   5.810 -0.0051 -0.2880 -0.1263
 5870TIP3    H139025   2.907   4.338   5.829 -0.6162 -0.8381  2.3203
 5870TIP3    H239026   2.817   4.455   5.796  1.0863 -0.4342 -1.1389
 5871TIP3   OH239027   2.973   2.883   4.831  0.7978 -0.5418 -0.5771
 5871TIP3    H139028   3.001   2.870   4.922 -0.2083 -0.0978 -0.1981
 5871TIP3    H239029   3.053   2.911   4.785  0.9299  0.9986  0.5542
 5872TIP3   OH239030   3.195   3.870   0.332 -0.3077  0.4352  0.1695
 5872TIP3    H139031   3.160   3.805   0.272 -1.0512  1.4875 -0.5424
 5872TIP3    H239032   3.120   3.901   0.382  0.2713 -0.2826  1.5110
 5873TIP3   OH239033   4.368   2.741   5.617  0.3906 -0.0362 -0.1721
 5873TIP3    H139034   4.292   2.691   5.587  0.6435 -1.1616  1.0257
 5873TIP3    H239035   4.332   2.813   5.668  0.1432 -1.1221  1.2143
 5874TIP3   OH239036   3.481   2.581   3.899 -0.2561 -0.1351  0.5049
 5874TIP3    H139037   3.472   2.669   3.862  0.2118  0.8173  2.6085
 5874TIP3    H239038   3.415   2.529   3.852 -1.1664  1.5422 -0.1096
 5875TIP3   OH239039   1.960   5.555   3.357  0.6589 -0.1394  0.3558
 5875TIP3    H139040   1.996   5.518   3.438 -0.7265  1.2609  1.6420
 5875TIP3    H239041   2.017   5.630   3.338  2.1869 -1.6084 -1.0990
 5876TIP3   OH239042   3.050   4.283  12.620 -0.2886 -0.2618  0.2210
 5876TIP3    H139043   3.041   4.338  12.697 -2.6700  1.6703 -1.3593
 5876TIP3    H239044   2.975   4.223  12.624 -1.6840  1.2944 -1.6668
 5877TIP3   OH239045   6.246   1.741   4.314 -0.0275 -0.1614 -0.3370
 5877TIP3    H139046   6.152   1.724   4.321 -0.1720  0.7775  0.2169
 5877TIP3    H239047   6.284   1.699   4.391 -0.1768  0.5878  0.1597
 5878TIP3   OH239048   4.357   1.608  15.638  0.0454  0.1746 -0.6315
 5878TIP3    H139049   4.411   1.560  15.701 -0.4130 -0.2073 -0.5288
 5878TIP3    H239050   4.358   1.699  15.670 -0.8847 -0.1739  0.4095
 5879TIP3   OH239051   6.674   5.489   4.528  0.5438 -0.0047 -0.1415
 5879TIP3    H139052   6.770   5.498   4.527  0.4173  1.4926  0.0115
 5879TIP3    H239053   6.642   5.577   4.509 -0.8214 -0.0463  1.7824
 5880TIP3   OH239054   1.926   0.149  12.219  0.7542  0.1873 -0.8817
 5880TIP3    H139055   1.905   0.195  12.138 -0.6493 -0.0828 -0.6977
 5880TIP3    H239056   1.949   0.218  12.281 -0.8303  0.6280 -0.7563
 5881TIP3   OH239057   2.992   5.121  11.663  0.0531 -0.0742 -0.2623
 5881TIP3    H139058   2.907   5.114  11.620 -0.7090 -2.0365  1.4582
 5881TIP3    H239059   2.975   5.172  11.742 -0.2629 -3.0852  1.7128
 5882TIP3   OH239060   2.100   0.908   1.190 -0.4069 -0.4513 -0.2436
 5882TIP3    H139061   2.161   0.887   1.119  1.2065  0.9138  0.6957
 5882TIP3    H239062   2.096   1.004   1.190 -1.5360 -0.4878  0.5701
 5883TIP3   OH239063   6.601   0.082  12.937  0.2140  0.6026  0.5806
 5883TIP3    H139064   6.658   0.117  13.005 -1.4532  0.3315  2.1773
 5883TIP3    H239065   6.514   0.081  12.978 -0.9764  1.2591 -1.8624
 5884TIP3   OH239066   1.493   1.919   2.207  0.3411 -0.2297  0.2676
 5884TIP3    H139067   1.538   2.002   2.195 -1.1193  0.2844 -2.0560
 5884TIP3    H239068   1.546   1.871   2.270  0.7304  2.7965  2.3198
 5885TIP3   OH239069   3.060   4.634  16.533  0.1107  0.4706 -0.6605
 5885TIP3    H139070   3.011   4.555  16.553 -1.7834  1.3842 -1.6149
 5885TIP3    H239071   3.090   4.622  16.443  2.7978 -0.6486  0.3381
 5886TIP3   OH239072   6.067   0.212  14.225  0.3445 -0.1954 -0.3856
 5886TIP3    H139073   5.994   0.153  14.243  2.7202 -2.6509  1.6266
 5886TIP3    H239074   6.131   0.157  14.179  3.1127  0.4598  2.5535
 5887TIP3   OH239075   1.835   2.541  11.674  0.4713 -0.0470 -0.4707
 5887TIP3    H139076   1.902   2.483  11.708  1.2651  2.0084  1.6504
 5887TIP3    H239077   1.881   2.600  11.614 -0.3986 -1.7744 -2.9285
 5888TIP3   OH239078   4.754   5.296  11.621  0.2894  1.1091  0.4215
 5888TIP3    H139079   4.771   5.380  11.578 -2.1293  0.6300 -1.6107
 5888TIP3    H239080   4.661   5.298  11.642  0.2158 -1.0240  0.4164
 5889TIP3   OH239081   2.934   1.224  11.868  0.2690 -0.1046 -0.2455
 5889TIP3    H139082   2.994   1.163  11.911  0.0206 -0.4913 -0.4498
 5889TIP3    H239083   2.988   1.301  11.848  0.5272 -0.1650  0.2158
 5890TIP3   OH239084   5.418   3.532   1.762 -0.0136  0.6430  0.4669
 5890TIP3    H139085   5.344   3.501   1.710  2.0311 -2.1399 -0.9444
 5890TIP3    H239086   5.412   3.483   1.844 -0.7208  1.7397  1.0797
 5891TIP3   OH239087   3.884   4.450  15.479  0.3311 -0.1166  0.0744
 5891TIP3    H139088   3.907   4.359  15.498 -2.4580 -0.4279  2.1674
 5891TIP3    H239089   3.849   4.484  15.561 -2.1222  1.7275 -1.6638
 5892TIP3   OH239090   0.360   4.910  12.810  0.2015  0.0486  0.0761
 5892TIP3    H139091   0.347   4.896  12.904  0.9431 -0.1323  0.1607
 5892TIP3    H239092   0.413   4.990  12.805  1.9430 -1.0944 -0.0841
 5893TIP3   OH239093   2.444   1.675  16.060  0.2076 -0.1685 -0.0820
 5893TIP3    H139094   2.492   1.628  16.129  0.0230  0.5806  0.5696
 5893TIP3    H239095   2.511   1.724  16.013  0.2516 -0.1913 -0.0421
 5894TIP3   OH239096   2.946   4.305  12.315 -0.1399  0.3360 -0.2760
 5894TIP3    H139097   2.898   4.357  12.380  1.8854  1.1407  0.6085
 5894TIP3    H239098   2.962   4.221  12.358 -0.7214  0.0726 -0.5649
 5895TIP3   OH239099   4.466   2.763  16.985 -0.1979  0.7620 -0.1139
 5895TIP3    H139100   4.477   2.779  16.892 -0.9507  0.9347 -0.1721
 5895TIP3    H239101   4.412   2.685  16.990 -0.5694  1.0359  0.1807
 5896TIP3   OH239102   4.904   0.022  15.512 -0.6168 -0.0825 -0.6076
 5896TIP3    H139103   4.974   0.076  15.474  0.6757 -1.4451 -0.2370
 5896TIP3    H239104   4.858  -0.013  15.437 -0.3135  0.0848 -0.8756
 5897TIP3   OH239105   0.080   5.173  13.198  0.2288 -0.4191 -0.4988
 5897TIP3    H139106   0.081   5.260  13.158  3.3082  0.7813  1.9421
 5897TIP3    H239107   0.008   5.176  13.260  0.8567  0.7293  0.1982
 5898TIP3   OH239108   3.304   4.694   1.674 -0.1520 -0.2494  0.2451
 5898TIP3    H139109   3.241   4.623   1.689 -0.8165  0.4831  0.9776
 5898TIP3    H239110   3.369   4.657   1.614 -0.6007 -1.4104  0.4745
 5899TIP3   OH239111   3.661   0.406   4.650 -0.3289  0.7903 -0.1440
 5899TIP3    H139112   3.591   0.406   4.585  0.5788  1.3484 -1.1464
 5899TIP3    H239113   3.683   0.313   4.661 -1.8098  0.5377  0.8458
 5900TIP3   OH239114   2.798   2.883  15.724  0.2691  0.1895  0.2643
 5900TIP3    H139115   2.886   2.867  15.756  0.4106  1.3898  0.5123
 5900TIP3    H239116   2.753   2.925  15.797 -0.1240  0.7403 -0.2849
 5901TIP3   OH239117   4.258   5.926  11.829  0.6445 -0.3075 -0.3927
 5901TIP3    H139118   4.180   5.899  11.780  1.6532  2.0644 -3.5263
 5901TIP3    H239119   4.328   5.868  11.798  0.4094 -1.6497  1.5250
 5902TIP3   OH239120   2.713   4.998  11.722 -0.4762  0.1180 -0.3874
 5902TIP3    H139121   2.621   5.017  11.744 -0.5342 -0.1704 -0.3755
 5902TIP3    H239122   2.732   5.056  11.649 -0.8514 -0.2422 -0.7729
 5903TIP3   OH239123   3.253   3.545   0.341 -0.6213 -0.5404 -0.8905
 5903TIP3    H139124   3.261   3.462   0.389 -2.1550 -0.2050  0.0024
 5903TIP3    H239125   3.166   3.578   0.365 -0.8653  0.3288 -2.8410
 5904TIP3   OH239126   2.993   5.837  13.909 -0.3784  0.1763 -0.2531
 5904TIP3    H139127   2.901   5.852  13.889 -0.4692 -0.4739 -0.3387
 5904TIP3    H239128   2.998   5.744  13.933  0.7226 -0.5353 -3.0430
 5905TIP3   OH239129   2.994   6.148  12.494 -0.0336  0.0087 -0.1501
 5905TIP3    H139130   3.052   6.199  12.438 -0.5197 -0.6031 -1.2304
 5905TIP3    H239131   2.906   6.174  12.468 -0.2764 -0.9884 -0.3622
 5906TIP3   OH239132   6.633   0.309  11.555 -0.5411 -0.4270 -0.0618
 5906TIP3    H139133   6.638   0.326  11.649 -0.4455 -1.5672  0.1518
 5906TIP3    H239134   6.683   0.379  11.514 -0.7272  0.1699  0.7284
 5907TIP3   OH239135   2.959   6.572   1.839 -0.0376 -0.2195  0.2149
 5907TIP3    H139136   3.040   6.522   1.833 -1.3543 -2.4019  0.0435
 5907TIP3    H239137   2.890   6.506   1.838 -1.7988  1.5447  1.0902
 5908TIP3   OH239138   3.592   1.869   2.751 -0.3162 -0.5099  0.4016
 5908TIP3    H139139   3.546   1.840   2.830 -2.9038 -1.7901 -1.5109
 5908TIP3    H239140   3.593   1.964   2.757 -3.0717 -0.4605  0.6253
 5909TIP3   OH239141   6.269   6.675   0.192  0.1340  0.0842  0.1032
 5909TIP3    H139142   6.267   6.581   0.179  0.2485  0.1701 -0.5533
 5909TIP3    H239143   6.238   6.712   0.109 -0.1458  0.6152  0.4378
 5910TIP3   OH239144   4.195   1.259   3.760 -0.1102  0.2662 -0.2371
 5910TIP3    H139145   4.176   1.204   3.685 -0.1822  0.7570 -0.5812
 5910TIP3    H239146   4.165   1.347   3.734  2.5106  1.0318 -0.7507
 5911TIP3   OH239147   6.432   4.805   0.004 -0.0773  0.1496 -0.1832
 5911TIP3    H139148   6.475   4.729   0.042  1.0492  0.8151 -0.0877
 5911TIP3    H239149   6.464   4.879   0.056 -1.7416  0.6045  0.2002
 5912TIP3   OH239150   0.460   0.901   6.043  0.5534  0.1318  0.0378
 5912TIP3    H139151   0.477   0.901   5.949  1.5202  1.8145  0.1917
 5912TIP3    H239152   0.415   0.983   6.060  1.4679  0.4053  1.2185
 5913TIP3   OH239153   2.864   0.639  16.617  0.1099  0.1065  0.0206
 5913TIP3    H139154   2.871   0.544  16.615  0.6437  0.1569 -2.1346
 5913TIP3    H239155   2.881   0.663  16.708  1.0043 -1.7905  0.3698
 5914TIP3   OH239156   0.620   5.544  13.282 -0.0368  0.0109  0.3314
 5914TIP3    H139157   0.643   5.542  13.375 -2.3645  1.2561  0.9914
 5914TIP3    H239158   0.561   5.619  13.274 -0.3805 -0.4774 -2.0384
 5915TIP3   OH239159   2.055   4.463  13.545  0.0833 -0.2843 -0.2809
 5915TIP3    H139160   2.015   4.412  13.615  1.0019 -0.7372 -0.0722
 5915TIP3    H239161   2.067   4.550  13.582  0.4298 -0.4827  0.0730
 5916TIP3   OH239162   1.094   3.949  12.045  0.7280  0.2238 -0.6106
 5916TIP3    H139163   1.045   3.878  12.086  0.9731  0.0112 -0.6861
 5916TIP3    H239164   1.037   3.979  11.974 -0.2261  1.3885  0.6274
 5917TIP3   OH239165   1.832   5.130  10.521 -0.0333 -0.4560  0.1768
 5917TIP3    H139166   1.914   5.111  10.477 -0.5244  0.5453 -1.2327
 5917TIP3    H239167   1.781   5.049  10.513  0.5191 -0.8278  0.3885
 5918TIP3   OH239168   4.876   0.872   1.125  0.8750 -0.6472  0.4922
 5918TIP3    H139169   4.831   0.792   1.099 -0.2268 -0.3522  1.4533
 5918TIP3    H239170   4.887   0.922   1.043 -1.7735 -0.1062  0.4498
 5919TIP3   OH239171   5.142   2.682   1.867  0.0426 -0.0594 -0.4890
 5919TIP3    H139172   5.115   2.713   1.953  0.3730  1.7060 -1.0106
 5919TIP3    H239173   5.082   2.724   1.805 -0.7601 -2.0101 -1.0690
 5920TIP3   OH239174   3.312   4.045  12.807  0.0530  1.1667 -0.5613
 5920TIP3    H139175   3.400   4.068  12.837 -0.2116  0.1198  1.0892
 5920TIP3    H239176   3.253   4.087  12.870 -0.6191  1.4276 -1.3495
 5921TIP3   OH239177   4.332   6.585  12.393 -0.2518 -0.7500  0.1143
 5921TIP3    H139178   4.382   6.639  12.332 -0.6330 -0.8043 -0.2499
 5921TIP3    H239179   4.325   6.638  12.473 -0.6511 -0.2437 -0.2496
 5922TIP3   OH239180   2.218   6.340   0.247 -0.3931  0.3692  0.2678
 5922TIP3    H139181   2.310   6.336   0.273 -0.0814  1.0732 -0.7071
 5922TIP3    H239182   2.206   6.263   0.190 -0.8864 -0.7535  1.8535
 5923TIP3   OH239183   4.930   5.855  12.903  0.1370  0.6507  0.1426
 5923TIP3    H139184   4.935   5.794  12.829 -1.4115  1.6770 -0.8302
 5923TIP3    H239185   4.888   5.933  12.867 -2.6648  0.3622  2.5857
 5924TIP3   OH239186   1.210   1.332  12.989  0.5004  0.1804 -1.0022
 5924TIP3    H139187   1.275   1.400  12.967 -0.6910  1.7437  0.1776
 5924TIP3    H239188   1.126   1.373  12.968 -0.2027 -1.1405 -0.7564
 5925TIP3   OH239189   0.978   6.397  11.550  0.0833  0.4108  0.2557
 5925TIP3    H139190   0.891   6.356  11.554 -0.9847  2.6362  0.5328
 5925TIP3    H239191   0.974   6.468  11.615  2.8245 -0.7354  1.7819
 5926TIP3   OH239192   3.181   3.727   5.602  0.1970  0.1987  0.0520
 5926TIP3    H139193   3.142   3.810   5.632 -1.6869 -1.0343  1.0914
 5926TIP3    H239194   3.223   3.691   5.679  0.0984 -0.3309 -0.1419
 5927TIP3   OH239195   1.435   5.160   3.615 -0.0844 -0.6089  0.1010
 5927TIP3    H139196   1.429   5.083   3.672  0.7570 -0.1597  0.8017
 5927TIP3    H239197   1.435   5.234   3.675  0.6804 -0.1261 -0.4927
 5928TIP3   OH239198   2.654   3.408   2.841  0.2741  0.1815  0.0487
 5928TIP3    H139199   2.639   3.324   2.797 -0.3601  1.1828 -1.7198
 5928TIP3    H239200   2.678   3.467   2.770  5.3508  0.4621  1.8161
 5929TIP3   OH239201   3.418   0.512   5.447 -0.6081  0.0535  0.3407
 5929TIP3    H139202   3.384   0.600   5.431 -0.4451 -0.1406 -1.1384
 5929TIP3    H239203   3.478   0.522   5.521 -2.6779  0.6725  1.9942
 5930TIP3   OH239204   6.393   5.571   2.881  0.2628 -0.0036 -0.3253
 5930TIP3    H139205   6.452   5.525   2.940  0.7904  1.6348  0.4445
 5930TIP3    H239206   6.450   5.607   2.813  0.1851  1.7707  0.5367
 5931TIP3   OH239207   1.600   3.175   0.118  0.1320 -0.1081  0.2017
 5931TIP3    H139208   1.529   3.111   0.107 -0.6647  0.8868 -0.6248
 5931TIP3    H239209   1.634   3.159   0.206 -0.7514 -0.9794  0.3950
 5932TIP3   OH239210   2.937   6.329   5.718  0.4233 -0.2362  0.6940
 5932TIP3    H139211   2.846   6.300   5.715  0.2920  0.3816 -3.1969
 5932TIP3    H239212   2.986   6.252   5.748 -1.1973 -0.9689  1.5169
 5933TIP3   OH239213   3.873   4.292   2.175  0.1745 -0.4704  0.2405
 5933TIP3    H139214   3.952   4.251   2.210  0.3946 -0.3459 -0.1109
 5933TIP3    H239215   3.838   4.342   2.248  0.3637 -0.6086  0.4276
 5934TIP3   OH239216   4.746   1.300  12.091 -0.4075 -0.1258  0.0286
 5934TIP3    H139217   4.697   1.355  12.030 -1.1576  0.2184  0.9216
 5934TIP3    H239218   4.699   1.216  12.091  0.0391 -0.3833 -0.4304
 5935TIP3   OH239219   2.017   2.665  15.172 -0.4423  0.3536  0.0307
 5935TIP3    H139220   1.990   2.718  15.247  0.4063 -0.9515  1.2947
 5935TIP3    H239221   2.093   2.710  15.136 -0.4139  0.6068  0.4057
 5936TIP3   OH239222   5.274   4.314  16.351 -0.4328 -0.0445  0.6458
 5936TIP3    H139223   5.243   4.372  16.282 -0.6761  1.0166  1.6383
 5936TIP3    H239224   5.331   4.252  16.306 -2.4813 -0.8659 -0.8779
 5937TIP3   OH239225   3.599   2.734   0.628  0.5099  0.5582 -0.1112
 5937TIP3    H139226   3.612   2.798   0.558 -1.6784  1.3800  0.2020
 5937TIP3    H239227   3.610   2.785   0.708  2.7286 -0.3227  0.1771
 5938TIP3   OH239228   0.849   6.382   2.444  0.0554 -0.3140 -0.7585
 5938TIP3    H139229   0.797   6.462   2.439  1.0266  0.3036 -1.1179
 5938TIP3    H239230   0.939   6.411   2.432  0.6689 -1.1593  1.6264
 5939TIP3   OH239231   0.004   3.902  12.336 -0.4746 -0.1630  0.3239
 5939TIP3    H139232  -0.081   3.935  12.307 -0.1181  0.3678 -0.1553
 5939TIP3    H239233   0.038   3.856  12.259  1.2401  2.7367 -0.7570
 5940TIP3   OH239234   3.721   6.521  12.672  0.7370  0.2696  0.3175
 5940TIP3    H139235   3.768   6.442  12.646  0.7511  0.2436  0.4253
 5940TIP3    H239236   3.629   6.503  12.651  0.6808  0.0551  0.7638
 5941TIP3   OH239237   5.567   1.732   5.605  0.6238  0.2019 -0.2102
 5941TIP3    H139238   5.614   1.815   5.618  1.6722 -0.3037 -0.7161
 5941TIP3    H239239   5.527   1.715   5.690  2.0502  0.2275  0.4904
 5942TIP3   OH239240   1.330   0.431  17.196  0.0133 -0.6834  0.1756
 5942TIP3    H139241   1.353   0.481  17.118 -0.1809 -0.0553  0.5178
 5942TIP3    H239242   1.404   0.444  17.255 -1.0335  1.0676  1.1432
 5943TIP3   OH239243   2.192   5.845   0.073 -0.2780 -0.3317  0.2921
 5943TIP3    H139244   2.252   5.775   0.097 -1.3898 -0.9949  1.1519
 5943TIP3    H239245   2.227   5.879  -0.009  1.4164 -0.5417  0.8970
 5944TIP3   OH239246   2.284   2.675  12.079  0.4121  0.8721 -0.4523
 5944TIP3    H139247   2.220   2.640  12.018  1.4503  0.1094 -1.1147
 5944TIP3    H239248   2.240   2.671  12.164 -0.1309 -0.3547 -0.7840
 5945TIP3   OH239249   2.689   6.673  15.070  0.4416  0.0897  0.6712
 5945TIP3    H139250   2.748   6.730  15.021  0.0695  1.2584  1.5502
 5945TIP3    H239251   2.736   6.654  15.151 -0.2561  0.7875  1.2465
 5946TIP3   OH239252   5.644   1.468   0.858  0.2636 -0.0705 -0.4132
 5946TIP3    H139253   5.587   1.542   0.838  1.1641  0.4508 -1.1012
 5946TIP3    H239254   5.609   1.432   0.940 -2.3831 -1.0949 -1.9010
 5947TIP3   OH239255   5.026   4.571  13.992  0.1266 -0.1952  0.3392
 5947TIP3    H139256   5.055   4.491  14.037  0.4027 -0.6574 -0.6423
 5947TIP3    H239257   5.107   4.616  13.969  0.1418 -1.8741 -3.0950
 5948TIP3   OH239258   6.364   1.850  12.772 -0.1810 -0.8318  0.0973
 5948TIP3    H139259   6.434   1.798  12.731  0.5330 -0.6290  1.0548
 5948TIP3    H239260   6.291   1.788  12.780  0.5842 -1.6319  1.0168
 5949TIP3   OH239261   6.184   2.006  14.318  0.7172 -1.0058 -0.5897
 5949TIP3    H139262   6.089   2.010  14.313  0.7718 -0.2697 -1.1010
 5949TIP3    H239263   6.203   1.974  14.406  0.0208 -0.1572 -0.1329
 5950TIP3   OH239264   0.556   0.058  13.956 -0.2434 -0.6556  0.2729
 5950TIP3    H139265   0.615  -0.016  13.964  0.6919  0.1551  1.0777
 5950TIP3    H239266   0.535   0.082  14.046  1.3769  1.5436  0.0962
 5951TIP3   OH239267   2.972   4.884   2.979 -0.5994  0.1129  0.4673
 5951TIP3    H139268   2.970   4.897   3.074 -0.7597 -0.4405  0.5413
 5951TIP3    H239269   3.064   4.864   2.960 -0.5625  0.2482  0.5034
 5952TIP3   OH239270   0.353   1.687  14.679  0.6632 -0.6411  0.2843
 5952TIP3    H139271   0.261   1.661  14.674  0.4487  0.2636 -0.5365
 5952TIP3    H239272   0.392   1.654  14.599  0.1879  2.2808 -1.2153
 5953TIP3   OH239273   2.286   0.987   3.187 -0.1356 -0.9985  0.0888
 5953TIP3    H139274   2.201   0.985   3.231  0.1623 -1.2868  0.6570
 5953TIP3    H239275   2.345   0.938   3.245  0.9372  1.0390  0.7736
 5954TIP3   OH239276   0.487   4.224   5.689 -0.4215  0.8870 -0.6832
 5954TIP3    H139277   0.482   4.276   5.770  0.6915  1.6251 -1.0832
 5954TIP3    H239278   0.450   4.139   5.713  1.1733  0.6308  0.9730
 5955TIP3   OH239279   4.507   2.282   1.437 -0.5204  0.0693 -0.4801
 5955TIP3    H139280   4.585   2.305   1.488 -0.8279  0.4726 -0.1961
 5955TIP3    H239281   4.434   2.312   1.490 -0.8100  1.5961 -1.7014
 5956TIP3   OH239282   0.994   3.972  15.094 -0.6711  0.6574 -0.0780
 5956TIP3    H139283   1.050   3.908  15.050 -1.8798 -0.4464 -0.0328
 5956TIP3    H239284   0.917   3.922  15.121 -1.9371  2.2726 -0.6211
 5957TIP3   OH239285   5.499   6.077  12.925  0.2117 -0.2413 -0.7972
 5957TIP3    H139286   5.492   5.986  12.897 -1.8844 -0.2712 -0.2117
 5957TIP3    H239287   5.515   6.073  13.019  0.9021 -0.0051 -0.8974
 5958TIP3   OH239288   5.400   2.846  13.547 -0.2004  0.6988  0.0350
 5958TIP3    H139289   5.467   2.886  13.602 -0.1500  0.2083  0.3301
 5958TIP3    H239290   5.318   2.862  13.593  0.1662 -2.8067  2.1406
 5959TIP3   OH239291   3.704   0.952   4.902 -0.2114  0.1719 -0.3507
 5959TIP3    H139292   3.651   0.885   4.859 -1.3932  0.5531  0.4860
 5959TIP3    H239293   3.794   0.917   4.900 -0.5432 -0.6456 -1.4456
 5960TIP3   OH239294   4.193   4.997  11.740  0.3580 -0.0520  0.1923
 5960TIP3    H139295   4.164   5.087  11.726 -1.0270 -0.3310  1.1308
 5960TIP3    H239296   4.124   4.944  11.700 -0.4574 -0.7414  2.4319
 5961TIP3   OH239297   5.501   5.196   2.409  0.7657 -0.1680 -0.4062
 5961TIP3    H139298   5.533   5.113   2.444 -0.4456 -1.6969 -2.7571
 5961TIP3    H239299   5.447   5.171   2.334 -0.9355  2.6675 -0.2120
 5962TIP3   OH239300   0.022   0.894   1.680 -0.3650 -0.2082 -0.4904
 5962TIP3    H139301   0.096   0.834   1.689 -0.5593 -0.3947 -0.1234
 5962TIP3    H239302   0.062   0.978   1.657  0.2742  0.4873  2.8575
 5963TIP3   OH239303   3.160   4.450   1.761  0.2024  0.6344  0.1733
 5963TIP3    H139304   3.102   4.374   1.757 -1.3604  1.7989  0.3800
 5963TIP3    H239305   3.241   4.416   1.798 -0.2560 -1.0763 -0.3589
 5964TIP3   OH239306   0.494   0.070  13.126 -0.2202 -0.3798 -0.1506
 5964TIP3    H139307   0.419   0.026  13.086 -0.0957 -0.8323  0.1061
 5964TIP3    H239308   0.567   0.009  13.113  0.2259  0.2888 -0.8708
 5965TIP3   OH239309   3.875   2.917  15.912 -0.1592  0.3328 -0.3280
 5965TIP3    H139310   3.783   2.933  15.888  0.1483  1.5451 -0.7229
 5965TIP3    H239311   3.869   2.874  15.997 -1.0837  1.0694 -0.0007
 5966TIP3   OH239312   0.820   0.619   0.570 -0.5936 -0.3140 -0.0226
 5966TIP3    H139313   0.759   0.549   0.546 -1.6520  1.3641 -2.5381
 5966TIP3    H239314   0.894   0.608   0.510 -0.9755  0.9387 -0.7594
 5967TIP3   OH239315   6.146   1.962  13.757  0.1779  0.0586  0.0661
 5967TIP3    H139316   6.202   1.913  13.696 -0.2900  0.1170 -0.4178
 5967TIP3    H239317   6.088   1.897  13.795 -0.5061  0.2402 -0.6460
 5968TIP3   OH239318   2.341   3.484  11.088  0.0207  0.1247  0.1757
 5968TIP3    H139319   2.350   3.492  10.993 -0.4084  2.5178  0.3167
 5968TIP3    H239320   2.323   3.391  11.102  0.2776 -0.2961 -2.0618
 5969TIP3   OH239321   3.289   2.734  14.174  0.2205  0.4835 -0.9568
 5969TIP3    H139322   3.368   2.745  14.227 -0.1758 -0.2555 -0.1982
 5969TIP3    H239323   3.321   2.706  14.089  0.8869  2.0206 -1.2369
 5970TIP3   OH239324   3.517   3.136  12.355  0.4936  0.1584  0.1830
 5970TIP3    H139325   3.504   3.134  12.260 -1.4113  1.5852  0.3896
 5970TIP3    H239326   3.510   3.045  12.383 -2.3101  0.1085 -0.6154
 5971TIP3   OH239327   6.731   3.040   5.551  0.3251  0.0748 -0.2651
 5971TIP3    H139328   6.754   2.966   5.609  0.6256 -0.0931 -0.5960
 5971TIP3    H239329   6.667   3.003   5.491 -0.2324  0.3370  0.1645
 5972TIP3   OH239330   0.536   3.353  13.106  0.4301  0.0604  0.7597
 5972TIP3    H139331   0.506   3.262  13.106  2.4585 -0.6730 -1.3688
 5972TIP3    H239332   0.578   3.365  13.191 -0.7089 -0.6762  1.4370
 5973TIP3   OH239333   4.402   3.113  12.014  0.2730 -0.1085 -1.0123
 5973TIP3    H139334   4.427   3.206  12.013  0.7938 -0.2486 -0.9321
 5973TIP3    H239335   4.317   3.111  11.969  0.7502  0.2626 -1.9441
 5974TIP3   OH239336   0.024   5.382  13.015 -0.1050  0.1620 -0.1926
 5974TIP3    H139337   0.108   5.353  12.980  0.1056  0.9401 -0.3361
 5974TIP3    H239338  -0.005   5.452  12.956 -0.7237  0.0863  0.0111
 5975TIP3   OH239339   0.572   1.709   6.101 -0.3406 -0.1022  0.1100
 5975TIP3    H139340   0.532   1.790   6.133  0.3957  0.6489 -0.8514
 5975TIP3    H239341   0.654   1.701   6.151 -0.0073  0.1872 -0.3878
 5976TIP3   OH239342   1.715   4.363  14.828 -0.0947 -0.9846 -0.1511
 5976TIP3    H139343   1.758   4.441  14.792  0.8212 -1.7827 -0.8309
 5976TIP3    H239344   1.636   4.396  14.870  0.1098  0.2682 -0.7276
 5977TIP3   OH239345   3.699   6.053  15.738  0.5415 -0.5695  0.1555
 5977TIP3    H139346   3.702   6.138  15.693  2.7500 -1.0681 -0.7178
 5977TIP3    H239347   3.747   6.068  15.820  1.5080 -1.1042 -0.2951
 5978TIP3   OH239348   1.657   0.781   5.817 -0.1094  0.6224 -0.7101
 5978TIP3    H139349   1.564   0.768   5.836  0.3029  0.4282  1.3867
 5978TIP3    H239350   1.680   0.861   5.865  1.0234  0.1007 -0.3679
 5979TIP3   OH239351   5.850   4.616   4.449 -0.2472  0.7406  0.0107
 5979TIP3    H139352   5.795   4.538   4.451 -1.9146  1.9177  0.6296
 5979TIP3    H239353   5.855   4.644   4.541  0.8180  1.0502 -0.1268
 5980TIP3   OH239354   3.159   1.723   0.843 -0.2152  0.5620 -0.2409
 5980TIP3    H139355   3.167   1.808   0.800 -0.3245  0.1380 -1.1098
 5980TIP3    H239356   3.156   1.744   0.937 -0.1077  1.5009 -0.4390
 5981TIP3   OH239357   0.602   5.097   3.700  0.0427  0.6240 -0.1272
 5981TIP3    H139358   0.552   5.085   3.619 -0.6951  1.8963  0.1354
 5981TIP3    H239359   0.573   5.025   3.757 -0.6525  0.6983 -0.3833
 5982TIP3   OH239360   3.124   0.874  13.578  0.0736 -0.1896  0.8486
 5982TIP3    H139361   3.081   0.828  13.650 -0.3792  0.9715  1.3458
 5982TIP3    H239362   3.216   0.874  13.601 -0.0603  0.1147  1.4015
 5983TIP3   OH239363   0.771   5.727  16.809 -0.2352  0.6030  0.0287
 5983TIP3    H139364   0.678   5.703  16.804 -0.5632  2.0203 -0.8877
 5983TIP3    H239365   0.813   5.672  16.744 -0.4901  0.2017  0.2028
 5984TIP3   OH239366   1.696   4.253  17.092  0.6396  0.5155  0.5043
 5984TIP3    H139367   1.703   4.293  17.179 -0.0241  1.3483  0.1752
 5984TIP3    H239368   1.660   4.322  17.036 -2.3113 -1.1091  0.3183
 5985TIP3   OH239369   1.709   5.014  11.703 -0.1681 -0.4149  0.3260
 5985TIP3    H139370   1.754   4.940  11.663 -0.3527 -0.2271 -0.2227
 5985TIP3    H239371   1.678   5.066  11.630 -0.7851 -0.2409  0.7111
 5986TIP3   OH239372   6.055   6.365   0.835 -0.7282 -0.1466 -0.2543
 5986TIP3    H139373   6.009   6.442   0.803  0.2919  1.0925  1.1788
 5986TIP3    H239374   6.120   6.346   0.767 -2.4611 -1.1416 -1.6765
 5987TIP3   OH239375   5.639   2.980   3.151  0.1599 -0.1030  0.1314
 5987TIP3    H139376   5.713   2.949   3.203 -0.7593  0.2694  1.7075
 5987TIP3    H239377   5.669   3.063   3.114  0.5600  0.0074  0.6975
 5988TIP3   OH239378   5.815   4.386   1.065 -1.0615 -0.1019 -0.2283
 5988TIP3    H139379   5.899   4.416   1.098 -0.4462 -2.4435  0.4167
 5988TIP3    H239380   5.797   4.444   0.991  1.1582  0.3853 -0.4327
 5989TIP3   OH239381   4.639   3.292   4.872  0.3979 -0.2167  0.2564
 5989TIP3    H139382   4.564   3.285   4.931  1.8968  0.7091  2.3352
 5989TIP3    H239383   4.672   3.202   4.864 -0.3779 -0.4827  0.0836
 5990TIP3   OH239384   3.880   2.838   5.112 -0.5335 -0.3462  0.0140
 5990TIP3    H139385   3.902   2.776   5.181  1.3282  1.5296  1.1458
 5990TIP3    H239386   3.873   2.922   5.157  2.5620  1.2402 -2.3190
 5991TIP3   OH239387   2.103   0.601   4.770  0.5291 -0.4675  0.1486
 5991TIP3    H139388   2.129   0.565   4.855 -2.3777 -1.4292  0.6627
 5991TIP3    H239389   2.033   0.663   4.790  1.6060  1.2586 -1.3126
 5992TIP3   OH239390   5.454   5.156   4.931 -0.3104 -0.6883  0.3803
 5992TIP3    H139391   5.419   5.145   4.842  0.9765 -1.4654 -0.0423
 5992TIP3    H239392   5.525   5.092   4.936  0.4310  0.2255  1.5509
 5993TIP3   OH239393   3.542   3.648   5.166  0.6689  0.3215 -0.2565
 5993TIP3    H139394   3.469   3.592   5.141  0.2040  0.4934  0.6991
 5993TIP3    H239395   3.578   3.607   5.245  0.7193  1.0239  0.0897
 5994TIP3   OH239396   6.744   3.470  16.152 -0.8512 -0.4919  0.1363
 5994TIP3    H139397   6.711   3.533  16.217  0.0245 -0.1331  0.2372
 5994TIP3    H239398   6.673   3.460  16.089 -0.9649  0.6580  0.0808
 5995TIP3   OH239399   1.543   1.747   5.801 -0.1834 -0.7296  0.4307
 5995TIP3    H139400   1.485   1.809   5.757 -0.5783 -1.3732  0.0209
 5995TIP3    H239401   1.495   1.719   5.878  0.8618  1.0339  1.7423
 5996TIP3   OH239402   0.924   1.402   0.222 -0.1160 -0.6545 -0.3585
 5996TIP3    H139403   0.927   1.330   0.158  3.4172  1.2107 -2.4547
 5996TIP3    H239404   0.865   1.466   0.182 -0.4210 -0.8470 -0.2182
 5997TIP3   OH239405   0.567   0.874  16.445  0.3527 -0.1450  0.0038
 5997TIP3    H139406   0.538   0.950  16.395  1.3387 -0.4106 -0.9787
 5997TIP3    H239407   0.514   0.877  16.525  1.8480  2.7739  0.9473
 5998TIP3   OH239408   0.450   6.486   1.586 -0.7449  0.2640 -0.0657
 5998TIP3    H139409   0.468   6.494   1.492 -1.1213 -1.7561 -0.3416
 5998TIP3    H239410   0.435   6.392   1.599  1.8805  0.1392  2.4859
 5999TIP3   OH239411   2.181   1.744   2.425 -0.3090  0.3444 -0.5932
 5999TIP3    H139412   2.232   1.667   2.402  1.7772  1.5739 -0.2077
 5999TIP3    H239413   2.134   1.719   2.505  1.5510 -0.0243  0.4064
 6000TIP3   OH239414   3.972   3.957  12.445  0.2385  0.4256 -0.3550
 6000TIP3    H139415   4.018   3.912  12.375  0.0261  0.5040 -0.5460
 6000TIP3    H239416   4.031   3.951  12.520  1.8049  2.9016 -1.3100
 6001TIP3   OH239417   1.938   6.550  16.796 -0.0647  0.0059  0.0256
 6001TIP3    H139418   1.867   6.602  16.759  0.3908  0.2063 -0.5722
 6001TIP3    H239419   2.009   6.614  16.811  0.1155 -0.2544  0.2896
 6002TIP3   OH239420   2.127   0.577   4.363 -0.7364  0.6202  0.5997
 6002TIP3    H139421   2.183   0.643   4.405  0.3507  0.1376 -0.0521
 6002TIP3    H239422   2.093   0.621   4.285 -0.8587  0.7575  0.7314
 6003TIP3   OH239423   3.565   0.872   2.340  1.0411  0.2406  0.7439
 6003TIP3    H139424   3.642   0.915   2.376  0.4019  0.6204  1.6997
 6003TIP3    H239425   3.497   0.940   2.341  0.1467 -0.6554  1.8142
 6004TIP3   OH239426   6.100   2.228   4.957 -0.7207  0.4001  0.4150
 6004TIP3    H139427   6.113   2.173   5.033  0.9517 -0.4486 -0.4652
 6004TIP3    H239428   6.018   2.196   4.918  0.5190 -1.8754 -0.4019
 6005TIP3   OH239429   4.837   5.629  15.529 -0.2969  0.2189 -0.1103
 6005TIP3    H139430   4.835   5.538  15.501 -2.2486  0.7595 -1.8475
 6005TIP3    H239431   4.760   5.639  15.585  0.0578  0.7576  0.2931
 6006TIP3   OH239432   1.175   1.225  10.991  0.0138 -0.1827  0.1884
 6006TIP3    H139433   1.157   1.217  10.898  0.2237  1.1642  0.0290
 6006TIP3    H239434   1.264   1.190  11.001  0.3345  0.5061 -0.2561
 6007TIP3   OH239435   5.000   0.948   1.815  0.0763 -0.3889 -0.2458
 6007TIP3    H139436   4.982   0.870   1.762 -1.0676  0.0335 -0.5002
 6007TIP3    H239437   5.041   1.009   1.754 -0.2080 -0.3219 -0.3734
 6008TIP3   OH239438   0.821   3.963   1.404 -0.0623  0.1506  0.1911
 6008TIP3    H139439   0.850   4.039   1.354  0.5105  0.7236  1.3793
 6008TIP3    H239440   0.815   3.995   1.494 -0.8393 -0.9342  0.5261
 6009TIP3   OH239441   5.206   3.582   2.020 -0.5461 -0.5133  0.5758
 6009TIP3    H139442   5.268   3.537   1.963 -0.0598  0.7239  0.1095
 6009TIP3    H239443   5.123   3.537   2.005  0.1428 -1.9169  0.9023
 6010TIP3   OH239444   5.830   1.186   3.116  0.3597 -0.3003  0.2199
 6010TIP3    H139445   5.921   1.215   3.109  0.0559  1.1926  1.9204
 6010TIP3    H239446   5.796   1.233   3.192 -2.0108 -0.3855 -0.7389
 6011TIP3   OH239447   1.198   5.203  15.395 -0.3233 -0.3369 -0.0893
 6011TIP3    H139448   1.172   5.295  15.387 -1.0093 -0.5863 -0.7231
 6011TIP3    H239449   1.275   5.195  15.339  1.5986  0.5766  2.3619
 6012TIP3   OH239450   5.193   2.358   2.406  0.0192 -0.1925  0.3850
 6012TIP3    H139451   5.168   2.268   2.383  0.7717 -0.0602 -1.0500
 6012TIP3    H239452   5.158   2.371   2.494 -1.0526 -1.5209  0.1846
 6013TIP3   OH239453   1.083   1.134   3.870  0.0021 -0.4541 -0.6690
 6013TIP3    H139454   1.048   1.165   3.954  0.6107 -1.5188 -0.0133
 6013TIP3    H239455   1.005   1.119   3.816 -0.5037 -1.4839  0.3141
 6014TIP3   OH239456   3.485   4.253  16.871  0.0243  0.5749  0.2248
 6014TIP3    H139457   3.496   4.307  16.793  2.0901 -0.9876 -0.5979
 6014TIP3    H239458   3.527   4.303  16.941  3.0535 -0.4537 -0.7794
 6015TIP3   OH239459   6.232   2.589  11.199  0.6214 -0.3911  0.4139
 6015TIP3    H139460   6.259   2.607  11.109  1.0314 -0.6514  0.4818
 6015TIP3    H239461   6.192   2.670  11.230  0.4503 -0.3137 -0.0158
 6016TIP3   OH239462   4.325   3.245  16.438 -0.3581 -0.0856  0.2997
 6016TIP3    H139463   4.321   3.165  16.386 -1.4737 -0.2745  0.6675
 6016TIP3    H239464   4.250   3.296  16.409  0.8177  1.1988 -0.5211
 6017TIP3   OH239465   1.776   3.662  11.240 -0.5128 -0.3187  0.4162
 6017TIP3    H139466   1.798   3.735  11.181 -1.5878 -1.0356 -0.9200
 6017TIP3    H239467   1.711   3.611  11.191 -1.2124 -1.1085  2.1168
 6018TIP3   OH239468   4.843   3.984   2.205  0.2381 -1.1707 -1.3235
 6018TIP3    H139469   4.773   4.030   2.158  0.9033  0.3808 -0.8554
 6018TIP3    H239470   4.901   3.951   2.136  0.4795 -0.0871 -1.6652
 6019TIP3   OH239471   1.102   6.388   4.894  0.2508 -0.2658 -0.5742
 6019TIP3    H139472   1.174   6.416   4.838  0.4921  0.3898  0.0579
 6019TIP3    H239473   1.066   6.311   4.850  1.6754 -0.9244 -0.6268
 6020TIP3   OH239474   5.630   4.800  15.868  0.2421 -0.0120  0.5615
 6020TIP3    H139475   5.589   4.879  15.835  1.2414  0.4390  0.3835
 6020TIP3    H239476   5.613   4.734  15.801 -0.8226 -0.0211  0.8359
 6021TIP3   OH239477   2.462   2.129  15.046  0.1955 -0.0118  0.4311
 6021TIP3    H139478   2.448   2.122  15.141  1.8867 -2.2976  0.5567
 6021TIP3    H239479   2.379   2.100  15.007 -0.4920  0.8952  1.1962
 6022TIP3   OH239480   5.660   4.260  15.652 -0.6256  0.4710 -0.0802
 6022TIP3    H139481   5.667   4.330  15.587 -0.4279  0.4355 -0.0984
 6022TIP3    H239482   5.751   4.235  15.670 -0.5660  1.8442  1.6979
 6023TIP3   OH239483   1.294   4.742  10.671 -0.1422  0.3113 -0.0283
 6023TIP3    H139484   1.229   4.687  10.714  0.8059  0.1527  1.2255
 6023TIP3    H239485   1.372   4.688  10.666  0.5548  1.2624  0.4672
 6024TIP3   OH239486   3.655   2.856  14.117  0.6124 -0.5355  0.6354
 6024TIP3    H139487   3.629   2.765  14.134 -1.4103  0.0639  0.9253
 6024TIP3    H239488   3.660   2.861  14.022  2.2789 -1.3301  0.6500
 6025TIP3   OH239489   3.739   2.701  12.766  0.0246 -0.3767  0.1372
 6025TIP3    H139490   3.678   2.646  12.717  0.9219 -1.5706  0.3376
 6025TIP3    H239491   3.826   2.669  12.741  0.5390  0.4234  0.8618
 6026TIP3   OH239492   4.828   6.032   5.055 -0.2788 -0.0829  0.3516
 6026TIP3    H139493   4.884   6.066   5.125 -1.4404  0.7941  0.8657
 6026TIP3    H239494   4.747   6.083   5.061 -0.2288  0.3440 -1.9405
 6027TIP3   OH239495   2.594   4.101  11.627 -0.0773  0.6753  0.0931
 6027TIP3    H139496   2.583   4.184  11.581  1.0850  0.5927 -0.3339
 6027TIP3    H239497   2.515   4.094  11.682 -2.7413 -0.3830 -3.6518
 6028TIP3   OH239498   3.022   5.826  15.265  0.4747 -0.2486  0.5202
 6028TIP3    H139499   3.012   5.906  15.213  0.2401 -0.1811  0.6675
 6028TIP3    H239500   2.961   5.764  15.225  1.0052 -0.5052  0.1095
 6029TIP3   OH239501   5.066   3.188  15.000 -0.3997  0.7804  0.5341
 6029TIP3    H139502   5.100   3.225  15.081 -0.4576  1.1114  0.4119
 6029TIP3    H239503   5.086   3.255  14.934 -0.0195  0.3475  0.2099
 6030TIP3   OH239504   5.514   4.966  13.427 -0.0796  0.1855  0.2238
 6030TIP3    H139505   5.493   4.878  13.398 -0.3552  1.0753 -2.3834
 6030TIP3    H239506   5.609   4.965  13.438 -0.1650 -0.6358  0.9591
 6031TIP3   OH239507   2.178   2.656  14.774 -0.6356 -0.1067 -0.0202
 6031TIP3    H139508   2.176   2.565  14.743  1.1410 -0.0650 -0.3313
 6031TIP3    H239509   2.229   2.703  14.708 -0.5014  0.8632  0.7587
 6032TIP3   OH239510   6.607   0.393   4.755 -0.1974  0.6271 -0.0380
 6032TIP3    H139511   6.582   0.461   4.818 -0.3368  2.1775 -1.7252
 6032TIP3    H239512   6.700   0.406   4.741  0.1072 -0.5606  0.8196
 6033TIP3   OH239513   1.141   5.365  12.531  0.3264  0.7573 -0.2128
 6033TIP3    H139514   1.229   5.330  12.545 -0.2200 -0.0097  1.5148
 6033TIP3    H239515   1.152   5.460  12.533  1.2230  0.6716 -0.7922
 6034TIP3   OH239516   1.248   3.336  15.705 -0.6313 -0.1350  0.8302
 6034TIP3    H139517   1.262   3.391  15.628  0.0452  0.6586  1.5089
 6034TIP3    H239518   1.179   3.275  15.679 -0.4723  0.1806 -0.3721
 6035TIP3   OH239519   6.724   6.512  15.595 -1.0852 -0.2761  0.2991
 6035TIP3    H139520   6.744   6.419  15.608  2.9407  0.4338 -0.3469
 6035TIP3    H239521   6.771   6.557  15.664 -0.5461  1.5095 -1.1909
 6036TIP3   OH239522   4.501   1.810   0.051 -0.2906  0.2599 -0.4316
 6036TIP3    H139523   4.572   1.813   0.116 -0.4398 -0.0665 -0.2521
 6036TIP3    H239524   4.444   1.739   0.081  0.0336 -0.3947 -1.3256
 6037TIP3   OH239525   4.693   2.842   4.434  0.4639  0.4024  0.3708
 6037TIP3    H139526   4.701   2.882   4.521 -0.2205  2.3080 -0.4182
 6037TIP3    H239527   4.661   2.913   4.378  2.8078 -0.2630 -1.8824
 6038TIP3   OH239528   1.086   0.042  15.613 -0.2590 -0.0851 -0.2570
 6038TIP3    H139529   1.121  -0.042  15.644  0.5842  0.5459  0.5233
 6038TIP3    H239530   1.156   0.078  15.559 -1.0123 -0.3344 -1.4271
 6039TIP3   OH239531   6.055   0.630   3.806 -0.0695 -0.2454 -0.4164
 6039TIP3    H139532   6.113   0.652   3.879 -0.0234 -0.1898 -0.4700
 6039TIP3    H239533   5.977   0.594   3.848 -0.7411  1.3514 -0.2567
 6040TIP3   OH239534   6.210   4.978   0.059 -0.3636 -0.4124  0.5529
 6040TIP3    H139535   6.268   5.003  -0.013  0.8151  0.4364  1.7884
 6040TIP3    H239536   6.239   4.890   0.084  0.2998 -0.0498  1.0686
 6041TIP3   OH239537   5.957   3.115  12.052 -0.0797 -0.5719 -0.2125
 6041TIP3    H139538   5.876   3.067  12.040  0.0749 -0.8204 -0.2559
 6041TIP3    H239539   5.943   3.198  12.006  0.8952 -1.9465 -3.0721
 6042TIP3   OH239540   0.256   0.110  14.609 -0.3300 -0.3139  0.6967
 6042TIP3    H139541   0.329   0.131  14.667  0.0174  0.6779 -0.0930
 6042TIP3    H239542   0.185   0.165  14.639 -0.4878 -0.6209  0.8891
 6043TIP3   OH239543   6.335   6.266  12.561  0.4033 -0.3052  0.2533
 6043TIP3    H139544   6.341   6.355  12.597  1.2254  0.5305 -1.8788
 6043TIP3    H239545   6.427   6.238  12.553  0.2042 -0.7763 -0.4254
 6044TIP3   OH239546   2.233   2.078   3.553 -0.6159 -0.1228 -0.1383
 6044TIP3    H139547   2.159   2.029   3.517 -0.1377 -1.4956  0.7225
 6044TIP3    H239548   2.196   2.126   3.627 -0.6319 -0.9220  0.3811
 6045TIP3   OH239549   4.992   2.815  12.217 -0.6181 -0.0903 -0.3766
 6045TIP3    H139550   5.067   2.798  12.160 -1.1561  0.3372 -1.2239
 6045TIP3    H239551   4.982   2.734  12.268  1.2907  0.3747  0.7633
 6046TIP3   OH239552   6.361   4.828  15.439  0.5752 -0.4821 -0.1802
 6046TIP3    H139553   6.317   4.744  15.445  1.2741 -0.9650 -1.7165
 6046TIP3    H239554   6.453   4.806  15.422  0.6606  0.5980 -1.1299
 6047TIP3   OH239555   6.292   3.684  16.923 -0.7114 -0.1624  0.3413
 6047TIP3    H139556   6.200   3.665  16.938 -0.7728 -0.5314 -0.4720
 6047TIP3    H239557   6.294   3.775  16.893 -0.9294 -0.5315 -0.8005
 6048TIP3   OH239558   5.125   3.717  15.516 -0.2438 -0.1295  0.0252
 6048TIP3    H139559   5.042   3.726  15.563 -0.9829  0.8815 -1.4086
 6048TIP3    H239560   5.146   3.624  15.523 -2.0314 -0.6049 -0.4279
 6049TIP3   OH239561   5.764   0.862   5.963  0.4658 -1.0065 -0.3470
 6049TIP3    H139562   5.697   0.799   5.935  0.8336 -1.4417 -0.2555
 6049TIP3    H239563   5.734   0.893   6.048  0.8390 -1.8811  0.1103
 6050TIP3   OH239564   5.266   6.517  17.166  0.0219  0.2670 -0.1521
 6050TIP3    H139565   5.193   6.472  17.125  0.0730  0.5602 -0.5681
 6050TIP3    H239566   5.339   6.455  17.163 -0.3075 -0.1583  0.5818
 6051TIP3   OH239567   2.037   5.602   2.156 -0.0759  0.5274 -0.2291
 6051TIP3    H139568   2.127   5.601   2.124 -0.8048  1.0771 -2.3618
 6051TIP3    H239569   2.003   5.514   2.136  0.6052 -0.4243  2.5182
 6052TIP3   OH239570   5.243   6.355   2.844  0.4968 -0.0395  0.7544
 6052TIP3    H139571   5.158   6.350   2.801  0.4918 -1.7365  0.9463
 6052TIP3    H239572   5.251   6.448   2.869 -0.1691  0.6656 -1.4947
 6053TIP3   OH239573   6.357   0.796  11.408  0.0825  0.0312 -0.6866
 6053TIP3    H139574   6.280   0.851  11.395 -1.9974 -2.7588 -0.6477
 6053TIP3    H239575   6.393   0.784  11.320 -1.5127 -1.3438 -1.1911
 6054TIP3   OH239576   4.966   0.724   3.816 -0.2641  0.1175 -0.2040
 6054TIP3    H139577   5.016   0.752   3.739  0.5222  0.5660  0.4591
 6054TIP3    H239578   4.907   0.798   3.833 -0.9125 -0.2646 -0.7759
 6055TIP3   OH239579   6.151   1.743  14.090 -0.0515  0.1714 -0.0843
 6055TIP3    H139580   6.198   1.827  14.082  0.9315 -0.3337  0.2717
 6055TIP3    H239581   6.088   1.758  14.159  0.0606  0.6512 -0.0790
 6056TIP3   OH239582   5.391   0.854   1.459 -0.0741  0.0527  0.7859
 6056TIP3    H139583   5.483   0.826   1.454 -0.1378 -0.0910  0.4076
 6056TIP3    H239584   5.362   0.825   1.545 -0.0209 -0.6866  0.5594
 6057TIP3   OH239585   5.979   4.874  10.246 -0.4808  0.1364  0.5688
 6057TIP3    H139586   5.972   4.961  10.284  0.6813 -1.0812  3.7476
 6057TIP3    H239587   6.060   4.876  10.195  0.2666  0.5410  1.7543
 6058TIP3   OH239588   5.952   3.875  16.304 -0.4234  0.2464 -0.0068
 6058TIP3    H139589   5.911   3.927  16.235  0.4638 -0.6127 -1.1964
 6058TIP3    H239590   5.943   3.929  16.383 -1.0281  1.4402 -0.8781
 6059TIP3   OH239591   4.668   3.591   5.694  0.0767 -0.2298  0.2102
 6059TIP3    H139592   4.649   3.628   5.607  2.2140 -1.2913 -0.7314
 6059TIP3    H239593   4.621   3.648   5.755 -2.7548 -0.4057 -1.7340
 6060TIP3   OH239594   1.794   3.170   5.058 -0.1911 -0.1102 -0.2849
 6060TIP3    H139595   1.756   3.256   5.040  0.4142  0.8110  2.5687
 6060TIP3    H239596   1.866   3.162   4.995 -0.5535  1.2588 -0.8995
 6061TIP3   OH239597   0.467   3.448  14.249 -0.6726  0.2563  0.1706
 6061TIP3    H139598   0.401   3.416  14.311  0.2680  2.5756  2.4382
 6061TIP3    H239599   0.550   3.439  14.295  0.0034  2.4180 -0.5857
 6062TIP3   OH239600   6.618   0.856  17.030  0.4159 -0.4104 -0.1173
 6062TIP3    H139601   6.547   0.889  17.084 -1.0929 -1.7776 -1.2134
 6062TIP3    H239602   6.673   0.806  17.090  0.8353  1.2030  0.8681
 6063TIP3   OH239603   1.924   1.394  12.529 -0.1822 -0.3119  0.0193
 6063TIP3    H139604   1.876   1.425  12.606 -0.8951 -2.3670  0.4170
 6063TIP3    H239605   1.994   1.340  12.565  0.1733 -0.3634 -0.7423
 6064TIP3   OH239606   2.477   2.560   1.904  0.2580 -0.0602  0.4008
 6064TIP3    H139607   2.566   2.559   1.938  0.1138  1.7962  0.9348
 6064TIP3    H239608   2.481   2.619   1.829 -0.3218 -0.7463 -0.1744
 6065TIP3   OH239609   1.139   0.274  17.058 -0.4501  0.8967  0.1124
 6065TIP3    H139610   1.175   0.328  16.988  0.2960  1.1547  0.6944
 6065TIP3    H239611   1.165   0.318  17.139 -0.6822  0.2063  0.5712
 6066TIP3   OH239612   1.512   3.181  16.322  0.2679 -0.1265  0.5745
 6066TIP3    H139613   1.563   3.120  16.269  0.7530  0.3435  0.4997
 6066TIP3    H239614   1.542   3.167  16.412  0.5084  0.1304  0.5346
 6067TIP3   OH239615   1.512   6.613   4.904 -0.7619 -0.1507 -0.5012
 6067TIP3    H139616   1.533   6.667   4.980 -0.1415 -1.3869  0.2106
 6067TIP3    H239617   1.594   6.606   4.856 -0.7457 -0.7910 -0.3825
 6068TIP3   OH239618   1.414   0.832   0.502 -0.3276 -0.6372  0.0796
 6068TIP3    H139619   1.390   0.905   0.445  1.0832 -2.0723 -2.4620
 6068TIP3    H239620   1.440   0.874   0.584  0.5495  1.7525 -1.3397
 6069TIP3   OH239621   5.766   4.171   3.521 -0.0947 -0.3833 -0.1551
 6069TIP3    H139622   5.802   4.236   3.462  0.9116  0.3763  1.2756
 6069TIP3    H239623   5.839   4.111   3.538 -0.9654 -1.8190 -1.3342
 6070TIP3   OH239624   3.292   1.987  11.410  0.1422 -0.2260  0.5076
 6070TIP3    H139625   3.378   1.985  11.368  0.5847 -0.6793  1.4028
 6070TIP3    H239626   3.299   2.059  11.474 -0.6424  0.7019 -0.4332
 6071TIP3   OH239627   6.100   3.170  16.900 -0.0055  0.1742  0.1351
 6071TIP3    H139628   6.114   3.259  16.866  1.8435 -0.2603 -0.2831
 6071TIP3    H239629   6.187   3.141  16.927 -0.4976 -1.7381 -0.2779
 6072TIP3   OH239630   2.368   0.476   2.823 -0.2804  0.3463 -0.0947
 6072TIP3    H139631   2.412   0.517   2.749 -0.2925 -0.8847 -0.7917
 6072TIP3    H239632   2.282   0.517   2.825  0.7033  2.4636  1.0207
 6073TIP3   OH239633   6.750   1.142   2.884  0.5085  0.4581 -0.0124
 6073TIP3    H139634   6.834   1.118   2.844 -0.6261 -0.7088 -1.7517
 6073TIP3    H239635   6.736   1.077   2.953  0.9420  0.5266  0.1385
 6074TIP3   OH239636   4.606   0.648   0.843  0.1548 -0.0742 -0.2260
 6074TIP3    H139637   4.663   0.702   0.789  0.5494 -0.0336  0.2285
 6074TIP3    H239638   4.630   0.558   0.821 -0.0572 -0.0622 -0.5110
 6075TIP3   OH239639   4.235   1.243  11.272  0.1277 -0.3323  0.0643
 6075TIP3    H139640   4.277   1.321  11.236  2.3758 -1.1830  0.7564
 6075TIP3    H239641   4.298   1.209  11.335 -1.1392 -2.3223  0.2967
 6076TIP3   OH239642   2.137   5.695   5.014  0.0431  0.1058  0.2254
 6076TIP3    H139643   2.197   5.633   5.054 -1.3087  0.7213  3.3462
 6076TIP3    H239644   2.064   5.640   4.982 -0.9266 -0.0415  2.5560
 6077TIP3   OH239645   6.675   0.915  13.851 -0.4620  0.1696 -0.4493
 6077TIP3    H139646   6.679   0.951  13.939  0.5483  1.4538 -1.0030
 6077TIP3    H239647   6.692   0.822  13.862  0.6659  0.4938  0.6073
 6078TIP3   OH239648   1.204   3.425  14.240  0.9183  0.4036  0.4156
 6078TIP3    H139649   1.198   3.516  14.269  0.6882  1.2354 -2.1835
 6078TIP3    H239650   1.296   3.413  14.217  0.4005  0.8835 -2.0298
 6079TIP3   OH239651   5.651   5.039  11.315  0.1548  0.0173  0.0795
 6079TIP3    H139652   5.619   4.974  11.377 -0.6369  0.7783  0.4838
 6079TIP3    H239653   5.574   5.094  11.297  0.5849  0.3048 -0.9358
 6080TIP3   OH239654   1.093   6.459   2.371  0.6165  0.4156 -0.6593
 6080TIP3    H139655   1.165   6.404   2.402  0.3794  0.4473 -0.0356
 6080TIP3    H239656   1.132   6.547   2.365  0.0573  0.8869  1.9117
 6081TIP3   OH239657   1.638   5.148   4.475 -0.1009 -0.5050 -0.1949
 6081TIP3    H139658   1.587   5.132   4.396 -0.3212 -1.4998  0.1457
 6081TIP3    H239659   1.697   5.220   4.452 -0.5588 -0.4127 -1.0801
 6082TIP3   OH239660   5.485   3.797   3.788  0.8605 -0.3495 -0.5172
 6082TIP3    H139661   5.482   3.866   3.722  1.6443  0.3254  0.1439
 6082TIP3    H239662   5.436   3.832   3.862  0.7550 -0.7392 -0.4005
 6083TIP3   OH239663   3.653   6.159   6.269  0.6534  0.5306 -0.1395
 6083TIP3    H139664   3.680   6.092   6.205 -1.8897 -2.2477  1.5740
 6083TIP3    H239665   3.728   6.166   6.328  1.8887  1.0227 -1.6984
 6084TIP3   OH239666   2.580   2.120  14.097  0.2042 -0.1398 -0.0955
 6084TIP3    H139667   2.503   2.156  14.140 -0.4852  0.2062 -1.5805
 6084TIP3    H239668   2.613   2.055  14.158 -1.9534 -1.1225  0.0924
 6085TIP3   OH239669   2.979   4.140   3.023 -0.1595 -0.0360 -0.5197
 6085TIP3    H139670   3.050   4.114   2.964  1.0715  1.3153  0.3208
 6085TIP3    H239671   2.919   4.191   2.969  0.8904  1.0768 -0.6638
 6086TIP3   OH239672   1.867   1.974   3.005  0.5579  0.1666 -0.2679
 6086TIP3    H139673   1.951   1.986   2.961  0.7958 -0.3205  0.0383
 6086TIP3    H239674   1.853   2.055   3.053  0.7283  0.3516 -0.5308
 6087TIP3   OH239675   5.890   6.103  11.228  0.2779  0.0378  0.4595
 6087TIP3    H139676   5.821   6.115  11.294 -0.5821  1.4569 -0.6824
 6087TIP3    H239677   5.849   6.129  11.145  0.8446 -3.2048 -0.9171
 6088TIP3   OH239678   4.021   6.101   5.785 -0.3376 -0.2484  0.7511
 6088TIP3    H139679   4.042   6.031   5.847  1.5665 -0.5872 -0.2460
 6088TIP3    H239680   3.928   6.090   5.767  0.1277 -3.1203 -0.0899
 6089TIP3   OH239681   1.569   3.464   4.753  0.2720 -0.2187 -0.6667
 6089TIP3    H139682   1.485   3.510   4.746 -0.7379 -1.8409  0.2560
 6089TIP3    H239683   1.618   3.491   4.676 -1.7005 -0.4088 -2.0291
 6090TIP3   OH239684   6.013   1.264   1.677  0.4355  0.1383 -0.4865
 6090TIP3    H139685   6.100   1.226   1.663  0.5482 -0.8606  2.6045
 6090TIP3    H239686   6.030   1.355   1.703  0.5582 -0.0954  0.2478
 6091TIP3   OH239687   0.006   2.467   2.494 -0.5141 -0.0618 -0.0291
 6091TIP3    H139688   0.046   2.552   2.510  1.5105 -0.7149 -1.4318
 6091TIP3    H239689  -0.085   2.478   2.520  0.0899  2.0611  1.2932
 6092TIP3   OH239690   0.068   1.690  15.785 -0.2740 -0.9693 -0.1759
 6092TIP3    H139691   0.084   1.602  15.821  2.7401 -0.0390  0.8726
 6092TIP3    H239692   0.095   1.683  15.694 -1.1684 -1.4351 -0.4120
 6093TIP3   OH239693   4.162   0.002   4.083 -0.2158  0.0965  0.0942
 6093TIP3    H139694   4.122  -0.009   4.170 -1.6780 -1.5030 -0.7523
 6093TIP3    H239695   4.222   0.076   4.094 -0.1216 -0.2831  2.5580
 6094TIP3   OH239696   0.420   1.018   0.221 -0.4640 -0.3659 -0.1954
 6094TIP3    H139697   0.360   1.015   0.146 -2.3243 -0.2384  1.2685
 6094TIP3    H239698   0.433   0.926   0.244  0.9800 -0.4634 -1.3357
 6095TIP3   OH239699   2.819   2.797  13.629  0.3771  0.3621  0.1605
 6095TIP3    H139700   2.795   2.869  13.687 -2.2301  0.1053 -0.5211
 6095TIP3    H239701   2.756   2.727  13.651  1.9514 -1.1882 -0.1704
 6096TIP3   OH239702   3.868   2.522   0.009  0.1468 -0.0692 -0.4122
 6096TIP3    H139703   3.929   2.522   0.083  0.9451  0.3535 -1.0653
 6096TIP3    H239704   3.832   2.611   0.009 -0.4721 -0.3196 -0.0256
 6097TIP3   OH239705   3.578   0.610  15.925 -0.2438  0.1983 -0.1617
 6097TIP3    H139706   3.578   0.521  15.890  2.0909 -1.3222  3.4707
 6097TIP3    H239707   3.505   0.612  15.986 -0.3205  0.8198 -0.2689
 6098TIP3   OH239708   5.114   4.261   2.634  0.2712 -0.2334  0.3539
 6098TIP3    H139709   5.166   4.240   2.712  0.9693  1.3537  0.3259
 6098TIP3    H239710   5.037   4.307   2.669  1.1452  1.5239  0.0552
 6099TIP3   OH239711   5.338   3.667   5.869  0.2712  0.3106  0.8066
 6099TIP3    H139712   5.350   3.644   5.777  1.7643  0.7483  0.8809
 6099TIP3    H239713   5.357   3.586   5.917  1.7303  0.6711  0.8504
 6100TIP3   OH239714   2.083   1.824  16.835 -0.4052  0.1156 -0.3879
 6100TIP3    H139715   1.999   1.806  16.876 -0.5505  2.4305  0.3759
 6100TIP3    H239716   2.119   1.897  16.885  1.1846  0.4161 -1.9375
 6101TIP3   OH239717   4.442   2.514  12.730  0.2972  0.6557 -0.7046
 6101TIP3    H139718   4.410   2.590  12.780  1.2973  1.0405 -0.6325
 6101TIP3    H239719   4.457   2.549  12.642 -1.7165 -0.0825 -1.3740
 6102TIP3   OH239720   3.480   2.110  14.645  0.3079 -0.6394  0.2815
 6102TIP3    H139721   3.528   2.183  14.685  0.1289 -1.0075  1.1897
 6102TIP3    H239722   3.548   2.053  14.609  0.4587 -0.1256 -0.2407
 6103TIP3   OH239723   2.482   2.784  14.896 -0.2648  0.2334 -0.3917
 6103TIP3    H139724   2.533   2.725  14.952  0.2677  0.3907 -0.7063
 6103TIP3    H239725   2.530   2.786  14.813 -2.0900 -1.5207 -1.5337
 6104TIP3   OH239726   3.150   2.364   5.107 -0.0577 -0.2859 -0.3565
 6104TIP3    H139727   3.241   2.356   5.079  0.2879 -1.5744  1.0527
 6104TIP3    H239728   3.114   2.433   5.052  2.2557  1.5150  0.3216
 6105TIP3   OH239729   5.857   3.349  14.607  0.2754 -0.1681  0.5559
 6105TIP3    H139730   5.920   3.404  14.560 -0.3318  0.9960  1.1060
 6105TIP3    H239731   5.854   3.386  14.695 -1.7030  0.2258  0.3453
 6106TIP3   OH239732   2.786   2.611   1.357  0.5083 -0.2986 -0.2776
 6106TIP3    H139733   2.782   2.571   1.444  1.0906  2.6806  1.1843
 6106TIP3    H239734   2.855   2.563   1.311  1.0877 -1.0647  1.3608
 6107TIP3   OH239735   1.555   4.425   3.496  0.1283 -0.6603 -0.4813
 6107TIP3    H139736   1.597   4.475   3.565 -2.2703  0.7366  0.0313
 6107TIP3    H239737   1.535   4.340   3.536 -2.5245  0.6242  1.0592
 6108TIP3   OH239738   5.061   4.698   2.332  0.1706 -0.6094 -0.3093
 6108TIP3    H139739   5.145   4.744   2.339  1.0897 -2.2719 -0.3615
 6108TIP3    H239740   5.027   4.723   2.246  1.4539 -1.3348 -1.0343
 6109TIP3   OH239741   1.946   4.597   0.910  0.0964 -0.2382  0.1201
 6109TIP3    H139742   1.922   4.606   1.002  1.0920  0.4495  0.3174
 6109TIP3    H239743   1.989   4.512   0.904  0.8410  0.1049  0.4783
 6110TIP3   OH239744   0.424   4.972  16.222  0.8871 -0.0059  0.6494
 6110TIP3    H139745   0.408   4.885  16.186 -0.2173 -0.1586  1.5170
 6110TIP3    H239746   0.448   5.025  16.146 -2.1007 -0.1547 -0.4286
 6111TIP3   OH239747   3.204   5.842  13.324  0.4000 -0.4877  0.1417
 6111TIP3    H139748   3.233   5.928  13.354 -0.2903  0.0878 -0.8158
 6111TIP3    H239749   3.118   5.831  13.364  2.0107 -2.3869  3.3501
 6112TIP3   OH239750   0.366   4.747   3.194  0.5037  0.2992 -0.4624
 6112TIP3    H139751   0.460   4.762   3.185  0.6550 -1.2267 -1.4470
 6112TIP3    H239752   0.327   4.798   3.123  0.6689  0.0060 -0.7649
 6113TIP3   OH239753   5.387   1.202  12.780  0.5995 -0.0628  0.6513
 6113TIP3    H139754   5.401   1.234  12.869  0.4307 -0.2780  0.7593
 6113TIP3    H239755   5.382   1.107  12.790 -1.2477  0.0168  0.6802
 6114TIP3   OH239756   0.098   1.931   4.866 -0.7559  0.0889 -0.0016
 6114TIP3    H139757   0.044   2.009   4.884 -0.9292  0.8036 -3.3642
 6114TIP3    H239758   0.037   1.858   4.874 -1.8067  0.7343 -1.7365
 6115TIP3   OH239759   4.192   4.874   1.539 -0.1254 -0.4070  0.4755
 6115TIP3    H139760   4.202   4.964   1.508  0.6851 -0.9465 -0.8470
 6115TIP3    H239761   4.281   4.843   1.554 -0.2156 -1.8961 -1.7705
 6116TIP3   OH239762   4.045   2.057  16.826 -0.1698 -0.2868 -0.3357
 6116TIP3    H139763   4.029   2.079  16.918 -0.4853  0.8471 -0.6600
 6116TIP3    H239764   3.969   2.004  16.801 -0.2782 -0.2675 -0.0536
 6117TIP3   OH239765   5.996   2.646  17.166  0.1474  0.0556 -0.0975
 6117TIP3    H139766   6.012   2.737  17.191 -1.1780 -0.1146  1.4938
 6117TIP3    H239767   5.943   2.611  17.238 -0.9055 -1.4505 -1.5853
 6118TIP3   OH239768   6.023   2.918   2.818  0.4140  0.5479  0.1890
 6118TIP3    H139769   5.990   2.948   2.903  0.4187 -1.2144  0.8237
 6118TIP3    H239770   6.099   2.864   2.839 -1.0064 -1.8774 -0.7630
 6119TIP3   OH239771   5.790   2.998   5.824 -0.1778 -0.2870 -0.0563
 6119TIP3    H139772   5.839   2.940   5.882  1.0109  1.2011  0.4425
 6119TIP3    H239773   5.808   3.086   5.856 -1.6190  0.3963 -1.0748
 6120TIP3   OH239774   4.542   3.134  14.270 -0.8672 -0.7292 -0.0553
 6120TIP3    H139775   4.522   3.041  14.277  1.7692 -1.2560  0.9816
 6120TIP3    H239776   4.499   3.161  14.189 -1.1529 -2.9823 -0.6987
 6121TIP3   OH239777   2.549   2.117  15.798 -0.0090  0.3807 -0.3457
 6121TIP3    H139778   2.618   2.180  15.776 -1.7377  1.7837 -1.8953
 6121TIP3    H239779   2.485   2.168  15.847 -1.4272 -0.1332 -1.6204
 6122TIP3   OH239780   5.693   1.878   1.613 -0.3234  0.1413  0.2056
 6122TIP3    H139781   5.653   1.965   1.605  0.4202  0.3185 -1.7764
 6122TIP3    H239782   5.635   1.821   1.562 -0.7949 -0.5341  1.4863
 6123TIP3   OH239783   6.338   3.385   3.984 -0.0315  0.5550 -0.0239
 6123TIP3    H139784   6.303   3.449   4.046 -0.9765  0.7961 -0.7881
 6123TIP3    H239785   6.261   3.338   3.952  0.7699 -2.0076  1.6320
 6124TIP3   OH239786   2.960   3.914   1.170 -0.3007 -0.1920 -0.5542
 6124TIP3    H139787   3.018   3.946   1.239 -0.2059 -0.2551 -0.6045
 6124TIP3    H239788   2.964   3.981   1.102 -2.1474  0.9877  0.4501
 6125TIP3   OH239789   0.533   4.483  13.920  0.0102 -0.3812  0.0048
 6125TIP3    H139790   0.490   4.464  13.837 -1.3752 -0.8741  0.8213
 6125TIP3    H239791   0.512   4.408  13.976  0.6548  0.0978  0.9131
 6126TIP3   OH239792   5.424   5.991  12.294 -0.0630  0.0351 -0.6483
 6126TIP3    H139793   5.479   5.983  12.372 -0.2562  2.2229 -0.2437
 6126TIP3    H239794   5.466   6.059  12.242 -1.3724  0.4367 -1.2010
 6127TIP3   OH239795   0.233   2.635   4.119  0.0992 -0.2476  0.7073
 6127TIP3    H139796   0.211   2.559   4.066  0.4500 -0.6881  1.1811
 6127TIP3    H239797   0.313   2.609   4.167 -0.0492  0.2358  1.2303
 6128TIP3   OH239798   0.827   5.924   0.808 -0.0338 -0.1406  0.5470
 6128TIP3    H139799   0.740   5.948   0.775  0.2735  0.3655  0.1097
 6128TIP3    H239800   0.849   5.993   0.870  1.0898  1.0134 -1.1257
 6129TIP3   OH239801   1.584   5.780   1.374 -0.4543  0.2552 -0.5244
 6129TIP3    H139802   1.646   5.852   1.385 -0.3853  0.2076 -0.6090
 6129TIP3    H239803   1.498   5.821   1.383 -0.3900 -0.0698  2.1493
 6130TIP3   OH239804   6.652   3.781  15.945 -0.0949  0.4996  0.4661
 6130TIP3    H139805   6.656   3.872  15.975  0.2706 -0.5395  3.8606
 6130TIP3    H239806   6.589   3.740  16.004  3.4204 -2.5383  2.3672
 6131TIP3   OH239807   6.469   1.489  16.017 -0.0758  0.5542 -0.2386
 6131TIP3    H139808   6.469   1.518  15.926 -1.2013  1.0844 -0.0837
 6131TIP3    H239809   6.469   1.570  16.068 -2.1295  0.2949  0.2096
 6132TIP3   OH239810   5.477   3.714   2.563  1.1419 -0.5962  0.0840
 6132TIP3    H139811   5.457   3.644   2.626 -2.0013 -0.3439 -0.5799
 6132TIP3    H239812   5.464   3.674   2.477  0.6161  0.4175 -0.3194
 6133TIP3   OH239813   6.447   5.591   3.527  0.0280 -0.4790  0.6437
 6133TIP3    H139814   6.517   5.653   3.548  0.0954  0.5755 -2.5333
 6133TIP3    H239815   6.492   5.513   3.495 -0.2132 -0.5297  0.4288
 6134TIP3   OH239816   3.737   0.746   0.064 -0.4322  0.4769  0.0296
 6134TIP3    H139817   3.715   0.794   0.144 -1.2580 -0.9652  0.6862
 6134TIP3    H239818   3.789   0.671   0.094  0.6564  0.8310 -0.9569
 6135TIP3   OH239819   6.049   3.910   5.726 -0.5411  0.2000 -0.0631
 6135TIP3    H139820   6.132   3.868   5.749 -1.5188 -1.0210  1.2778
 6135TIP3    H239821   6.005   3.924   5.809 -1.8047  0.5940 -0.7926
 6136TIP3   OH239822   1.429   5.391   0.390  0.3576  0.4677 -0.4384
 6136TIP3    H139823   1.493   5.320   0.401  0.1867  0.4727  0.6998
 6136TIP3    H239824   1.346   5.353   0.418  0.0285  0.7384 -1.0379
 6137TIP3   OH239825   1.590   5.023   1.819  0.0003  0.2256  0.0216
 6137TIP3    H139826   1.592   5.119   1.822 -0.6216  0.2578 -0.5788
 6137TIP3    H239827   1.520   5.002   1.758  0.2231 -0.6156  0.0467
 6138TIP3   OH239828   4.982   1.837   6.103 -0.2400  0.6684  0.1396
 6138TIP3    H139829   4.965   1.795   6.018 -3.8034  2.4408 -0.1278
 6138TIP3    H239830   4.999   1.764   6.162 -1.9253 -0.9123 -1.2497
 6139TIP3   OH239831   0.594   3.462   4.612  0.2712  0.0618  0.0719
 6139TIP3    H139832   0.583   3.372   4.582  0.0558  0.4084 -0.8694
 6139TIP3    H239833   0.640   3.452   4.696  0.0714 -0.9314  0.0794
 6140TIP3   OH239834   0.464   1.756   2.333 -0.1610  0.5042 -0.1606
 6140TIP3    H139835   0.393   1.721   2.387 -0.4116 -0.4076 -1.0709
 6140TIP3    H239836   0.480   1.689   2.267  1.3072  0.8585 -0.1935
 6141TIP3   OH239837   1.737   5.715   4.882 -0.0216 -0.0234 -0.5855
 6141TIP3    H139838   1.762   5.705   4.790  0.5412  0.7165 -0.5164
 6141TIP3    H239839   1.800   5.778   4.917 -0.9131  0.5271  0.0346
 6142TIP3   OH239840   6.606   2.959   5.040  0.1146  0.4279  0.2828
 6142TIP3    H139841   6.634   2.967   5.132 -0.9862 -0.3836  0.6916
 6142TIP3    H239842   6.667   2.896   5.002  0.8286  1.0726  0.3415
 6143TIP3   OH239843   4.548   2.293  10.499 -0.2678 -0.1125 -0.0305
 6143TIP3    H139844   4.628   2.279  10.449  0.6000  1.0963  0.9848
 6143TIP3    H239845   4.510   2.206  10.509 -0.5561 -0.3659 -2.9040
 6144TIP3   OH239846   3.675   2.671  11.081 -0.2085 -0.1273 -0.1277
 6144TIP3    H139847   3.705   2.692  11.169  1.7673  1.5772 -1.1707
 6144TIP3    H239848   3.741   2.611  11.046 -0.4275  0.0328 -0.8237
 6145TIP3   OH239849   4.766   6.425  14.516  0.0196  0.1336 -0.6564
 6145TIP3    H139850   4.817   6.504  14.533 -1.0171  0.6267  0.1615
 6145TIP3    H239851   4.735   6.397  14.602 -0.4875 -0.5774 -1.0631
 6146TIP3   OH239852   3.525   0.441  12.185  0.1043  0.3728  0.4495
 6146TIP3    H139853   3.436   0.415  12.207 -0.2403  0.2619 -1.0413
 6146TIP3    H239854   3.531   0.533  12.211 -0.9148  0.8004 -0.7972
 6147TIP3   OH239855   0.890   1.283  11.684 -0.0419 -0.4452 -0.2000
 6147TIP3    H139856   0.931   1.331  11.757  2.1034 -1.2183 -0.8403
 6147TIP3    H239857   0.825   1.343  11.649  0.3051  0.7143  1.1061
 6148TIP3   OH239858   0.885   5.582  15.892  0.1705 -0.9757  0.5298
 6148TIP3    H139859   0.819   5.513  15.878 -0.8795  0.1144  0.0436
 6148TIP3    H239860   0.912   5.607  15.804 -1.3169  0.9879  0.5807
 6149TIP3   OH239861   1.943   1.145  15.197  0.6286  0.1473 -0.1887
 6149TIP3    H139862   1.944   1.207  15.124  1.2549  1.9894  1.3341
 6149TIP3    H239863   1.869   1.172  15.250  0.9911 -0.3338  0.5630
 6150TIP3   OH239864   6.488   2.828   1.465 -0.0639 -0.0270  0.0520
 6150TIP3    H139865   6.580   2.838   1.492 -0.2120  0.4741  0.3783
 6150TIP3    H239866   6.456   2.918   1.458 -0.4323 -0.1945 -0.4095
 6151TIP3   OH239867   5.952   0.133   6.563 -0.0609 -0.3800 -0.1231
 6151TIP3    H139868   5.943   0.083   6.482  0.6855 -0.6584 -0.0318
 6151TIP3    H239869   6.005   0.209   6.539  0.4548 -0.6414  0.1774
 6152TIP3   OH239870   0.992   3.727   0.713 -0.7945  0.7737 -0.3193
 6152TIP3    H139871   0.924   3.700   0.775  0.8569  1.1986  1.7591
 6152TIP3    H239872   0.983   3.668   0.639 -0.9597 -1.6939  1.6048
 6153TIP3   OH239873   2.781   2.445   3.196 -0.2915  0.2385  0.0080
 6153TIP3    H139874   2.803   2.478   3.283  1.0556  1.2912 -0.7097
 6153TIP3    H239875   2.824   2.360   3.190  0.9935  0.8932 -0.2168
 6154TIP3   OH239876   2.403   4.184  16.420  0.0045 -0.2527  0.4041
 6154TIP3    H139877   2.366   4.242  16.353 -0.8487 -1.7280 -0.4337
 6154TIP3    H239878   2.497   4.187  16.406 -0.2366 -1.2939 -1.4973
 6155TIP3   OH239879   6.556   4.866   3.690  0.0751 -0.5379  0.3247
 6155TIP3    H139880   6.502   4.888   3.614 -1.0383 -0.5147  1.1176
 6155TIP3    H239881   6.635   4.920   3.679  0.6572 -1.7410 -1.6574
 6156TIP3   OH239882   6.043   4.197  11.559  0.3750  0.5163  0.1809
 6156TIP3    H139883   5.954   4.189  11.525  0.5209  0.1534 -0.1153
 6156TIP3    H239884   6.081   4.270  11.510  0.1552  0.8355  0.4892
 6157TIP3   OH239885   1.845   1.116   3.317 -0.0946  0.0224 -0.0367
 6157TIP3    H139886   1.869   1.030   3.352  0.8370  0.0913 -0.4957
 6157TIP3    H239887   1.865   1.177   3.389  2.4853  0.2487 -0.8733
 6158TIP3   OH239888   4.921   1.265   0.696 -0.4928  0.4113 -0.1111
 6158TIP3    H139889   4.945   1.352   0.664 -0.4357  1.0069  1.4761
 6158TIP3    H239890   4.825   1.265   0.693 -0.4873  0.4644 -0.2972
 6159TIP3   OH239891   2.097   3.256  15.333  0.4355 -0.0459  0.0929
 6159TIP3    H139892   2.054   3.260  15.248  0.9170  0.6434 -0.1202
 6159TIP3    H239893   2.134   3.167  15.337  0.2586 -0.1382 -0.3337
 6160TIP3   OH239894   0.548   5.197   5.569 -0.1024 -0.2983  0.3048
 6160TIP3    H139895   0.473   5.138   5.580 -0.6828  0.4018  0.1694
 6160TIP3    H239896   0.558   5.238   5.655 -0.5440  0.3881  0.0320
 6161TIP3   OH239897   1.393   2.664  15.727  0.1822  0.4233  0.1931
 6161TIP3    H139898   1.388   2.722  15.652  0.7272  2.1545  1.4679
 6161TIP3    H239899   1.334   2.592  15.706  1.4447  0.1420 -2.5064
 6162TIP3   OH239900   1.456   2.910  10.954  0.1089  0.5197  0.0874
 6162TIP3    H139901   1.370   2.940  10.925 -0.5728 -0.5174  0.9912
 6162TIP3    H239902   1.454   2.918  11.049  0.4188 -1.0212  0.2475
 6163TIP3   OH239903   4.165   1.841   2.349  0.1426 -0.4658 -0.1932
 6163TIP3    H139904   4.180   1.885   2.265  1.3394  2.1800  1.3631
 6163TIP3    H239905   4.180   1.749   2.330  1.6418  0.2192 -2.6202
 6164TIP3   OH239906   5.064   5.396  13.886  0.2031  0.3682  0.0370
 6164TIP3    H139907   5.123   5.393  13.810 -0.7131  0.6450 -0.6883
 6164TIP3    H239908   4.981   5.428  13.851  0.1440  1.7607  1.3946
 6165TIP3   OH239909   4.425   5.897  10.283  0.4113  0.4489  0.0949
 6165TIP3    H139910   4.347   5.953  10.284 -0.0148 -0.0972 -1.3226
 6165TIP3    H239911   4.493   5.951  10.245  0.8280  1.0371  1.6347
 6166TIP3   OH239912   5.490   6.067   3.924 -0.4612 -0.0608 -0.2523
 6166TIP3    H139913   5.532   5.983   3.942 -0.3764  0.0439  0.0407
 6166TIP3    H239914   5.450   6.092   4.008 -0.5918  0.1299 -0.3722
 6167TIP3   OH239915   6.238   2.741  13.569 -0.2506 -0.0136 -0.3338
 6167TIP3    H139916   6.162   2.723  13.513 -0.9652  0.3702  0.5016
 6167TIP3    H239917   6.224   2.831  13.599  1.0676  0.4226 -1.0040
 6168TIP3   OH239918   4.924   2.764   5.738  0.3319  0.4562  0.0621
 6168TIP3    H139919   4.915   2.668   5.743  0.6670  0.4986  1.9996
 6168TIP3    H239920   4.835   2.796   5.724 -0.1694 -0.0365  1.8789
 6169TIP3   OH239921   1.564   5.961  16.855  0.5650 -0.1596 -0.0350
 6169TIP3    H139922   1.655   5.957  16.826 -0.0188 -0.1927 -1.9304
 6169TIP3    H239923   1.529   5.874  16.836  0.0300 -0.0237  0.3197
 6170TIP3   OH239924   1.041   3.688  13.209 -0.2561  0.3662  0.2817
 6170TIP3    H139925   1.110   3.716  13.148  0.9345 -1.0393  0.9432
 6170TIP3    H239926   0.973   3.652  13.152 -0.0934  1.0256 -0.3418
 6171TIP3   OH239927   4.048   6.731  12.397 -0.3532 -0.3516 -0.0437
 6171TIP3    H139928   4.134   6.756  12.429  0.2658 -0.5323 -1.5379
 6171TIP3    H239929   4.027   6.797  12.331 -1.1512 -0.5818 -0.0290
 6172TIP3   OH239930   3.411   4.752  12.199  0.0127 -0.0999  0.3209
 6172TIP3    H139931   3.360   4.813  12.145 -0.3337 -0.0608  0.6855
 6172TIP3    H239932   3.373   4.761  12.286  0.8808  0.1894  0.6746
 6173TIP3   OH239933   1.776   0.479   3.462  0.0075 -0.6428  0.6633
 6173TIP3    H139934   1.773   0.549   3.527  2.0028  0.0375  0.0453
 6173TIP3    H239935   1.854   0.497   3.409 -0.0101 -2.7531 -0.1647
 6174TIP3   OH239936   3.634   3.220  17.132  0.2516  0.0510  0.1513
 6174TIP3    H139937   3.708   3.195  17.188  1.1082  1.0135 -0.5285
 6174TIP3    H239938   3.675   3.265  17.057 -1.0491  0.9561 -0.0302
 6175TIP3   OH239939   6.342   5.798   5.993 -0.3964  0.2458  0.3860
 6175TIP3    H139940   6.335   5.734   6.063  0.2660 -1.0274 -0.6813
 6175TIP3    H239941   6.267   5.856   6.006 -0.9873 -0.7197  1.3908
 6176TIP3   OH239942   2.894   5.717   4.272  0.8385  0.5998  0.1382
 6176TIP3    H139943   2.855   5.657   4.336  0.2977  0.2507 -0.5110
 6176TIP3    H239944   2.929   5.661   4.204 -1.2661  1.0655 -1.3726
 6177TIP3   OH239945   6.020   1.378   5.597 -0.1764  0.4558  0.4934
 6177TIP3    H139946   6.073   1.451   5.631  0.5975  0.4122 -0.5520
 6177TIP3    H239947   6.005   1.321   5.672  2.9977 -0.5529  0.4320
 6178TIP3   OH239948   5.533   4.517   4.030 -0.0819  0.3389 -0.4185
 6178TIP3    H139949   5.499   4.455   4.094 -0.5661  1.0065 -0.0340
 6178TIP3    H239950   5.539   4.600   4.076 -2.6712  1.3824 -1.8766
 6179TIP3   OH239951   0.236   2.882  11.431 -0.2272 -0.3534 -0.4889
 6179TIP3    H139952   0.185   2.856  11.508  3.9803 -1.2918  2.1595
 6179TIP3    H239953   0.253   2.800  11.384 -0.0761 -0.2312 -0.6494
 6180TIP3   OH239954   4.724   0.009  14.164  0.1276  0.4672 -0.3484
 6180TIP3    H139955   4.723  -0.082  14.193 -1.3318  0.0656 -1.6170
 6180TIP3    H239956   4.644   0.047  14.201  0.7045  1.2394  0.1407
 6181TIP3   OH239957   1.646   3.194  17.070 -0.0310  0.0173  0.6614
 6181TIP3    H139958   1.633   3.155  17.156  0.7476 -2.1100 -0.1582
 6181TIP3    H239959   1.629   3.287  17.083 -1.1360 -0.4654  2.8394
 6182TIP3   OH239960   3.171   2.902  11.594  0.2942  0.0134  0.4718
 6182TIP3    H139961   3.167   2.902  11.498  1.8630 -0.3662  0.3867
 6182TIP3    H239962   3.240   2.838  11.615 -1.0016 -0.9392  1.9046
 6183TIP3   OH239963   3.427   1.266  16.434  0.0540 -0.0275 -0.2886
 6183TIP3    H139964   3.518   1.290  16.453 -0.0057 -0.5361  0.6701
 6183TIP3    H239965   3.375   1.338  16.470 -0.0514 -0.9259  1.3786
 6184TIP3   OH239966   1.652   0.236  14.576 -0.4956 -1.1046 -0.4273
 6184TIP3    H139967   1.561   0.264  14.577 -0.8233 -2.1477 -0.7049
 6184TIP3    H239968   1.701   0.315  14.554 -1.1533 -0.0764  1.6744
 6185TIP3   OH239969   5.553   3.267   5.845  0.2412 -0.0948  0.2795
 6185TIP3    H139970   5.647   3.283   5.851  0.1206  1.9060 -2.3148
 6185TIP3    H239971   5.513   3.338   5.894  0.0118  1.1404 -1.6578
 6186TIP3   OH239972   3.581   4.518   2.034  0.1350 -0.1662  0.0262
 6186TIP3    H139973   3.585   4.424   2.053  0.9395 -0.7882 -2.8913
 6186TIP3    H239974   3.570   4.560   2.119  0.3129 -2.8851  1.4304
 6187TIP3   OH239975   2.235   3.904  12.409  0.4249  0.1647 -0.0014
 6187TIP3    H139976   2.269   3.942  12.490  1.6798 -0.6439 -0.1423
 6187TIP3    H239977   2.140   3.917  12.415  0.3285 -1.2088  2.2994
 6188TIP3   OH239978   0.565   3.000  14.925 -0.1417 -0.9442  0.0787
 6188TIP3    H139979   0.575   2.906  14.940  1.0552 -0.5858  1.6332
 6188TIP3    H239980   0.557   3.038  15.012  0.7164  0.5349 -0.4644
 6189TIP3   OH239981   4.616   2.716   4.753 -0.3327 -0.7445 -0.5733
 6189TIP3    H139982   4.621   2.795   4.699 -1.3374 -0.5495 -0.4021
 6189TIP3    H239983   4.702   2.708   4.793  0.0503 -0.2279 -1.2885
 6190TIP3   OH239984   1.999   6.617  12.146 -0.6582  0.0233  0.6565
 6190TIP3    H139985   2.046   6.698  12.127 -1.5176  0.4785  0.4170
 6190TIP3    H239986   1.920   6.645  12.192 -1.0737 -0.6584  0.3765
 6191TIP3   OH239987   5.767   1.055   0.625 -0.1535  0.6340 -0.5127
 6191TIP3    H139988   5.779   0.996   0.551 -0.7220  1.6904 -1.4502
 6191TIP3    H239989   5.751   0.996   0.700 -1.7271 -0.3694 -1.6128
 6192TIP3   OH239990   1.017   5.025   0.343  0.2362  0.2148 -0.0266
 6192TIP3    H139991   1.082   5.013   0.412 -0.3745 -1.6842  0.2439
 6192TIP3    H239992   0.934   5.037   0.391  0.0686  0.5579 -0.4024
 6193TIP3   OH239993   2.090   6.071  12.917  0.9958 -0.6629  0.5263
 6193TIP3    H139994   2.068   5.994  12.970  0.9622 -0.7855  0.3367
 6193TIP3    H239995   2.159   6.040  12.858  0.9521 -0.5601  0.4218
 6194TIP3   OH239996   1.922   4.045   6.656 -0.1161 -0.2963 -0.1146
 6194TIP3    H139997   1.882   4.130   6.672 -0.5968 -0.5616  0.1031
 6194TIP3    H239998   2.016   4.063   6.650 -0.1769  0.1785  0.3704
 6195TIP3   OH239999   2.857   1.805  14.886  0.2282  0.4208 -0.7645
 6195TIP3    H140000   2.883   1.896  14.874  2.7728 -0.4424 -2.1272
 6195TIP3    H240001   2.846   1.795  14.981 -0.1296  2.1302 -0.6126
 6196TIP3   OH240002   4.157   6.521   0.001 -0.2162  0.4010 -0.0367
 6196TIP3    H140003   4.187   6.438  -0.036 -1.1690 -0.9614  2.0931
 6196TIP3    H240004   4.237   6.571   0.016  0.4422 -0.4752 -0.6023
 6197TIP3   OH240005   4.137   6.196   1.584  0.8478  0.2497 -0.1996
 6197TIP3    H140006   4.118   6.121   1.640  0.7734  0.9314  0.6979
 6197TIP3    H240007   4.078   6.185   1.509  0.0045  0.0351  0.4884
 6198TIP3   OH240008   4.285   4.034  13.054  1.2681 -0.1489  0.1214
 6198TIP3    H140009   4.253   4.096  13.120  0.8452 -0.0431 -0.1870
 6198TIP3    H240010   4.298   3.952  13.103  0.1632 -0.3012  0.1649
 6199TIP3   OH240011   3.447   6.066  11.994  0.0255  0.2067 -0.4942
 6199TIP3    H140012   3.416   6.103  11.911  0.0817 -0.0843 -0.6429
 6199TIP3    H240013   3.525   6.117  12.016  0.3138 -0.0671 -0.8860
 6200TIP3   OH240014   3.242   0.088  15.494  0.1195  0.0645  0.6411
 6200TIP3    H140015   3.233   0.111  15.402 -0.2564 -0.2935  0.5835
 6200TIP3    H240016   3.183   0.012  15.505  1.6126 -1.1028  0.7251
 6201TIP3   OH240017   1.508   5.960  14.923  0.0588  0.1485  0.3723
 6201TIP3    H140018   1.556   5.922  14.849 -2.6624 -2.0923 -0.3326
 6201TIP3    H240019   1.436   6.010  14.883  0.0403  1.0349  1.4609
 6202TIP3   OH240020   2.342   5.066   4.287  0.2542 -0.1795 -0.4091
 6202TIP3    H140021   2.401   5.014   4.233  1.3563  0.9972 -0.3579
 6202TIP3    H240022   2.382   5.065   4.374 -0.3450 -0.2204 -0.1283
 6203TIP3   OH240023   0.512   0.983  12.386 -0.4303  0.0405 -0.0838
 6203TIP3    H140024   0.426   0.999  12.424  0.2315 -1.6732  2.2998
 6203TIP3    H240025   0.533   1.063  12.338 -2.3748  1.3582  1.1903
 6204TIP3   OH240026   3.425   0.826   2.076  0.3089 -0.2667  0.0754
 6204TIP3    H140027   3.339   0.793   2.101 -0.3667 -0.7792 -2.7385
 6204TIP3    H240028   3.419   0.921   2.092 -0.4128 -0.4340  0.8579
 6205TIP3   OH240029   5.631   4.331  14.078  0.5140  0.0519  0.0230
 6205TIP3    H140030   5.721   4.328  14.109  0.5915  1.0303 -0.0787
 6205TIP3    H240031   5.580   4.289  14.147  0.6149  2.7127  1.8053
 6206TIP3   OH240032   0.553   1.117  16.921  0.2913  0.2655  0.1753
 6206TIP3    H140033   0.521   1.178  16.854  0.4037 -0.3564 -0.4445
 6206TIP3    H240034   0.606   1.171  16.979 -0.1920  0.9008  0.0305
 6207TIP3   OH240035   5.569   3.150   5.173  0.5806  0.7981  0.2703
 6207TIP3    H140036   5.539   3.172   5.084  1.8409 -0.1505 -0.3965
 6207TIP3    H240037   5.489   3.123   5.218 -0.5358  3.8408  0.2511
 6208TIP3   OH240038   2.527   2.870  10.680 -0.2691 -0.5907  0.1223
 6208TIP3    H140039   2.567   2.865  10.767 -1.3010 -0.2394  0.6231
 6208TIP3    H240040   2.529   2.963  10.658  0.8775 -0.7894 -0.6620
 6209TIP3   OH240041   2.088   0.546  15.689 -0.4821 -0.2834 -0.9688
 6209TIP3    H140042   2.111   0.639  15.694 -0.8788 -0.2962  1.8596
 6209TIP3    H240043   1.995   0.545  15.667 -0.6764  0.0160 -0.1754
 6210TIP3   OH240044   3.829   1.017   2.299  0.4672  0.1493 -0.3877
 6210TIP3    H140045   3.786   1.038   2.382  0.2333 -0.9897 -0.2191
 6210TIP3    H240046   3.870   1.100   2.272 -1.9730  1.3114 -0.6524
 6211TIP3   OH240047   6.646   1.459   6.920 -0.1381 -0.3809 -0.7315
 6211TIP3    H140048   6.702   1.481   6.846 -0.2663  0.0084 -0.7144
 6211TIP3    H240049   6.675   1.517   6.991 -1.6171  0.9942 -1.1933
 6212TIP3   OH240050   6.400   3.490   5.659 -0.1067 -0.3984  0.1540
 6212TIP3    H140051   6.441   3.404   5.647 -0.1585 -0.3442 -0.4315
 6212TIP3    H240052   6.341   3.499   5.584  0.3257  0.3881 -0.0993
 6213TIP3   OH240053   3.995   5.099  17.141  0.4205  0.3657 -0.0328
 6213TIP3    H140054   3.920   5.142  17.182  1.0304 -0.2182  1.7198
 6213TIP3    H240055   4.070   5.128  17.191  1.0628 -1.1909 -0.0766
 6214TIP3   OH240056   1.480   6.684   3.144  0.2969  0.0834 -0.1398
 6214TIP3    H140057   1.487   6.602   3.193 -0.5967 -0.0574 -0.2316
 6214TIP3    H240058   1.570   6.714   3.135  0.5416 -0.2688  0.9579
 6215TIP3   OH240059   0.032   5.572  13.264  0.2123 -0.0407 -0.5750
 6215TIP3    H140060  -0.040   5.509  13.262  0.3944 -0.2611 -0.0549
 6215TIP3    H240061   0.111   5.520  13.250  0.5036 -0.1361  1.2952
 6216TIP3   OH240062   0.767   2.848  14.495  0.2146  0.0214  0.6972
 6216TIP3    H140063   0.837   2.881  14.438 -1.3320  0.5425 -0.9506
 6216TIP3    H240064   0.700   2.916  14.493 -1.5310 -1.6533  0.0278
 6217TIP3   OH240065   0.785   3.130  12.212 -0.1251 -0.5553 -0.4122
 6217TIP3    H140066   0.861   3.079  12.240  0.2929  0.8298  1.0077
 6217TIP3    H240067   0.735   3.144  12.292 -1.1369 -0.2473 -1.1006
 6218TIP3   OH240068   4.229   0.251  16.386 -0.7709  0.1348  0.8876
 6218TIP3    H140069   4.160   0.186  16.370 -0.7714  0.1105  0.9906
 6218TIP3    H240070   4.207   0.324  16.327 -0.3798 -0.2445  0.2595
 6219TIP3   OH240071   4.195   2.360   3.594  0.5769 -0.2907 -1.0519
 6219TIP3    H140072   4.219   2.450   3.617 -0.2496 -0.7627  1.8501
 6219TIP3    H240073   4.254   2.306   3.645 -2.0021 -1.4022  0.8506
 6220TIP3   OH240074   0.548   1.065   4.904  0.4175  0.1709  0.4445
 6220TIP3    H140075   0.630   1.083   4.950 -0.5713  0.6824  2.0347
 6220TIP3    H240076   0.511   1.151   4.887  0.1953 -0.0641 -0.2605
 6221TIP3   OH240077   2.900   3.760   2.751 -0.7109 -0.0856 -0.5679
 6221TIP3    H140078   2.937   3.847   2.737  3.5402 -2.0290 -2.5197
 6221TIP3    H240079   2.941   3.729   2.832  0.8983 -1.6923 -1.9381
 6222TIP3   OH240080   2.939   1.142   1.010  0.2847  0.1025 -0.1658
 6222TIP3    H140081   2.853   1.117   1.044  0.5194 -0.9406 -0.3176
 6222TIP3    H240082   2.955   1.080   0.938  0.0120  1.9266 -1.8614
 6223TIP3   OH240083   0.806   1.574   5.632 -0.6572  0.8769 -0.0768
 6223TIP3    H140084   0.740   1.629   5.675 -1.0788  0.1236  0.2582
 6223TIP3    H240085   0.785   1.485   5.661  0.5759  0.6390  0.1125
 6224TIP3   OH240086   4.635   5.629  12.599  0.4472 -0.1807 -0.3486
 6224TIP3    H140087   4.616   5.715  12.562  0.4475  0.2065  0.5393
 6224TIP3    H240088   4.645   5.572  12.523 -2.3857 -0.0030 -0.8939
 6225TIP3   OH240089   4.772   1.367   5.062 -0.1126  0.1347 -0.0891
 6225TIP3    H140090   4.714   1.424   5.012 -0.8746 -1.0002 -0.5275
 6225TIP3    H240091   4.849   1.355   5.005 -0.9548 -1.1118 -0.9930
 6226TIP3   OH240092   0.261   3.745  17.084  0.6568  0.4752 -0.0485
 6226TIP3    H140093   0.240   3.663  17.129  1.3793  1.5968  2.4578
 6226TIP3    H240094   0.353   3.735  17.058  1.3352  1.1854  1.9666
 6227TIP3   OH240095   1.434   1.346  10.795 -0.2918 -0.0660 -0.0566
 6227TIP3    H140096   1.413   1.256  10.817 -1.3386  0.3560  0.7269
 6227TIP3    H240097   1.485   1.340  10.714 -1.1867 -1.2880 -0.5341
 6228TIP3   OH240098   1.448   0.504  15.969  0.0728  0.2446 -0.0608
 6228TIP3    H140099   1.385   0.553  15.916 -0.4117  0.1154  0.3957
 6228TIP3    H240100   1.395   0.437  16.013  0.7828 -0.9567 -0.9906
 6229TIP3   OH240101   0.844   4.522   4.313  0.2512  0.4569 -0.2043
 6229TIP3    H140102   0.811   4.525   4.223 -0.5495 -0.7724  0.0387
 6229TIP3    H240103   0.856   4.614   4.337 -1.4606  0.8607 -0.8644
 6230TIP3   OH240104   5.257   4.289  12.285  0.2247  0.3028  0.1894
 6230TIP3    H140105   5.339   4.238  12.280  2.3442  3.5815  0.0347
 6230TIP3    H240106   5.231   4.284  12.376 -0.1731 -1.8698 -0.0120
 6231TIP3   OH240107   4.903   3.720   4.274 -0.4782  0.5098  0.2434
 6231TIP3    H140108   4.982   3.669   4.251 -0.6803  0.0484  0.5550
 6231TIP3    H240109   4.863   3.670   4.345  0.7493  2.4941  2.4094
 6232TIP3   OH240110   2.535   6.559   6.028 -0.1343  0.9769  0.0444
 6232TIP3    H140111   2.559   6.468   6.011 -0.2279  0.7182  1.2219
 6232TIP3    H240112   2.593   6.585   6.100  0.4399  2.0997 -0.8093
 6233TIP3   OH240113   3.990   1.649   1.012  0.5993  0.0486 -0.1469
 6233TIP3    H140114   4.022   1.610   1.093  1.5603 -1.0346 -1.0191
 6233TIP3    H240115   4.027   1.737   1.010 -0.9438  0.7674  1.4618
 6234TIP3   OH240116   0.087   0.937   4.759  0.1092 -0.2055  0.6071
 6234TIP3    H140117   0.122   0.968   4.842 -1.5202 -2.9961  2.4132
 6234TIP3    H240118  -0.004   0.965   4.759  0.0212 -0.4715 -0.1213
 6235TIP3   OH240119   0.186   5.267   3.558 -0.1571 -0.1518 -0.3544
 6235TIP3    H140120   0.232   5.272   3.474  1.8807  0.8171  0.8027
 6235TIP3    H240121   0.253   5.245   3.622 -1.4275  0.5243  1.2652
 6236TIP3   OH240122   2.864   6.213   4.783 -0.1612  0.4503 -0.3336
 6236TIP3    H140123   2.800   6.277   4.813  1.3428  0.4396  3.0498
 6236TIP3    H240124   2.940   6.226   4.839  1.0368 -2.7354 -1.1096
 6237TIP3   OH240125   0.959   6.209   6.201  0.2258  0.5972  0.4659
 6237TIP3    H140126   1.016   6.133   6.191  1.2204  1.0996  2.1380
 6237TIP3    H240127   0.873   6.178   6.172  0.7804 -0.9269  0.3887
 6238TIP3   OH240128   2.289   1.827   1.639  0.3384 -0.1127 -0.4601
 6238TIP3    H140129   2.240   1.843   1.720  2.0688  0.3690  0.5181
 6238TIP3    H240130   2.223   1.798   1.577 -1.0023 -0.6767  1.1774
 6239TIP3   OH240131   6.745   4.790  16.891 -0.2070  0.2084 -0.1863
 6239TIP3    H140132   6.780   4.865  16.939  0.4324 -0.8356  0.9995
 6239TIP3    H240133   6.823   4.746  16.856 -0.6318  0.6348 -1.7163
 6240TIP3   OH240134   6.198   0.925   3.276  0.4376  0.2826  0.2874
 6240TIP3    H140135   6.143   0.987   3.324 -1.6688 -2.1392  1.0947
 6240TIP3    H240136   6.265   0.899   3.339  0.6599  0.8807  0.3012
 6241TIP3   OH240137   0.322   0.176  11.820  0.1876  0.8262 -0.2871
 6241TIP3    H140138   0.241   0.219  11.847  0.3811  1.0437 -0.0377
 6241TIP3    H240139   0.339   0.210  11.732 -0.0044  0.7626 -0.3482
 6242TIP3   OH240140   1.031   5.149  11.553 -0.6308 -0.5634  0.1355
 6242TIP3    H140141   1.124   5.129  11.538 -1.3513 -3.0472 -1.2113
 6242TIP3    H240142   1.017   5.130  11.645 -0.0652 -1.3498  0.0663
 6243TIP3   OH240143   0.440   2.882  16.597 -0.4303  0.1680 -0.3774
 6243TIP3    H140144   0.356   2.909  16.560 -1.2505  0.6036  1.7223
 6243TIP3    H240145   0.497   2.958  16.583 -1.4713  1.3536  1.5245
 6244TIP3   OH240146   0.814   4.943  11.896  0.9317 -0.0973 -0.3255
 6244TIP3    H140147   0.735   4.992  11.919 -0.5299 -1.0709 -2.9441
 6244TIP3    H240148   0.818   4.873  11.961 -1.8104 -1.4764 -1.5268
 6245TIP3   OH240149   2.307   2.093  12.773 -0.1395 -0.1838 -0.4199
 6245TIP3    H140150   2.402   2.101  12.774  0.0338 -2.0651 -1.0281
 6245TIP3    H240151   2.288   2.038  12.697 -1.5517 -1.7831  1.0510
 6246TIP3   OH240152   6.444   2.887  12.561  0.6176  0.2930 -0.1431
 6246TIP3    H140153   6.435   2.895  12.466  0.9989  1.3452 -0.0970
 6246TIP3    H240154   6.417   2.797  12.580 -2.0445  0.8687 -0.9420
 6247TIP3   OH240155   3.781   1.757   1.894  0.3996  0.4572  0.3901
 6247TIP3    H140156   3.769   1.690   1.962 -0.7509 -0.1894 -0.4266
 6247TIP3    H240157   3.835   1.714   1.827 -0.3936  0.3033 -0.1665
 6248TIP3   OH240158   0.375   3.123  11.456  0.2719  0.0367  0.0285
 6248TIP3    H140159   0.321   3.163  11.388 -0.1043  0.6771  0.6936
 6248TIP3    H240160   0.344   3.033  11.462  0.9512 -0.2899 -1.3015
 6249TIP3   OH240161   2.232   1.367  13.482 -0.3091  1.0408 -0.1711
 6249TIP3    H140162   2.321   1.333  13.479 -0.1669  1.3836  0.1024
 6249TIP3    H240163   2.200   1.360  13.392 -1.1681 -2.1787  0.3080
 6250TIP3   OH240164   6.261   3.046   5.254  0.2720  0.1524  0.3956
 6250TIP3    H140165   6.181   3.053   5.306 -1.0261  1.9122 -1.7149
 6250TIP3    H240166   6.269   2.952   5.235 -1.5827  0.0047  0.2342
 6251TIP3   OH240167   3.864   4.683   4.041 -0.5953 -0.1604 -0.0952
 6251TIP3    H140168   3.950   4.677   4.000 -0.6337  0.2262 -0.2385
 6251TIP3    H240169   3.866   4.767   4.087 -0.6490 -0.4696  0.4678
 6252TIP3   OH240170   3.858   2.833   3.622  0.4558  0.5467 -0.1917
 6252TIP3    H140171   3.813   2.875   3.695  0.8190  0.9370 -0.1901
 6252TIP3    H240172   3.935   2.888   3.606 -0.5188  1.4535 -1.9655
 6253TIP3   OH240173   5.069   2.469  16.522 -0.8363 -0.5635  0.0908
 6253TIP3    H140174   5.019   2.548  16.503 -1.8726 -1.4563 -1.0305
 6253TIP3    H240175   5.006   2.410  16.563  0.0879 -0.5924  1.5122
 6254TIP3   OH240176   1.164   5.316   0.500  0.7912 -0.4377  0.3032
 6254TIP3    H140177   1.135   5.382   0.438 -0.5141 -1.2495  0.0291
 6254TIP3    H240178   1.093   5.310   0.564  0.4031 -2.3111 -0.2643
 6255TIP3   OH240179   3.181   4.967  11.456 -0.1094 -0.2907 -0.4748
 6255TIP3    H140180   3.163   4.965  11.362 -0.2078 -0.4465 -0.4507
 6255TIP3    H240181   3.106   4.924  11.496 -1.5402  2.4257 -0.0987
 6256TIP3   OH240182   6.243   1.702   1.606 -0.2742  0.8468 -0.1072
 6256TIP3    H140183   6.308   1.663   1.549 -1.6262 -2.5890  0.5581
 6256TIP3    H240184   6.173   1.731   1.547  0.0368  0.8177 -0.4905
 6257TIP3   OH240185   0.968   2.636  12.416 -0.4536  0.3749  0.4182
 6257TIP3    H140186   0.934   2.597  12.496 -1.4686  1.3107  0.4560
 6257TIP3    H240187   1.009   2.563  12.369  0.8089 -0.0472  2.1128
 6258TIP3   OH240188   1.241   3.461  14.927 -0.7972 -0.4926 -0.4328
 6258TIP3    H140189   1.293   3.525  14.878 -2.0121  0.0227 -1.0935
 6258TIP3    H240190   1.301   3.424  14.990  0.5425 -0.4216 -1.6457
 6259TIP3   OH240191   5.787   3.563   5.389 -0.2352  0.6205 -0.3152
 6259TIP3    H140192   5.798   3.648   5.432 -3.2383  1.2823 -0.6955
 6259TIP3    H240193   5.864   3.554   5.333  0.4613  2.8051  0.2379
 6260TIP3   OH240194   1.867   2.704  11.966  0.1842 -0.0507 -0.3501
 6260TIP3    H140195   1.881   2.730  12.057 -1.0137 -0.0979 -0.1332
 6260TIP3    H240196   1.788   2.751  11.940  0.7915  0.3373 -1.5256
 6261TIP3   OH240197   6.075   3.270  15.026  0.2300 -0.0273  0.8926
 6261TIP3    H140198   6.161   3.282  14.986 -1.1605  1.3077 -1.8116
 6261TIP3    H240199   6.062   3.349  15.079  0.2236  0.2388  0.4900
 6262TIP3   OH240200   1.116   5.372  15.924  0.2701 -0.6379 -0.7841
 6262TIP3    H140201   1.087   5.376  16.015  0.3682 -1.4181 -0.7184
 6262TIP3    H240202   1.105   5.462  15.892 -1.4313 -0.7343 -0.5192
 6263TIP3   OH240203   3.021   1.311   0.321 -0.2531  0.4011  0.1375
 6263TIP3    H140204   2.937   1.353   0.339 -0.5290  0.3253 -0.9410
 6263TIP3    H240205   3.040   1.261   0.400 -1.3066  0.2810  0.3219
 6264TIP3   OH240206   5.799   6.660  13.672 -0.0477 -0.0670  0.2689
 6264TIP3    H140207   5.847   6.740  13.693  1.5832 -0.5764 -1.3856
 6264TIP3    H240208   5.866   6.598  13.645 -1.3136 -1.9259  1.2491
 6265TIP3   OH240209   6.478   5.449  15.688 -0.1487 -0.2739 -0.1059
 6265TIP3    H140210   6.438   5.456  15.774  1.7784  2.4321  0.6412
 6265TIP3    H240211   6.530   5.368  15.692  0.3134  0.0822  1.4529
 6266TIP3   OH240212   0.658   0.957   3.127  0.2042 -0.4292 -0.5497
 6266TIP3    H140213   0.596   0.936   3.057 -0.3093  0.1883 -0.2841
 6266TIP3    H240214   0.719   0.883   3.128 -0.5903 -1.0918 -0.7464
 6267TIP3   OH240215   0.462   5.267   2.163  0.3626 -0.7978  0.4369
 6267TIP3    H140216   0.408   5.345   2.159  0.7769 -0.4895  0.8210
 6267TIP3    H240217   0.543   5.295   2.206  1.5879 -0.8290 -1.7505
 6268TIP3   OH240218   1.365   4.661  14.611 -0.7175 -0.1102 -0.2206
 6268TIP3    H140219   1.422   4.729  14.576 -0.6044  0.5866  1.2645
 6268TIP3    H240220   1.292   4.656  14.549 -0.7068  1.3533 -0.3725
 6269TIP3   OH240221   0.391   3.061   4.179  0.2753  0.5003  0.1401
 6269TIP3    H140222   0.410   3.086   4.088 -0.7265  0.6925 -0.0142
 6269TIP3    H240223   0.308   3.013   4.175 -0.6535  1.9923  1.1768
 6270TIP3   OH240224   0.942   0.805  10.595  0.6979  0.4607 -0.1948
 6270TIP3    H140225   0.993   0.792  10.515  0.5911 -0.8051 -0.0574
 6270TIP3    H240226   0.878   0.734  10.594 -0.2787  1.3308  0.2550
 6271TIP3   OH240227   5.946   2.333   5.628 -0.0038 -0.0121 -0.9965
 6271TIP3    H140228   5.990   2.327   5.543 -1.9659 -1.6155 -1.9342
 6271TIP3    H240229   5.857   2.360   5.607 -0.4391 -0.2114  0.5640
 6272TIP3   OH240230   0.510   1.132   3.888  0.0858  0.4060  1.4279
 6272TIP3    H140231   0.422   1.101   3.867  1.4474 -3.0820  0.5504
 6272TIP3    H240232   0.508   1.150   3.982 -1.4165 -0.1276  1.4967
 6273TIP3   OH240233   5.264   6.616  16.517 -0.4444  0.3419 -0.3562
 6273TIP3    H140234   5.298   6.629  16.606 -3.1613  1.9706  0.5157
 6273TIP3    H240235   5.287   6.696  16.471 -0.8007  0.3680 -0.4948
 6274TIP3   OH240236   0.138   4.418   2.846 -0.5575 -0.1251  0.5606
 6274TIP3    H140237   0.140   4.337   2.795  0.7680 -0.4641  1.1370
 6274TIP3    H240238   0.170   4.393   2.932 -0.8980  0.8611  0.9798
 6275TIP3   OH240239   3.778   6.023  12.926  0.0217 -0.6268  0.9313
 6275TIP3    H140240   3.861   5.985  12.953  0.3991  0.3720  1.2187
 6275TIP3    H240241   3.771   6.006  12.833 -0.8553 -3.3245  1.4509
 6276TIP3   OH240242   6.406   0.424  16.884 -0.0795 -0.5850  0.6247
 6276TIP3    H140243   6.380   0.337  16.915 -1.5552  0.0458  1.2190
 6276TIP3    H240244   6.411   0.416  16.789 -0.3544 -1.2865  0.6655
 6277TIP3   OH240245   3.918   2.234  14.620  0.6743 -0.1419 -0.0333
 6277TIP3    H140246   3.953   2.292  14.687 -0.6825  0.7284 -0.0595
 6277TIP3    H240247   3.889   2.293  14.550 -0.2112 -0.8872 -0.3005
 6278TIP3   OH240248   5.261   0.805  15.557 -0.3590 -0.0514 -0.6653
 6278TIP3    H140249   5.224   0.848  15.634 -1.9941 -0.9270 -0.9291
 6278TIP3    H240250   5.233   0.859  15.483  1.3303  0.8698 -0.6700
 6279TIP3   OH240251   6.433   5.340   5.620 -0.1207 -0.2350  0.5634
 6279TIP3    H140252   6.338   5.346   5.618 -0.2185 -1.5373  0.7238
 6279TIP3    H240253   6.456   5.356   5.712 -0.0562  1.5059  0.2703
 6280TIP3   OH240254   3.680   0.668   2.141  0.3169  0.5747 -0.5727
 6280TIP3    H140255   3.702   0.661   2.234 -1.6188 -2.5530 -0.2637
 6280TIP3    H240256   3.595   0.711   2.140 -0.2021 -0.4296 -0.7754
 6281TIP3   OH240257   3.687   4.163   3.966  0.2052 -0.3858  0.3823
 6281TIP3    H140258   3.722   4.247   3.996 -0.9158  0.2391 -0.0344
 6281TIP3    H240259   3.756   4.126   3.911  1.4418 -0.5779  2.0150
 6282TIP3   OH240260   5.413   6.776   0.831 -0.4224 -0.1687 -0.0197
 6282TIP3    H140261   5.374   6.688   0.831 -2.0437  0.5295 -1.3768
 6282TIP3    H240262   5.407   6.805   0.922 -3.2416 -0.0260 -0.2213
 6283TIP3   OH240263   4.035   6.471  12.320  0.1479 -0.2380 -0.6531
 6283TIP3    H140264   4.111   6.416  12.303  0.8130  0.4257  0.1525
 6283TIP3    H240265   4.071   6.554  12.350 -0.9235 -0.3196  0.8940
 6284TIP3   OH240266   1.215   4.078   4.804 -0.3344 -0.8089  0.1570
 6284TIP3    H140267   1.140   4.090   4.745 -0.3127 -2.2159 -0.1947
 6284TIP3    H240268   1.266   4.007   4.763  1.1282  0.0548  0.4588
 6285TIP3   OH240269   6.455   2.571   0.294  0.1500  0.2651 -0.5604
 6285TIP3    H140270   6.544   2.569   0.328  0.3336  2.0812 -0.8516
 6285TIP3    H240271   6.405   2.618   0.360 -0.1994  0.8438 -1.2280
 6286TIP3   OH240272   4.587   5.865  15.626 -0.2647 -0.3220  0.1428
 6286TIP3    H140273   4.520   5.927  15.598 -0.3553 -0.7657 -0.6534
 6286TIP3    H240274   4.539   5.789  15.658 -0.1527 -0.1893  0.6237
 6287TIP3   OH240275   4.500   1.263  13.364 -0.4417  0.0678 -0.0535
 6287TIP3    H140276   4.499   1.354  13.395 -1.7774 -0.2619  0.9089
 6287TIP3    H240277   4.581   1.226  13.399 -1.4119  0.0139  2.1568
 6288TIP3   OH240278   4.760   6.382   3.155 -0.4128 -0.1796  0.1924
 6288TIP3    H140279   4.695   6.404   3.088  0.4280  2.0283  0.0450
 6288TIP3    H240280   4.760   6.458   3.214  1.6114 -0.3874  0.4955
 6289TIP3   OH240281   4.599   4.661   3.779 -0.3118  0.7267  0.1070
 6289TIP3    H140282   4.627   4.604   3.851  0.4145  0.0199 -0.7178
 6289TIP3    H240283   4.674   4.663   3.719 -0.1532  2.9376  0.3391
 6290TIP3   OH240284   1.577   2.762   3.831 -0.9889 -0.6864 -0.3378
 6290TIP3    H140285   1.561   2.798   3.918 -0.6289 -1.3076 -0.0065
 6290TIP3    H240286   1.578   2.838   3.773  0.9636 -0.0300  0.5072
 6291TIP3   OH240287   6.621   0.972   4.826  0.1247  0.2936  0.0016
 6291TIP3    H140288   6.650   0.905   4.888  3.3802  2.6064  1.0677
 6291TIP3    H240289   6.587   1.043   4.880 -2.0586  0.1535 -1.0958
 6292TIP3   OH240290   5.650   3.401   3.607  0.1345 -0.6741 -0.9747
 6292TIP3    H140291   5.595   3.476   3.631 -0.1982 -1.2848  0.2154
 6292TIP3    H240292   5.686   3.424   3.522  0.8335  1.2949 -0.1671
 6293TIP3   OH240293   4.804   6.391  13.681 -0.2479  0.6825  0.2414
 6293TIP3    H140294   4.770   6.335  13.612  0.5012 -1.0083  1.2084
 6293TIP3    H240295   4.755   6.367  13.759  0.2722  1.1829  0.7359
 6294TIP3   OH240296   3.890   2.143   5.098  0.1406 -0.1455 -0.9471
 6294TIP3    H140297   3.806   2.132   5.143  0.4682 -1.0798 -0.5456
 6294TIP3    H240298   3.876   2.108   5.011  0.2870 -0.8498 -0.6849
 6295TIP3   OH240299   2.693   2.693  17.158  0.1380  0.5778  0.0916
 6295TIP3    H140300   2.631   2.694  17.085  1.8625  1.3892 -1.3901
 6295TIP3    H240301   2.720   2.784  17.168  0.4960  0.3555  1.2492
 6296TIP3   OH240302   6.250   3.312   5.153 -0.2781 -0.6005  0.3542
 6296TIP3    H140303   6.239   3.284   5.244  0.5672  0.3580  0.7689
 6296TIP3    H240304   6.318   3.255   5.118 -0.9722 -1.3164  0.1583
 6297TIP3   OH240305   5.282   2.723  16.893 -0.4034 -0.1610  0.2220
 6297TIP3    H140306   5.187   2.717  16.877 -0.4784  1.1075  0.1198
 6297TIP3    H240307   5.321   2.663  16.830 -1.0298  0.8709 -1.1838
 6298TIP3   OH240308   5.569   4.064   5.350 -0.4631  0.1951 -0.0572
 6298TIP3    H140309   5.492   4.054   5.407 -0.2467  1.9314  0.5509
 6298TIP3    H240310   5.630   4.117   5.401  1.0978 -1.0497 -0.5958
 6299TIP3   OH240311   5.851   3.662  13.168 -0.3150 -0.1501 -0.6281
 6299TIP3    H140312   5.762   3.696  13.155 -0.4653 -0.3357 -0.0688
 6299TIP3    H240313   5.874   3.623  13.083 -1.7665 -2.4414 -0.0070
 6300TIP3   OH240314   3.639   6.646  11.349  0.5854  0.2437  0.1771
 6300TIP3    H140315   3.695   6.622  11.423  0.9172 -1.4204 -0.5912
 6300TIP3    H240316   3.553   6.609  11.371  0.7774 -0.5783 -0.4233
 6301TIP3   OH240317   6.294   4.938  13.319 -0.2060 -0.2076  0.0559
 6301TIP3    H140318   6.300   5.033  13.318  1.3922 -0.2739 -2.3592
 6301TIP3    H240319   6.361   4.910  13.381 -0.5233  0.2133  0.5960
 6302TIP3   OH240320   4.836   6.415  10.359 -0.3442 -0.0577  0.0901
 6302TIP3    H140321   4.863   6.473  10.430  1.7334 -0.9510  0.0523
 6302TIP3    H240322   4.842   6.468  10.280 -0.6039  0.3142  0.3209
 6303TIP3   OH240323   2.883   0.629   5.439  0.4545  0.2810 -0.5864
 6303TIP3    H140324   2.828   0.581   5.378 -1.2981 -1.3585  2.2205
 6303TIP3    H240325   2.829   0.703   5.468 -0.3540 -1.3231  2.1610
 6304TIP3   OH240326   4.070   1.591   4.343  0.2157  0.0113 -0.1042
 6304TIP3    H140327   4.068   1.574   4.248  0.0473 -0.7940  0.0440
 6304TIP3    H240328   4.074   1.504   4.383  1.6837  0.4020  0.6067
 6305TIP3   OH240329   4.201   2.920  13.545 -0.2508 -0.3430 -0.4685
 6305TIP3    H140330   4.228   2.963  13.626 -1.5320  0.4787 -0.4744
 6305TIP3    H240331   4.153   2.987  13.497  0.5898 -0.7794 -1.9749
 6306TIP3   OH240332   1.065   3.719   3.819 -0.2586 -0.3051  0.2715
 6306TIP3    H140333   0.995   3.716   3.885 -1.8261 -2.7881 -1.4321
 6306TIP3    H240334   1.145   3.704   3.868 -1.3357 -1.4620  1.7200
 6307TIP3   OH240335   6.022   0.078   1.528  0.0431  0.3929  0.3623
 6307TIP3    H140336   6.090   0.074   1.461  1.1792  2.3780  1.3482
 6307TIP3    H240337   5.942   0.103   1.481  0.1786 -1.0672 -0.6656
 6308TIP3   OH240338   1.353   4.191   2.485  0.6148 -0.5708  0.3139
 6308TIP3    H140339   1.394   4.136   2.418 -0.7888  1.0280 -1.9389
 6308TIP3    H240340   1.426   4.221   2.539  1.8932 -1.2013 -1.0263
 6309TIP3   OH240341   0.764   2.524  13.601 -0.0963  0.3317 -0.0175
 6309TIP3    H140342   0.770   2.445  13.547 -1.1380 -0.3731  0.8827
 6309TIP3    H240343   0.767   2.596  13.538  1.8000 -0.3848 -0.7713
 6310TIP3   OH240344   2.965   4.747  12.565  0.4579  0.3623  0.1585
 6310TIP3    H140345   3.029   4.676  12.554  2.4625  1.8201  2.0339
 6310TIP3    H240346   2.887   4.704  12.599  0.3049 -1.4888 -2.4008
 6311TIP3   OH240347   1.414   4.574   4.356 -0.0095  0.0805 -0.3449
 6311TIP3    H140348   1.358   4.651   4.354 -0.3714 -0.0635  2.8034
 6311TIP3    H240349   1.356   4.502   4.378  0.9792 -0.4637  0.5196
 6312TIP3   OH240350   0.380   3.097   6.471  0.1067  0.0322 -0.7603
 6312TIP3    H140351   0.361   3.191   6.475 -0.9935 -0.2123  0.2330
 6312TIP3    H240352   0.303   3.060   6.426  0.5306 -0.3928 -1.1345
 6313TIP3   OH240353   0.219   6.442  15.817  0.1239 -0.0298  0.1384
 6313TIP3    H140354   0.266   6.523  15.799  1.8546 -0.9272  0.5012
 6313TIP3    H240355   0.178   6.458  15.902  0.9577  0.2624  0.4975
 6314TIP3   OH240356   1.031   6.057  12.221 -0.6007 -0.4297  0.1635
 6314TIP3    H140357   1.124   6.038  12.205 -0.5223  0.4896 -0.5147
 6314TIP3    H240358   0.999   6.090  12.137 -1.2053  0.5331  0.7646
 6315TIP3   OH240359   0.358   5.510  15.785  0.3396  0.3666  0.6667
 6315TIP3    H140360   0.353   5.605  15.777  2.1556  0.3860 -0.6104
 6315TIP3    H240361   0.342   5.477  15.697  2.5643 -0.3381  0.4743
 6316TIP3   OH240362   1.354   3.987  13.065  0.2940  0.1098  0.4456
 6316TIP3    H140363   1.434   4.021  13.025 -0.3257  0.7816 -0.2488
 6316TIP3    H240364   1.362   4.008  13.158  1.5307 -1.0256  0.6047
 6317TIP3   OH240365   6.025   4.090   4.522 -0.5270  0.2985  0.2405
 6317TIP3    H140366   6.078   4.168   4.506 -1.3309  1.2232  1.9405
 6317TIP3    H240367   6.074   4.041   4.589 -1.1385  0.4703  0.8135
 6318TIP3   OH240368   1.038   4.924  14.322 -0.4862 -0.0830 -0.2754
 6318TIP3    H140369   1.063   5.016  14.327  1.1961 -0.5849  0.7693
 6318TIP3    H240370   0.991   4.917  14.238  2.5709  0.9640 -2.1707
 6319TIP3   OH240371   4.659   1.415   4.779  0.4438  0.2214  0.0531
 6319TIP3    H140372   4.745   1.393   4.743  0.3125  0.4091 -0.3638
 6319TIP3    H240373   4.617   1.330   4.793  1.0082  0.0831  1.0260
 6320TIP3   OH240374   5.238   5.309  10.267 -0.1473 -0.1653  0.2073
 6320TIP3    H140375   5.200   5.339  10.350 -0.2783  1.2490 -0.3558
 6320TIP3    H240376   5.171   5.252  10.230  0.2771 -1.5396  1.4817
 6321TIP3   OH240377   5.048   0.995   0.589 -0.0865  0.5346 -0.1298
 6321TIP3    H140378   4.976   1.030   0.536  1.9263  2.8625 -1.4370
 6321TIP3    H240379   5.073   1.068   0.646 -0.2043 -0.9723  1.8881
 6322TIP3   OH240380   0.276   0.696   0.757  0.0259 -0.4388 -0.0705
 6322TIP3    H140381   0.300   0.669   0.668 -0.9693 -2.6052  0.2915
 6322TIP3    H240382   0.353   0.745   0.788  0.7286 -0.3787 -1.8003
 6323TIP3   OH240383   5.742   2.743  13.961 -0.1326 -0.6318 -0.3893
 6323TIP3    H140384   5.831   2.759  13.929  0.3595 -1.5637  0.4883
 6323TIP3    H240385   5.738   2.649  13.975 -2.1901 -0.9732 -3.0737
 6324TIP3   OH240386   6.654   1.328  12.086  0.3050 -0.4059 -0.1284
 6324TIP3    H140387   6.658   1.395  12.018  0.1417  1.8157  1.9779
 6324TIP3    H240388   6.695   1.369  12.162 -2.7908 -1.4345  2.1951
 6325TIP3   OH240389   3.218   2.450  13.405  0.2992 -0.0354  0.3232
 6325TIP3    H140390   3.138   2.480  13.449  0.1092 -0.0723  0.0079
 6325TIP3    H240391   3.190   2.431  13.316  1.1355  2.1241 -0.4313
 6326TIP3   OH240392   3.077   3.539   1.653  0.0052  0.0952  0.5526
 6326TIP3    H140393   3.065   3.582   1.738  0.1238  0.6374  0.2959
 6326TIP3    H240394   3.082   3.611   1.590 -0.8779 -0.3360 -0.0128
 6327TIP3   OH240395   1.326   3.796   3.653  0.2266 -0.1524  0.7862
 6327TIP3    H140396   1.298   3.718   3.702  0.3919  0.5097  1.9681
 6327TIP3    H240397   1.245   3.841   3.631 -0.0229 -1.9306 -2.1020
 6328TIP3   OH240398   3.296   5.284   3.477 -0.2446 -0.6049 -0.1141
 6328TIP3    H140399   3.203   5.287   3.456 -0.3427  0.4770  0.4151
 6328TIP3    H240400   3.301   5.243   3.563 -0.2394 -0.5576 -0.0916
 6329TIP3   OH240401   6.581   5.395   1.334 -0.0667  0.0406  0.0452
 6329TIP3    H140402   6.522   5.382   1.409  1.7539 -0.0393  1.4961
 6329TIP3    H240403   6.607   5.307   1.308  3.0853  0.2078  2.4288
 6330TIP3   OH240404   2.121   0.301   2.302  0.0349  0.0841  0.1683
 6330TIP3    H140405   2.178   0.238   2.258  0.6607  0.2963  0.6778
 6330TIP3    H240406   2.179   0.352   2.358  0.1185  3.4543 -2.8057
 6331TIP3   OH240407   4.433   2.624  13.308  0.0001 -0.1354 -0.2326
 6331TIP3    H140408   4.516   2.581  13.326  0.3024  0.1181 -1.0078
 6331TIP3    H240409   4.384   2.617  13.390  0.9177  0.0231  0.3370
 6332TIP3   OH240410   1.603   0.306   3.800  0.2673  0.1841 -0.1139
 6332TIP3    H140411   1.611   0.282   3.708  2.9154 -0.8691  0.3426
 6332TIP3    H240412   1.675   0.366   3.816  0.3571 -0.3196  1.4751
 6333TIP3   OH240413   4.891   2.099  13.521 -0.1180 -0.0820  1.0043
 6333TIP3    H140414   4.981   2.128  13.510  0.4169 -2.3934 -1.2635
 6333TIP3    H240415   4.845   2.176  13.554  2.2765  1.7257  0.3002
 6334TIP3   OH240416   3.612   4.627  13.626  0.3965  0.0429  0.2456
 6334TIP3    H140417   3.701   4.652  13.652 -0.3778  1.5904  1.4832
 6334TIP3    H240418   3.555   4.680  13.682 -1.3111 -0.6523 -0.8041
 6335TIP3   OH240419   3.797   4.018   0.080 -0.2084  0.4607 -0.5203
 6335TIP3    H140420   3.719   4.009   0.026 -0.7169  0.0989  0.2621
 6335TIP3    H240421   3.823   4.110   0.071 -0.5820  0.5189 -0.9795
 6336TIP3   OH240422   1.946   4.702   2.955 -0.1073 -0.0108  0.5064
 6336TIP3    H140423   1.857   4.737   2.954 -0.3333 -0.6037 -0.0770
 6336TIP3    H240424   1.940   4.620   2.907  0.2017 -1.3857  2.7619
 6337TIP3   OH240425   2.284   0.995   2.415  0.5892 -0.3564 -0.6206
 6337TIP3    H140426   2.334   0.917   2.391  0.0824 -0.7221 -0.4831
 6337TIP3    H240427   2.211   0.996   2.354  0.0479 -0.5377  0.0194
 6338TIP3   OH240428   0.747   3.810  12.415 -0.5837  0.3013  0.8944
 6338TIP3    H140429   0.712   3.722  12.402  0.1826  0.3790 -1.8800
 6338TIP3    H240430   0.686   3.867  12.367  0.2031  1.0371  0.7607
 6339TIP3   OH240431   3.089   3.277   1.337  0.1926 -0.6311  0.2320
 6339TIP3    H140432   3.043   3.213   1.283 -0.9638  1.4071 -1.2891
 6339TIP3    H240433   3.026   3.299   1.406  0.4780 -0.9152  0.5838
 6340TIP3   OH240434   3.744   5.578  15.570  0.3138  0.0233  0.5962
 6340TIP3    H140435   3.662   5.550  15.528  1.6042  0.6575 -2.5204
 6340TIP3    H240436   3.727   5.668  15.597  0.2017  0.4536 -0.8227
 6341TIP3   OH240437   5.312   2.136  11.924  0.1435  0.0878 -0.0393
 6341TIP3    H140438   5.219   2.117  11.923 -0.0178  0.8768  0.0072
 6341TIP3    H240439   5.329   2.183  11.843  0.8469 -1.6308 -0.9244
 6342TIP3   OH240440   2.164   4.953   0.400 -0.1836 -0.0640  0.3916
 6342TIP3    H140441   2.239   4.942   0.342 -0.7595  1.6849 -0.7080
 6342TIP3    H240442   2.141   4.864   0.427  2.1665 -0.6405  0.6099
 6343TIP3   OH240443   1.465   4.030  17.128 -0.2195  0.1526  0.4407
 6343TIP3    H140444   1.450   4.110  17.078 -1.4022  0.6932  1.6384
 6343TIP3    H240445   1.436   4.051  17.217  0.0445 -1.4047  0.9122
 6344TIP3   OH240446   4.970   3.880  12.982  0.6461 -0.1562 -0.0329
 6344TIP3    H140447   4.896   3.862  13.041  0.2482  0.8481 -0.1978
 6344TIP3    H240448   4.931   3.883  12.895  1.3020 -2.0229 -0.4054
 6345TIP3   OH240449   5.970   3.688   4.524  0.8363  0.2674  0.0827
 6345TIP3    H140450   5.977   3.687   4.619 -1.2958 -0.7723  0.2538
 6345TIP3    H240451   5.986   3.597   4.498 -0.0859  0.2385 -0.4092
 6346TIP3   OH240452   4.037   0.012   2.029  0.0566 -0.0399  0.2128
 6346TIP3    H140453   4.115  -0.044   2.034  0.4954  0.3916 -1.4631
 6346TIP3    H240454   3.994  -0.015   1.949 -0.9936  0.4169  0.6223
 6347TIP3   OH240455   2.944   2.931   1.505  0.0411  0.0526  0.0182
 6347TIP3    H140456   3.020   2.915   1.449  1.5510  1.6628  1.5333
 6347TIP3    H240457   2.876   2.960   1.444  0.7359 -1.0395 -1.3211
 6348TIP3   OH240458   6.102   5.415   4.949  0.2273 -0.2842  0.2399
 6348TIP3    H140459   6.102   5.403   5.044 -1.1205 -1.8124  0.0503
 6348TIP3    H240460   6.189   5.385   4.921  1.5513  2.4443  1.2364
 6349TIP3   OH240461   1.229   1.673  14.452 -0.1493  0.0929  0.2132
 6349TIP3    H140462   1.246   1.701  14.362 -0.2040  0.8801  0.4461
 6349TIP3    H240463   1.149   1.720  14.477  0.3906  0.5952  0.9996
 6350TIP3   OH240464   1.335   4.603  11.287  0.6257  0.4265  0.0514
 6350TIP3    H140465   1.395   4.587  11.214 -0.2119  1.1466 -0.8124
 6350TIP3    H240466   1.252   4.567  11.257  0.7442 -1.0305  1.4534
 6351TIP3   OH240467   5.788   5.015   4.421  0.3875  0.3024 -0.4425
 6351TIP3    H140468   5.807   4.964   4.500 -1.3961  0.4080  0.0836
 6351TIP3    H240469   5.809   5.105   4.445 -1.5092  0.5250  0.3870
 6352TIP3   OH240470   1.465   0.091  12.850 -0.7833 -0.4134 -0.0295
 6352TIP3    H140471   1.544   0.097  12.796 -0.7794  1.5737  0.1712
 6352TIP3    H240472   1.450  -0.003  12.860  1.0488 -0.8061 -0.8112
 6353TIP3   OH240473   3.315   4.022   5.444 -0.3086 -0.7258  0.7705
 6353TIP3    H140474   3.328   4.012   5.539  0.5316 -0.5741  0.6686
 6353TIP3    H240475   3.363   3.949   5.406 -1.6462 -1.4905  0.5206
 6354TIP3   OH240476   6.087   5.207  14.184  0.1995  0.1309  0.0309
 6354TIP3    H140477   6.101   5.246  14.271  0.1755  0.0646  0.0660
 6354TIP3    H240478   6.015   5.145  14.198  1.8762 -1.7389  0.5325
 6355TIP3   OH240479   0.209   4.669   4.079 -0.0849 -0.0127  0.2888
 6355TIP3    H140480   0.159   4.594   4.045 -0.0539  0.3352 -0.5433
 6355TIP3    H240481   0.301   4.640   4.073 -0.0455  0.2460 -0.4382
 6356TIP3   OH240482   2.013   0.709   4.159 -0.0242 -0.8980  0.1931
 6356TIP3    H140483   1.985   0.793   4.122 -1.7725 -0.6342  2.0183
 6356TIP3    H240484   1.948   0.646   4.128  2.2184 -1.9298 -2.5319
 6357TIP3   OH240485   3.843   4.140   5.293 -0.7568 -1.0944 -0.4772
 6357TIP3    H140486   3.760   4.157   5.248  0.1137  0.1689 -1.6664
 6357TIP3    H240487   3.825   4.158   5.385 -1.9567 -1.4264 -0.6334
 6358TIP3   OH240488   4.526   2.848   1.808  0.0507 -0.0075  0.2074
 6358TIP3    H140489   4.439   2.887   1.793  0.3649  1.1577  1.3363
 6358TIP3    H240490   4.555   2.886   1.891  2.4108  0.9665 -1.0534
 6359TIP3   OH240491   1.779   6.615   4.871 -0.3599 -0.0631 -0.4031
 6359TIP3    H140492   1.810   6.540   4.923 -2.0945 -0.5834 -0.1074
 6359TIP3    H240493   1.847   6.626   4.804  1.9241  0.6145  1.9194
 6360TIP3   OH240494   1.555   6.466  13.305  0.1850  0.0729  0.6122
 6360TIP3    H140495   1.512   6.488  13.222  1.5868  0.4489 -0.0309
 6360TIP3    H240496   1.483   6.441  13.363 -0.7984 -0.4460 -0.7947
 6361TIP3   OH240497   2.651   4.129   4.827 -0.2620  0.3758  0.2133
 6361TIP3    H140498   2.734   4.172   4.810 -0.9202  1.7407  0.4162
 6361TIP3    H240499   2.655   4.102   4.918 -0.4568  1.3999  0.5326
 6362TIP3   OH240500   2.411   0.692   0.750 -0.0276 -0.1671  0.2825
 6362TIP3    H140501   2.493   0.696   0.799 -0.6036 -0.4989  1.2925
 6362TIP3    H240502   2.370   0.610   0.778  0.8445 -1.7089 -2.7160
 6363TIP3   OH240503   6.558   5.258  12.334  0.1060  0.0593  0.1130
 6363TIP3    H140504   6.589   5.348  12.327 -0.9545  0.2394 -3.2547
 6363TIP3    H240505   6.478   5.264  12.385  0.4383  0.9065  0.5444
 6364TIP3   OH240506   3.310   5.007  15.938 -0.1297  0.0819 -0.6618
 6364TIP3    H140507   3.349   4.932  15.985 -2.3888 -0.1142  0.9642
 6364TIP3    H240508   3.216   5.000  15.956 -0.1912  4.3740  1.0432
 6365TIP3   OH240509   3.302   3.389   1.664  0.0161  0.0009  0.2395
 6365TIP3    H140510   3.270   3.310   1.619 -0.8806  0.0909  0.7028
 6365TIP3    H240511   3.231   3.452   1.654  0.0994  0.2531  1.1713
 6366TIP3   OH240512   6.039   2.171   0.582  0.2553  0.1886 -0.6830
 6366TIP3    H140513   6.128   2.141   0.603 -0.0615 -0.6681 -0.5359
 6366TIP3    H240514   6.050   2.229   0.507  0.8877 -0.2313 -0.9151
 6367TIP3   OH240515   6.313   5.383  15.941  0.1314 -0.1398  0.2078
 6367TIP3    H140516   6.355   5.391  16.026  0.7912  0.7849 -0.1929
 6367TIP3    H240517   6.276   5.294  15.940 -0.3755  0.0424  1.6643
 6368TIP3   OH240518   3.493   5.110  14.625  0.1011 -0.6218  0.0788
 6368TIP3    H140519   3.421   5.107  14.689  0.7833  0.6542  0.9267
 6368TIP3    H240520   3.571   5.091  14.677  0.5160 -0.8498 -0.6325
 6369TIP3   OH240521   0.915   1.342  11.970  0.3986  0.2591  0.1923
 6369TIP3    H140522   0.942   1.415  11.915 -1.0648 -1.0479 -2.3200
 6369TIP3    H240523   0.829   1.369  12.004  0.5891  0.3713  0.6002
 6370TIP3   OH240524   2.403   0.207   1.577 -0.3457  0.3073 -0.2827
 6370TIP3    H140525   2.470   0.140   1.567  1.2758  1.9615 -0.7422
 6370TIP3    H240526   2.320   0.159   1.573  0.7307 -1.4852 -2.2199
 6371TIP3   OH240527   2.874   1.306  16.578  0.4144  0.1130 -0.7396
 6371TIP3    H140528   2.843   1.216  16.586 -2.0094  0.9847  0.2474
 6371TIP3    H240529   2.880   1.337  16.668  0.2711  1.2377 -1.1099
 6372TIP3   OH240530   5.720   5.789   1.377  0.4732  0.7209 -0.6555
 6372TIP3    H140531   5.793   5.840   1.412  1.6243 -0.9227 -0.6107
 6372TIP3    H240532   5.706   5.825   1.289  0.4199  1.9562 -0.1568
 6373TIP3   OH240533   1.501   6.649  16.987 -0.5023 -0.3867  0.0542
 6373TIP3    H140534   1.504   6.569  16.934  0.0019  0.6042 -1.4553
 6373TIP3    H240535   1.502   6.618  17.077  0.7692 -2.0581 -0.5068
 6374TIP3   OH240536   1.388   3.844   4.415  0.1303  0.4562 -0.5305
 6374TIP3    H140537   1.395   3.834   4.510  2.6208  2.9582 -0.3732
 6374TIP3    H240538   1.439   3.771   4.380 -0.7793 -0.4673  0.0249
 6375TIP3   OH240539   2.945   0.852   3.105 -0.3100  0.0077 -0.3288
 6375TIP3    H140540   2.888   0.788   3.062 -0.3445 -0.2355  0.0745
 6375TIP3    H240541   2.899   0.935   3.094 -0.0842  0.0198 -1.1709
 6376TIP3   OH240542   2.419   3.159   1.640 -0.0303  0.6090 -0.5515
 6376TIP3    H140543   2.414   3.245   1.680 -1.8993  0.3561 -0.1926
 6376TIP3    H240544   2.464   3.174   1.557 -1.9694  2.2950 -1.3616
 6377TIP3   OH240545   0.594   4.395   4.413  0.0358  0.1696  0.3335
 6377TIP3    H140546   0.535   4.415   4.340  0.2282 -0.6097 -0.0462
 6377TIP3    H240547   0.680   4.424   4.383 -0.1462  1.2990  0.8833
 6378TIP3   OH240548   1.332   3.196   4.174  0.1950  0.0046  0.3338
 6378TIP3    H140549   1.241   3.169   4.165  0.9763 -2.1665 -1.5876
 6378TIP3    H240550   1.355   3.174   4.264 -0.8769 -0.3747  0.5197
 6379TIP3   OH240551   2.449   0.171   4.312  0.0510  0.2782  0.1800
 6379TIP3    H140552   2.436   0.245   4.371  0.2872  0.3265  0.1720
 6379TIP3    H240553   2.426   0.205   4.225 -0.6745  0.0957  0.2993
 6380TIP3   OH240554   5.242   0.497  15.661  0.1001  0.1422 -0.0302
 6380TIP3    H140555   5.310   0.486  15.594 -1.3504 -0.3405 -1.4357
 6380TIP3    H240556   5.238   0.592  15.674  0.6281  0.2190 -0.3936
 6381TIP3   OH240557   6.530   5.454  13.127  0.6719 -0.1922  0.5494
 6381TIP3    H140558   6.623   5.464  13.108  0.4940 -0.7369 -0.6534
 6381TIP3    H240559   6.492   5.539  13.107  0.4079 -0.8915 -2.0754
 6382TIP3   OH240560   4.935   3.438   0.134 -0.2679  0.1186 -0.2758
 6382TIP3    H140561   4.897   3.478   0.055 -0.0842 -1.0009 -0.9290
 6382TIP3    H240562   4.958   3.513   0.189 -0.1421  0.9224 -1.3981
 6383TIP3   OH240563   3.209   1.343   5.173  0.2413  0.4772 -0.0437
 6383TIP3    H140564   3.122   1.304   5.161  0.3250  1.1338 -3.1976
 6383TIP3    H240565   3.190   1.431   5.207 -0.3416  0.6622 -0.8322
 6384TIP3   OH240566   6.201   4.844   3.965 -0.2917 -0.2063  0.5446
 6384TIP3    H140567   6.211   4.754   3.934  1.2073  0.3556 -0.6636
 6384TIP3    H240568   6.132   4.839   4.031 -2.1900 -1.7774 -1.5026
 6385TIP3   OH240569   1.260   5.230  12.874  0.1136  0.2589  0.1409
 6385TIP3    H140570   1.306   5.251  12.793 -0.3040  1.0489  0.1080
 6385TIP3    H240571   1.174   5.270  12.864 -0.5520 -1.1144  0.2484
 6386TIP3   OH240572   0.315   0.685   1.891  0.1087  0.3826 -0.0384
 6386TIP3    H140573   0.314   0.738   1.811 -1.5353 -0.3678 -0.5298
 6386TIP3    H240574   0.226   0.650   1.898  0.4252 -0.1233  1.7516
 6387TIP3   OH240575   6.785   5.393  15.519  0.4506  0.7434  0.0225
 6387TIP3    H140576   6.717   5.349  15.569 -0.0083  0.1807 -1.0906
 6387TIP3    H240577   6.763   5.376  15.427  0.8028  2.4653 -0.4068
 6388TIP3   OH240578   1.325   5.411   3.157 -0.5318 -0.0580 -0.4175
 6388TIP3    H140579   1.370   5.374   3.233 -0.7694 -0.1781 -0.3370
 6388TIP3    H240580   1.317   5.505   3.178 -0.8946 -0.1489 -0.1488
 6389TIP3   OH240581   3.688   0.117  11.260 -0.0375 -0.1504 -0.4509
 6389TIP3    H140582   3.694   0.027  11.292 -0.0314 -0.0803 -0.2540
 6389TIP3    H240583   3.594   0.134  11.254 -0.0436  0.0929  0.2596
 6390TIP3   OH240584   1.130   4.391   3.284  0.2074  0.2085 -0.1472
 6390TIP3    H140585   1.097   4.329   3.349  0.4032  0.5416  0.2662
 6390TIP3    H240586   1.051   4.427   3.244  0.0882 -0.8660 -0.9327
 6391TIP3   OH240587   3.798   0.205   0.508 -0.5754 -0.1399  0.2677
 6391TIP3    H140588   3.847   0.133   0.547 -0.5107  0.6617  1.6788
 6391TIP3    H240589   3.732   0.228   0.573 -0.1702  1.5109  0.1083
 6392TIP3   OH240590   3.970   0.908  14.546  0.0001  0.1775  0.3091
 6392TIP3    H140591   4.035   0.866  14.489 -0.9375 -0.2783 -0.4354
 6392TIP3    H240592   3.906   0.839  14.562  0.4770  0.1610  2.2856
 6393TIP3   OH240593   1.135   5.070  13.417  0.2567 -0.4265  0.1362
 6393TIP3    H140594   1.213   5.053  13.363  0.8347  1.5031  0.3264
 6393TIP3    H240595   1.161   5.043  13.505 -0.1191 -2.0202 -0.2265
 6394TIP3   OH240596   5.624   4.930   2.837  0.8053 -0.0059  0.0953
 6394TIP3    H140597   5.627   5.006   2.895  0.9649 -0.3880  0.5929
 6394TIP3    H240598   5.537   4.892   2.850  0.4366  0.5437 -0.7394
 6395TIP3   OH240599   5.496   1.156  11.501  0.4327  0.2090  0.0590
 6395TIP3    H140600   5.567   1.136  11.561 -0.0272  0.7785  0.7989
 6395TIP3    H240601   5.469   1.071  11.466  0.4575 -0.1659  0.9362
 6396TIP3   OH240602   0.341   3.271  16.767 -0.4400  0.3220 -0.4786
 6396TIP3    H140603   0.340   3.176  16.778 -0.8871  0.2854 -0.8263
 6396TIP3    H240604   0.275   3.303  16.827  0.7832  0.5448  0.7741
 6397TIP3   OH240605   2.449   1.921   0.906 -0.3741 -0.0038  0.3080
 6397TIP3    H140606   2.505   1.973   0.963  0.4774  0.9723 -1.3483
 6397TIP3    H240607   2.415   1.984   0.842  1.2136 -1.5523 -2.1461
 6398TIP3   OH240608   3.379   0.214  16.290  0.2116 -0.1332  0.1815
 6398TIP3    H140609   3.426   0.205  16.373 -0.2372 -0.5939  0.3858
 6398TIP3    H240610   3.334   0.130  16.278 -0.4293  0.2432 -0.0941
 6399TIP3   OH240611   6.399   1.090  13.368  0.2079 -0.3177  0.7286
 6399TIP3    H140612   6.494   1.102  13.366  0.0443  1.0358 -1.9044
 6399TIP3    H240613   6.386   1.001  13.398  2.3558 -0.7346  0.4729
 6400TIP3   OH240614   4.283   1.820   1.212  0.0911  0.0071  0.1228
 6400TIP3    H140615   4.194   1.853   1.197  0.1525  0.4879  0.7815
 6400TIP3    H240616   4.337   1.898   1.218  0.3731 -0.2389  0.8784
 6401TIP3   OH240617   2.091   5.574  12.390  0.3667 -0.5097 -0.3586
 6401TIP3    H140618   2.006   5.593  12.428 -0.0951  0.2854 -1.7243
 6401TIP3    H240619   2.133   5.515  12.452 -0.2779  0.8761  1.4403
 6402TIP3   OH240620   3.696   3.459  16.706  0.3076  0.6117  0.1145
 6402TIP3    H140621   3.635   3.440  16.635  0.6884 -0.2039 -0.0015
 6402TIP3    H240622   3.656   3.420  16.784  1.3639 -1.2404 -0.2273
 6403TIP3   OH240623   0.864   1.779  11.660 -0.1332 -0.3285 -0.0975
 6403TIP3    H140624   0.878   1.871  11.680  1.6919 -0.7148  0.4562
 6403TIP3    H240625   0.779   1.777  11.616 -0.9468  1.4076  1.3336
 6404TIP3   OH240626   4.971   3.351  11.506  0.1785 -0.9197  0.2739
 6404TIP3    H140627   4.987   3.296  11.583  0.4762  0.0002  0.8694
 6404TIP3    H240628   5.032   3.318  11.440  0.5588 -1.1182  0.7239
 6405TIP3   OH240629   6.353   6.560   4.483 -0.1422 -0.1851 -0.2659
 6405TIP3    H140630   6.347   6.567   4.579  0.5910 -1.3225 -0.1358
 6405TIP3    H240631   6.447   6.553   4.465 -0.0235  3.2628 -1.3144
 6406TIP3   OH240632   4.054   3.062   0.716 -0.1122  0.0226 -0.1999
 6406TIP3    H140633   4.081   3.047   0.806  1.7058 -1.3766 -0.9239
 6406TIP3    H240634   4.094   3.145   0.692  2.5929 -1.3841 -0.8312
 6407TIP3   OH240635   2.884   0.120   1.482  0.4405 -0.7843  0.6536
 6407TIP3    H140636   2.891   0.025   1.479  1.3695 -0.7400  1.1161
 6407TIP3    H240637   2.974   0.151   1.478  0.1463  0.0776  0.5139
 6408TIP3   OH240638   4.142   1.767  14.281 -0.0147 -0.1884  0.1709
 6408TIP3    H140639   4.104   1.854  14.266 -0.3627 -0.0650  1.7486
 6408TIP3    H240640   4.069   1.712  14.307  0.7902 -0.0404  2.8490
 6409TIP3   OH240641   3.932   2.597   5.314  0.3677 -0.1506 -0.5501
 6409TIP3    H140642   3.949   2.536   5.242  1.3795 -1.7612  1.0082
 6409TIP3    H240643   3.884   2.545   5.379 -1.5403  1.5914 -0.5243
 6410TIP3   OH240644   3.105   6.614   4.497 -0.5580  0.5787 -0.1010
 6410TIP3    H140645   3.041   6.590   4.430 -1.4769 -1.5846  1.4877
 6410TIP3    H240646   3.092   6.708   4.510  1.2068  1.5347 -4.5160
 6411TIP3   OH240647   2.487   5.116   4.527 -0.1041 -0.5673  0.0499
 6411TIP3    H140648   2.565   5.062   4.541  0.3008 -0.5226 -1.9960
 6411TIP3    H240649   2.494   5.185   4.592  2.6618  0.6451 -1.4713
 6412TIP3   OH240650   6.356   0.097  12.670 -0.4072 -0.2904  0.3114
 6412TIP3    H140651   6.338   0.188  12.694 -1.1931 -0.6613  1.1381
 6412TIP3    H240652   6.355   0.097  12.574  0.7019  0.7896  0.2821
 6413TIP3   OH240653   1.283   6.095   2.867  0.2690 -0.0092 -0.0751
 6413TIP3    H140654   1.221   6.027   2.894 -0.0796  0.0144 -0.8045
 6413TIP3    H240655   1.369   6.057   2.887  0.0625 -0.5176 -0.1292
 6414TIP3   OH240656   5.655   1.302  12.685  0.1835  0.1613  0.5267
 6414TIP3    H140657   5.560   1.314  12.692  0.2942  2.3333 -1.2101
 6414TIP3    H240658   5.667   1.249  12.607  0.4900  1.8573 -0.6052
 6415TIP3   OH240659   4.979   2.810  11.793 -0.6153 -0.1406 -0.1118
 6415TIP3    H140660   4.945   2.832  11.707  0.3954 -0.3670 -0.5813
 6415TIP3    H240661   4.924   2.859  11.854 -0.0704  1.6154 -0.9925
 6416TIP3   OH240662   2.043   0.921   6.020 -0.2248  0.3888 -0.2443
 6416TIP3    H140663   1.954   0.890   6.002  0.0943 -0.5658 -0.2276
 6416TIP3    H240664   2.046   0.930   6.115 -0.2591  0.2821 -0.2324
 6417TIP3   OH240665   2.350   4.732   0.550  0.0430 -0.0218 -0.7575
 6417TIP3    H140666   2.279   4.752   0.612 -1.4692  0.5378 -2.6344
 6417TIP3    H240667   2.335   4.641   0.525  1.9060 -0.9377  1.2550
 6418TIP3   OH240668   2.479   0.848  13.959 -0.2505  0.6230  0.2422
 6418TIP3    H140669   2.518   0.921  14.007 -0.6499  1.4387 -0.6560
 6418TIP3    H240670   2.554   0.806  13.915 -0.2164  1.4890 -0.5495
 6419TIP3   OH240671   0.903   4.183   5.579  0.8296  0.3807 -1.0237
 6419TIP3    H140672   0.847   4.256   5.553  0.2039  0.8544  1.5011
 6419TIP3    H240673   0.852   4.105   5.560 -0.4431  0.7864  0.6092
 6420TIP3   OH240674   0.446   3.352   2.881  0.3098  0.0994 -0.0686
 6420TIP3    H140675   0.356   3.334   2.907 -0.4323 -1.3513 -3.3681
 6420TIP3    H240676   0.490   3.267   2.884  0.7820  0.2921 -1.2785
 6421TIP3   OH240677   3.528   5.947   5.050  1.0087 -0.5089  0.0962
 6421TIP3    H140678   3.459   6.007   5.022  1.6864  1.2528  2.0891
 6421TIP3    H240679   3.521   5.944   5.145  1.7322 -2.7269  0.1121
 6422TIP3   OH240680   4.475   3.107   3.663 -0.0773 -0.2750 -0.0864
 6422TIP3    H140681   4.459   3.121   3.757 -2.4771 -2.6251 -0.1019
 6422TIP3    H240682   4.404   3.155   3.620 -0.2404 -0.9912 -0.6137
 6423TIP3   OH240683   3.924   6.749  13.070  0.1110 -0.5059 -0.0586
 6423TIP3    H140684   3.993   6.814  13.059 -0.0330 -0.3705 -0.1606
 6423TIP3    H240685   3.887   6.739  12.982 -1.6019  1.2072  0.4279
 6424TIP3   OH240686   6.616   5.224   0.314  0.1862 -0.3921 -0.1122
 6424TIP3    H140687   6.704   5.190   0.331  1.2249  0.9696 -2.4210
 6424TIP3    H240688   6.630   5.296   0.253 -2.3897  1.0974  0.9854
 6425TIP3   OH240689   1.945   3.072  14.257  0.2275  0.1024  0.3753
 6425TIP3    H140690   1.961   3.146  14.315  2.1642  0.0750 -0.0975
 6425TIP3    H240691   2.000   3.002  14.291 -1.2089 -0.9855  0.5207
 6426TIP3   OH240692   2.207   5.006  12.990  0.2282  0.2605 -0.4623
 6426TIP3    H140693   2.261   4.929  12.978  0.2142  0.0024  1.0396
 6426TIP3    H240694   2.121   4.981  12.954  1.0190  0.6223 -2.6946
 6427TIP3   OH240695   3.845   5.758  13.220 -0.0830 -0.0799  0.6310
 6427TIP3    H140696   3.916   5.822  13.208  1.1539 -1.8151 -1.9133
 6427TIP3    H240697   3.871   5.708  13.297  1.3388 -0.4740 -0.0709
 6428TIP3   OH240698   0.351   2.079  16.068 -0.1979  0.8238 -0.7656
 6428TIP3    H140699   0.408   2.148  16.034 -0.5365  1.2410 -0.4956
 6428TIP3    H240700   0.283   2.070  16.001  0.8457 -0.5212 -1.6655
 6429TIP3   OH240701   5.246   3.805  16.929  0.0063 -0.2010  0.5463
 6429TIP3    H140702   5.202   3.789  16.846  0.0045 -0.9199  0.6865
 6429TIP3    H240703   5.234   3.724  16.979 -1.1621  0.6808  1.7631
 6430TIP3   OH240704   1.745   0.214   0.138  0.3977  0.4811 -0.0105
 6430TIP3    H140705   1.755   0.263   0.220 -1.2244 -1.5221  1.4252
 6430TIP3    H240706   1.786   0.129   0.155 -1.3609 -0.5350 -0.6965
 6431TIP3   OH240707   5.442   5.480  10.618  0.2241 -0.0903 -0.0475
 6431TIP3    H140708   5.444   5.576  10.609 -0.8160 -0.1140 -0.5969
 6431TIP3    H240709   5.522   5.459  10.666  0.7487  1.0084 -0.4165
 6432TIP3   OH240710   3.046   1.523   4.367  0.0104  0.5687  0.3144
 6432TIP3    H140711   2.961   1.541   4.328 -0.8831 -1.6462  1.1872
 6432TIP3    H240712   3.066   1.432   4.342  0.6628  0.0123  2.7097
 6433TIP3   OH240713   2.120   6.511  15.850 -0.4693  0.2502 -0.4284
 6433TIP3    H140714   2.153   6.439  15.796 -2.1842 -0.8051 -0.1086
 6433TIP3    H240715   2.190   6.528  15.913 -0.0496 -1.1673 -0.5009
 6434TIP3   OH240716   4.026   0.572   4.060 -0.1641 -0.0265  0.2662
 6434TIP3    H140717   4.069   0.613   4.135 -0.5804 -0.7224  0.8946
 6434TIP3    H240718   3.989   0.491   4.095 -0.9427 -0.0290 -0.5380
 6435TIP3   OH240719   6.248   5.184  10.953  0.4555 -0.3818  0.0213
 6435TIP3    H140720   6.183   5.228  11.009  0.5647  0.1871 -0.3010
 6435TIP3    H240721   6.197   5.148  10.881  0.3816 -0.6903  0.2255
 6436TIP3   OH240722   2.106   2.709  13.469  0.0853  0.1291 -0.2841
 6436TIP3    H140723   2.149   2.649  13.408 -0.2089 -0.1676 -0.2047
 6436TIP3    H240724   2.071   2.779  13.414  0.4222  0.2209 -0.3787
 6437TIP3   OH240725   6.646   5.024   0.102 -0.0288  0.3830 -0.4163
 6437TIP3    H140726   6.602   5.058   0.180  1.3376 -0.4763  0.7349
 6437TIP3    H240727   6.728   5.074   0.096  0.4788 -0.4609 -0.5607
 6438TIP3   OH240728   6.312   1.323  14.504 -0.3430  0.4438 -0.2826
 6438TIP3    H140729   6.243   1.308  14.440 -2.8328 -0.5814  2.5408
 6438TIP3    H240730   6.266   1.337  14.586  2.8021  0.6260  1.5192
 6439TIP3   OH240731   0.259   2.879   4.907 -0.2857  0.0399 -0.3835
 6439TIP3    H140732   0.285   2.790   4.929 -1.3345  0.0147  0.8143
 6439TIP3    H240733   0.333   2.933   4.937  0.4186 -0.4176 -1.2529
 6440TIP3   OH240734   6.659   5.216  15.714 -0.1282 -0.4681 -0.4980
 6440TIP3    H140735   6.648   5.146  15.648 -0.3772 -0.3164 -0.6202
 6440TIP3    H240736   6.647   5.171  15.798  1.3456 -0.8771 -0.5026
 6441TIP3   OH240737   1.740   2.886  11.088  0.3669 -0.0728 -0.4303
 6441TIP3    H140738   1.678   2.867  11.018  2.0364 -1.7482 -1.4850
 6441TIP3    H240739   1.814   2.929  11.044  0.3967  1.0522  0.6775
 6442TIP3   OH240740   4.446   3.334   4.640  0.1003 -0.2463 -0.0448
 6442TIP3    H140741   4.440   3.425   4.670  0.1627 -0.6354  1.1879
 6442TIP3    H240742   4.505   3.292   4.702  0.3378 -1.0575 -0.8080
 6443TIP3   OH240743   6.648   0.188  11.155  0.6229  0.3786  0.1404
 6443TIP3    H140744   6.670   0.100  11.124 -1.0805 -0.3858  1.0559
 6443TIP3    H240745   6.564   0.208  11.113 -1.2815 -0.3082  3.4628
 6444TIP3   OH240746   1.939   4.369  13.080 -0.4300 -0.0851 -0.4957
 6444TIP3    H140747   1.988   4.435  13.129 -0.2761 -0.1586 -0.5511
 6444TIP3    H240748   1.934   4.405  12.991 -2.1533  0.8461 -0.0576
 6445TIP3   OH240749   5.098   1.412   3.721 -0.0374 -0.3135  0.0921
 6445TIP3    H140750   5.174   1.371   3.680 -0.1781 -0.2644 -0.2212
 6445TIP3    H240751   5.118   1.412   3.815 -0.1140 -1.2665  0.1123
 6446TIP3   OH240752   1.394   5.867  12.989 -0.2519  0.5826 -0.7995
 6446TIP3    H140753   1.375   5.879  12.896 -1.2378 -2.5652 -1.0800
 6446TIP3    H240754   1.479   5.824  12.991 -0.1643  0.7713 -0.2412
 6447TIP3   OH240755   1.007   2.295   2.451 -0.3217  0.2324 -0.4998
 6447TIP3    H140756   1.007   2.239   2.373  1.9552  1.2270 -1.2467
 6447TIP3    H240757   1.092   2.279   2.492 -1.2928  0.0924  1.5436
 6448TIP3   OH240758   5.281   6.056   4.138 -0.6122 -0.2123  0.1096
 6448TIP3    H140759   5.202   6.111   4.140 -0.4568 -0.0225  1.4939
 6448TIP3    H240760   5.259   5.984   4.079 -1.8529 -0.2034  0.5458
 6449TIP3   OH240761   0.832   2.140  14.793 -0.2611 -0.0647  0.5022
 6449TIP3    H140762   0.879   2.193  14.729  0.0598 -0.8335  0.0924
 6449TIP3    H240763   0.899   2.116  14.858  0.1674 -1.9476 -0.5806
 6450TIP3   OH240764   6.652   6.672   4.982  0.0122 -0.6929  0.2517
 6450TIP3    H140765   6.693   6.586   4.978  0.9332 -0.3703  2.1400
 6450TIP3    H240766   6.599   6.670   5.062 -2.0376 -0.3804 -1.0450
 6451TIP3   OH240767   6.011   0.796  13.566 -0.3985  0.4047 -0.2026
 6451TIP3    H140768   5.974   0.749  13.491 -1.8211  0.2732  0.5741
 6451TIP3    H240769   5.970   0.882  13.564 -0.3496  0.4408  0.3714
 6452TIP3   OH240770   2.157   1.897  11.370  0.0486 -0.2641 -0.8240
 6452TIP3    H140771   2.140   1.920  11.462  1.7014 -0.0740 -0.5509
 6452TIP3    H240772   2.070   1.892  11.330 -0.8459 -2.5338  1.2802
 6453TIP3   OH240773   1.082   2.701   4.615  0.3931  0.4480 -0.2025
 6453TIP3    H140774   1.014   2.642   4.582  0.8602 -0.8445  1.1183
 6453TIP3    H240775   1.077   2.693   4.710  1.6917  1.1657 -0.0603
 6454TIP3   OH240776   1.142   1.146   5.480  0.5237 -0.3308  0.2195
 6454TIP3    H140777   1.117   1.075   5.539 -1.4723 -1.1505 -1.5412
 6454TIP3    H240778   1.061   1.197   5.469  0.4350 -1.0399 -2.9121
 6455TIP3   OH240779   4.365   3.309   1.702  0.4564 -0.2503 -0.0899
 6455TIP3    H140780   4.306   3.292   1.775 -0.1168  0.7707 -0.3043
 6455TIP3    H240781   4.429   3.371   1.738  0.7295 -0.4846 -0.1760
 6456TIP3   OH240782   4.559   4.767  13.887 -0.1210 -0.1298  0.0886
 6456TIP3    H140783   4.509   4.753  13.968 -1.2435 -0.7701 -0.6971
 6456TIP3    H240784   4.633   4.707  13.893  0.0067  0.0957  0.8058
 6457TIP3   OH240785   1.391   5.265   3.373  0.4800  0.4317  0.5706
 6457TIP3    H140786   1.300   5.291   3.385  0.4188 -0.4288  2.0094
 6457TIP3    H240787   1.411   5.209   3.448  2.2297  0.7028  0.3369
 6458TIP3   OH240788   2.215   4.231   3.414  0.5669  0.1928  0.4176
 6458TIP3    H140789   2.204   4.305   3.353 -1.0768  0.3508  0.9002
 6458TIP3    H240790   2.298   4.191   3.387  0.7362  1.3155 -0.8034
 6459TIP3   OH240791   2.144   2.209   4.082  0.0758 -0.5254  0.3503
 6459TIP3    H140792   2.062   2.243   4.045  0.7898 -1.9905 -2.7987
 6459TIP3    H240793   2.208   2.279   4.068 -0.6846  0.7946  3.2123
 6460TIP3   OH240794   6.229   5.030  14.023 -0.6577  0.2590 -0.2403
 6460TIP3    H140795   6.306   5.021  14.080 -0.0757  1.0611 -0.8969
 6460TIP3    H240796   6.174   5.095  14.067 -1.3450 -0.8843  0.6321
 6461TIP3   OH240797   3.299   1.218   0.747 -0.2323 -0.2578  0.3900
 6461TIP3    H140798   3.282   1.294   0.802  0.0634 -1.7292  2.5710
 6461TIP3    H240799   3.222   1.212   0.690 -1.7169 -0.1641  2.3525
 6462TIP3   OH240800   3.643   1.525   2.873 -0.2651 -0.3153 -0.3622
 6462TIP3    H140801   3.604   1.611   2.893  2.3089  0.8181  0.0434
 6462TIP3    H240802   3.700   1.508   2.948 -0.0115 -1.9366 -0.9248
 6463TIP3   OH240803   0.865   4.303  14.554  0.1886  0.1465 -0.5302
 6463TIP3    H140804   0.795   4.355  14.516  0.1031  0.5055  0.1165
 6463TIP3    H240805   0.821   4.236  14.605  0.3105  0.7000  0.3170
 6464TIP3   OH240806   1.927   1.174   0.966  0.4379 -0.8727  0.4511
 6464TIP3    H140807   1.942   1.181   1.060 -0.3405 -0.2134  0.5320
 6464TIP3    H240808   1.847   1.123   0.959  0.1585 -0.3964  0.1662
 6465TIP3   OH240809   0.334   4.397  16.145  0.2171  0.0973 -0.3487
 6465TIP3    H140810   0.246   4.423  16.175 -0.1399  0.5135 -1.7393
 6465TIP3    H240811   0.386   4.395  16.226 -0.5864  1.8146  0.2585
 6466TIP3   OH240812   0.447   3.504   3.892  0.2333 -0.5069 -0.2297
 6466TIP3    H140813   0.516   3.442   3.915  1.3356  0.5036 -0.7690
 6466TIP3    H240814   0.481   3.550   3.815 -0.8739  0.2898 -0.2551
 6467TIP3   OH240815   6.120   2.900   1.870  0.0794 -0.6614  0.1862
 6467TIP3    H140816   6.173   2.962   1.920  0.1515 -1.8566  1.6504
 6467TIP3    H240817   6.184   2.844   1.827  0.0384  1.2873 -2.5115
 6468TIP3   OH240818   0.626   5.950   4.493 -0.1402  0.3621  0.2690
 6468TIP3    H140819   0.608   5.928   4.584 -1.2674 -1.6460 -0.3965
 6468TIP3    H240820   0.547   5.995   4.463 -0.4501 -0.4392 -0.1485
 6469TIP3   OH240821   5.288   3.199  14.350  0.1978  0.3727 -0.5428
 6469TIP3    H140822   5.288   3.164  14.439 -1.5450  1.1521 -0.1961
 6469TIP3    H240823   5.196   3.191  14.322 -0.1419  3.9000 -0.6976
 6470TIP3   OH240824   0.599   4.894   2.661 -0.5460 -0.5678 -0.4477
 6470TIP3    H140825   0.601   4.931   2.573 -0.3127 -0.4571 -0.3983
 6470TIP3    H240826   0.672   4.832   2.662 -1.4273 -1.6245 -0.7871
 6471TIP3   OH240827   5.505   3.661  12.787  0.1446  0.3546  0.1434
 6471TIP3    H140828   5.425   3.702  12.819  1.0301  1.0985  1.4459
 6471TIP3    H240829   5.520   3.702  12.701 -0.7951  0.2924 -0.0578
 6472TIP3   OH240830   5.124   6.403   1.813  0.4690 -0.2741 -0.1373
 6472TIP3    H140831   5.212   6.431   1.787  0.7323  0.4372  1.4992
 6472TIP3    H240832   5.138   6.322   1.862  0.0638 -0.9827 -1.1596
 6473TIP3   OH240833   6.677   2.224   1.667 -0.4402 -0.6869 -0.1121
 6473TIP3    H140834   6.740   2.273   1.719 -2.0700  0.2291  1.0371
 6473TIP3    H240835   6.715   2.136   1.659  2.3650  0.6078 -1.9467
 6474TIP3   OH240836   5.258   2.985  12.708  0.3153  0.1874  0.5738
 6474TIP3    H140837   5.350   2.991  12.735  0.4052  1.8784 -0.0587
 6474TIP3    H240838   5.232   3.075  12.689 -1.2276 -0.3731 -0.0970
 6475TIP3   OH240839   0.826   2.129   5.761  0.1973  0.3509  0.7494
 6475TIP3    H140840   0.751   2.183   5.785 -1.4337 -1.5091  0.0068
 6475TIP3    H240841   0.823   2.123   5.666  1.9683  1.1703  0.6182
 6476TIP3   OH240842   2.261   5.874   1.038  0.1592  0.3257 -0.2807
 6476TIP3    H140843   2.269   5.783   1.066  1.6580 -0.0738 -1.9102
 6476TIP3    H240844   2.338   5.917   1.075  0.8004  0.3572 -1.6404
 6477TIP3   OH240845   1.267   3.802  17.232  0.2250 -0.0762 -0.0524
 6477TIP3    H140846   1.306   3.833  17.150  3.5627  1.7616  2.1168
 6477TIP3    H240847   1.255   3.881  17.284  0.7554 -1.4821  2.2794
 6478TIP3   OH240848   3.156   2.593   1.681 -0.2104  0.1202  0.0994
 6478TIP3    H140849   3.182   2.685   1.690 -0.3788  0.1990 -0.2032
 6478TIP3    H240850   3.068   2.597   1.644 -0.8741 -0.1327  1.6044
 6479TIP3   OH240851   0.849   3.235   6.286  0.0689 -0.1230 -0.3984
 6479TIP3    H140852   0.944   3.242   6.293  0.2248 -1.1912 -1.3007
 6479TIP3    H240853   0.815   3.287   6.359  1.3200  1.0936 -0.6753
 6480TIP3   OH240854   6.723   5.434  11.914 -0.2971  0.1717 -0.5020
 6480TIP3    H140855   6.747   5.393  11.831 -0.0392 -1.0408  0.1475
 6480TIP3    H240856   6.700   5.360  11.971  1.1053  0.8612  1.0026
 6481TIP3   OH240857   3.306   6.753  11.207  0.3473  0.5145 -0.0603
 6481TIP3    H140858   3.244   6.801  11.263 -0.2053  0.3672 -0.5378
 6481TIP3    H240859   3.297   6.795  11.121  2.0038  1.4706  0.2216
 6482TIP3   OH240860   0.115   2.085  13.058 -0.1202  0.4957 -0.6823
 6482TIP3    H140861   0.096   2.117  12.970  0.2173  0.9254 -0.6006
 6482TIP3    H240862   0.033   2.093  13.105 -0.6974 -1.1352 -1.3731
 6483TIP3   OH240863   4.368   2.192  14.155  0.6916 -0.1210 -0.1155
 6483TIP3    H140864   4.455   2.168  14.125  0.3090  0.4468 -1.7191
 6483TIP3    H240865   4.336   2.254  14.089 -0.6283  0.2530  0.8514
 6484TIP3   OH240866   4.667   4.138   3.306 -0.1358  0.0585 -0.6543
 6484TIP3    H140867   4.750   4.176   3.277 -0.2877 -0.4275 -1.7311
 6484TIP3    H240868   4.674   4.046   3.283 -0.5813 -0.1789  0.1472
 6485TIP3   OH240869   0.487   6.681  14.482 -0.0187  0.2747 -0.2489
 6485TIP3    H140870   0.557   6.619  14.462  2.2002  1.3620  3.6775
 6485TIP3    H240871   0.445   6.647  14.560 -0.7607  2.1155  0.1886
 6486TIP3   OH240872   5.558   0.658   0.241 -0.0005  0.2404 -0.0027
 6486TIP3    H140873   5.484   0.681   0.185  0.2301  0.8627 -0.0604
 6486TIP3    H240874   5.611   0.598   0.189 -1.2628 -1.4510  0.6094
 6487TIP3   OH240875   5.638   1.604   2.610 -0.4817 -0.2140 -0.0591
 6487TIP3    H140876   5.630   1.520   2.654 -0.3135 -0.0758  0.2392
 6487TIP3    H240877   5.678   1.662   2.675  1.2218 -0.4104 -0.8933
 6488TIP3   OH240878   0.090   3.081  16.618 -0.5110 -0.3566  0.3942
 6488TIP3    H140879   0.137   3.031  16.685  0.4248  0.9033  0.7064
 6488TIP3    H240880   0.014   3.116  16.663  0.2128  0.6377  0.8606
 6489TIP3   OH240881   2.689   5.936  15.944 -0.0754 -0.0906 -0.1803
 6489TIP3    H140882   2.724   6.023  15.926 -1.6264  0.8800  1.3409
 6489TIP3    H240883   2.628   5.918  15.873  0.7004 -0.2116 -0.8232
 6490TIP3   OH240884   6.704   0.707  12.365 -0.4567  0.0691 -0.8154
 6490TIP3    H140885   6.633   0.721  12.302 -1.6495 -1.9681  0.0257
 6490TIP3    H240886   6.664   0.655  12.435  1.1534  1.3277  1.0687
 6491TIP3   OH240887   3.847   4.723  13.312 -0.4576  0.0250 -0.3127
 6491TIP3    H140888   3.929   4.753  13.352 -1.8032  1.9876  1.0963
 6491TIP3    H240889   3.858   4.740  13.218  0.4159  1.1602 -0.0198
 6492TIP3   OH240890   5.482   0.914  13.866  0.4195  0.3816  0.2468
 6492TIP3    H140891   5.555   0.858  13.894  1.0494  1.3905  0.6348
 6492TIP3    H240892   5.410   0.853  13.850  1.5044 -0.6915 -0.6776
 6493TIP3   OH240893   0.386   1.816   1.445  0.2546  0.2064 -0.4051
 6493TIP3    H140894   0.419   1.804   1.534  1.2856  0.0894 -0.7931
 6493TIP3    H240895   0.291   1.803   1.452  0.3310  0.1999  0.6699
 6494TIP3   OH240896   5.503   4.859  10.275 -0.2178  0.1905  0.4732
 6494TIP3    H140897   5.462   4.820  10.198 -0.0131  0.9943 -0.0580
 6494TIP3    H240898   5.434   4.910  10.317 -0.5138 -0.8211  1.2283
 6495TIP3   OH240899   3.214   6.048  15.267 -0.0248 -0.0953 -0.0074
 6495TIP3    H140900   3.192   6.139  15.285  1.9006  0.2662  0.6436
 6495TIP3    H240901   3.253   6.049  15.180 -1.3018 -0.5285 -0.5993
 6496TIP3   OH240902   6.242   1.875   0.160 -0.0528  0.3780 -0.5118
 6496TIP3    H140903   6.267   1.942   0.096  1.8186  0.1331 -0.0670
 6496TIP3    H240904   6.301   1.802   0.143 -0.8491 -0.4581  0.2184
 6497TIP3   OH240905   3.849   5.781   0.149 -0.3520 -0.3288  0.1274
 6497TIP3    H140906   3.932   5.746   0.118 -1.0180 -1.2426 -0.6365
 6497TIP3    H240907   3.872   5.833   0.226  0.9845 -0.1562 -0.3821
 6498TIP3   OH240908   3.401   4.996  11.212 -0.0649  0.2252 -0.0717
 6498TIP3    H140909   3.412   4.991  11.307  4.2739  0.3347 -0.4468
 6498TIP3    H240910   3.318   4.952  11.195  0.0670 -1.6479  3.5995
 6499TIP3   OH240911   2.861   0.063  14.996 -0.1333 -0.1295  0.3277
 6499TIP3    H140912   2.816   0.140  14.961  0.3667  0.7662  1.6297
 6499TIP3    H240913   2.935   0.099  15.045  1.8199 -1.5649 -1.4641
 6500TIP3   OH240914   3.726   2.138  16.696  0.3038  0.0505 -0.2151
 6500TIP3    H140915   3.776   2.073  16.746  0.5230 -0.2472 -0.8125
 6500TIP3    H240916   3.668   2.087  16.641 -0.1578  0.3863 -0.0394
 6501TIP3   OH240917   4.110   5.535  10.852 -0.2790 -0.2909 -0.6472
 6501TIP3    H140918   4.123   5.503  10.942  0.2015 -0.9655 -0.9492
 6501TIP3    H240919   4.104   5.630  10.861  0.0283 -0.3357  0.0743
 6502TIP3   OH240920   4.762   3.878   4.036  0.4625 -0.0396  0.3080
 6502TIP3    H140921   4.747   3.945   3.970  1.6590  0.7585  0.8248
 6502TIP3    H240922   4.829   3.916   4.094  1.9190 -2.0749  0.0171
 6503TIP3   OH240923   3.495   5.677   0.762  0.3858  0.3179  0.3144
 6503TIP3    H140924   3.475   5.590   0.795  1.0718  0.6660  1.6865
 6503TIP3    H240925   3.463   5.677   0.672 -0.8303 -0.9025  0.7343
 6504TIP3   OH240926   1.811   4.571  12.383  0.0131 -0.1889  0.0896
 6504TIP3    H140927   1.772   4.531  12.305 -2.8452  0.4321  1.1559
 6504TIP3    H240928   1.838   4.658  12.354 -1.9218  0.4059 -0.0064
 6505TIP3   OH240929   1.829   3.235   4.140 -0.3153 -0.0662 -0.2407
 6505TIP3    H140930   1.751   3.223   4.086  0.4957 -2.0654 -1.0086
 6505TIP3    H240931   1.901   3.246   4.078 -0.1280  3.0516  0.4621
 6506TIP3   OH240932   4.683   6.150   2.543  0.2124  0.3880 -0.3800
 6506TIP3    H140933   4.680   6.180   2.453  0.0011 -0.5003 -0.6739
 6506TIP3    H240934   4.737   6.070   2.541 -1.1083 -0.5420 -0.0038
 6507TIP3   OH240935   4.946   3.599   4.911 -0.6578 -0.6166 -0.1901
 6507TIP3    H140936   4.894   3.640   4.842 -1.0986 -0.1534  0.4065
 6507TIP3    H240937   4.905   3.629   4.993  1.2301  0.6837  0.3153
 6508TIP3   OH240938   5.719   1.176  12.440  0.1582 -0.1353 -0.5427
 6508TIP3    H140939   5.667   1.200  12.364  0.8371 -1.4065 -1.4159
 6508TIP3    H240940   5.808   1.166  12.407  0.5569 -0.1357  0.5145
 6509TIP3   OH240941   1.635   4.209   2.540 -0.2470 -0.2384  0.1349
 6509TIP3    H140942   1.705   4.143   2.536 -0.5220 -0.4759 -0.8480
 6509TIP3    H240943   1.680   4.291   2.558  0.1404 -0.6290  0.9611
 6510TIP3   OH240944   2.074   3.522  15.640  0.2021 -0.6320 -0.1926
 6510TIP3    H140945   1.987   3.489  15.661  0.0854 -1.2919 -1.6916
 6510TIP3    H240946   2.128   3.497  15.715 -0.9033 -0.1554  0.7760
 6511TIP3   OH240947   4.629   2.202   3.536 -0.3508  0.0018 -0.5491
 6511TIP3    H140948   4.705   2.149   3.516  1.0627  1.4642  0.7636
 6511TIP3    H240949   4.646   2.286   3.493 -2.0436 -0.2176 -1.6962
 6512TIP3   OH240950   3.640   6.028  12.283 -0.4562 -0.0181 -0.3483
 6512TIP3    H140951   3.658   6.099  12.346  0.3268 -2.0670  1.8240
 6512TIP3    H240952   3.726   5.990  12.264 -0.9228 -0.7385 -1.0444
 6513TIP3   OH240953   5.476   3.303   2.257 -0.2648  0.0621  0.8045
 6513TIP3    H140954   5.558   3.263   2.283 -1.0868 -2.0188  0.2881
 6513TIP3    H240955   5.456   3.366   2.326  2.0195  1.0001  0.6348
 6514TIP3   OH240956   1.165   0.574   3.412  0.0462 -0.2204 -0.4915
 6514TIP3    H140957   1.165   0.642   3.345 -0.5396 -0.1582 -0.4276
 6514TIP3    H240958   1.244   0.591   3.463 -0.0806  0.3926 -0.4932
 6515TIP3   OH240959   3.431   6.570  10.302 -0.0659  0.5097  0.6509
 6515TIP3    H140960   3.432   6.593  10.395 -0.2449  2.4582  0.1936
 6515TIP3    H240961   3.523   6.558  10.279  0.0795  1.2925  0.7944
 6516TIP3   OH240962   2.399   4.505  13.572  0.0726 -0.0842 -0.4298
 6516TIP3    H140963   2.328   4.468  13.626  0.5204 -1.6163 -0.8685
 6516TIP3    H240964   2.409   4.444  13.500 -0.2735  1.7873 -2.0896
 6517TIP3   OH240965   5.838   1.335  14.450  0.2281  0.2962  0.2939
 6517TIP3    H140966   5.853   1.368  14.539  0.7600  0.5653  0.1044
 6517TIP3    H240967   5.766   1.389  14.417  2.0911  2.3035 -0.5567
 6518TIP3   OH240968   3.826   4.881   0.160  0.0362 -0.7352 -0.4928
 6518TIP3    H140969   3.771   4.918   0.228  1.3574 -1.5220  1.0181
 6518TIP3    H240970   3.914   4.915   0.177  0.7380 -2.3771 -0.6962
 6519TIP3   OH240971   3.532   4.497   0.147  0.0496  0.0218 -0.0201
 6519TIP3    H140972   3.545   4.430   0.214  0.7601 -0.2638 -0.4376
 6519TIP3    H240973   3.437   4.507   0.141 -0.3218 -4.0950 -3.0449
 6520TIP3   OH240974   0.106   5.994   4.998 -0.7124  0.6933 -0.6131
 6520TIP3    H140975   0.038   5.977   4.933 -0.9048  1.8386 -0.7148
 6520TIP3    H240976   0.063   5.978   5.082 -0.4979 -0.6694 -0.7399
 6521TIP3   OH240977   1.133   2.120   3.148  0.1284 -0.1433 -0.2478
 6521TIP3    H140978   1.186   2.040   3.151 -0.1635 -0.3774 -1.1608
 6521TIP3    H240979   1.159   2.169   3.226  0.1757 -1.2087  0.4101
 6522TIP3   OH240980   5.226   6.008   5.133  0.0970 -0.7220  0.1899
 6522TIP3    H140981   5.237   5.954   5.054 -1.5235 -0.1249 -0.4791
 6522TIP3    H240982   5.263   6.093   5.110  1.5442 -1.1761  0.8188
 6523TIP3   OH240983   6.040   0.901   5.153  0.2616  0.0124  0.3415
 6523TIP3    H140984   5.962   0.957   5.158  0.3344  0.1531 -0.1640
 6523TIP3    H240985   6.005   0.812   5.158  0.0380  0.0658 -0.2941
 6524TIP3   OH240986   3.330   5.096  13.953 -0.1178  0.3239  0.0704
 6524TIP3    H140987   3.261   5.150  13.914 -0.4772 -0.7528 -0.7969
 6524TIP3    H240988   3.374   5.056  13.879 -1.7347 -2.9162  0.7378
 6525TIP3   OH240989   2.751   5.175   4.865 -0.6908 -0.0191  0.1773
 6525TIP3    H140990   2.762   5.211   4.777 -1.7362  0.1561  0.1176
 6525TIP3    H240991   2.789   5.087   4.859 -1.7348 -0.4279 -0.7582
 6526TIP3   OH240992   5.349   0.922  14.164  0.2773 -0.3009 -0.5934
 6526TIP3    H140993   5.351   0.829  14.187 -1.8078 -0.3366 -0.4275
 6526TIP3    H240994   5.256   0.944  14.163  0.7477  1.7675 -0.7488
 6527TIP3   OH240995   5.193   3.336   0.734  0.5354 -0.9360  0.7776
 6527TIP3    H140996   5.165   3.312   0.822  1.7599 -3.8863  0.4098
 6527TIP3    H240997   5.123   3.304   0.677  0.4468 -0.3239  0.5280
 6528TIP3   OH240998   0.450   3.637  14.442  0.1386 -0.3653  0.1554
 6528TIP3    H140999   0.408   3.566  14.492  3.2939 -1.3375  1.5227
 6528TIP3    H241000   0.458   3.601  14.354  1.5754 -1.7034  0.8048
 6529TIP3   OH241001   5.811   5.425   5.155 -0.1048 -0.2440  0.6013
 6529TIP3    H141002   5.738   5.423   5.093  0.8537 -1.0122 -0.5119
 6529TIP3    H241003   5.881   5.472   5.109  0.9533 -1.6801  0.7107
 6530TIP3   OH241004   3.695   1.177   0.544  0.0924  0.1861  0.2007
 6530TIP3    H141005   3.640   1.255   0.545 -0.6884 -0.3578  0.9133
 6530TIP3    H241006   3.770   1.200   0.598  0.1334  0.6323 -0.0467
 6531TIP3   OH241007   4.631   2.835  16.185 -0.8638 -0.3923  0.3006
 6531TIP3    H141008   4.687   2.911  16.169 -1.5304  0.0677  0.1409
 6531TIP3    H241009   4.679   2.761  16.146 -1.3285  0.3312 -1.6935
 6532TIP3   OH241010   0.012   6.024  11.140  0.0950 -0.0908 -0.1798
 6532TIP3    H141011  -0.045   6.099  11.127  0.5370  0.1700 -0.6331
 6532TIP3    H241012   0.084   6.037  11.078  0.0504 -1.0113 -0.4352
 6533TIP3   OH241013   5.671   1.091   0.324  0.2217  0.1091  0.0406
 6533TIP3    H141014   5.619   1.020   0.362 -0.8594  0.7069 -0.3116
 6533TIP3    H241015   5.746   1.046   0.284 -0.6891 -0.8861 -0.5862
 6534TIP3   OH241016   3.949   5.288   5.047  0.4285  0.0163  0.0746
 6534TIP3    H141017   3.973   5.225   4.979 -0.5591 -1.1600  0.7899
 6534TIP3    H241018   3.908   5.360   5.000  1.3761  0.0500 -0.7338
 6535TIP3   OH241019   5.470   2.494   0.472  0.0329 -0.5380 -0.2469
 6535TIP3    H141020   5.434   2.556   0.408  2.2055  2.1217  1.0472
 6535TIP3    H241021   5.516   2.429   0.419 -1.2144 -0.3744 -1.5600
 6536TIP3   OH241022   5.376   0.030  15.023 -0.3604 -0.0709 -0.5643
 6536TIP3    H141023   5.339   0.041  14.935 -0.8740  2.5032 -0.0785
 6536TIP3    H241024   5.470   0.040  15.011 -0.4063  0.0024 -0.8774
 6537TIP3   OH241025   4.363   6.441   2.840 -0.1117 -0.1143 -0.0750
 6537TIP3    H141026   4.388   6.481   2.757  0.0227 -2.1514 -1.0461
 6537TIP3    H241027   4.431   6.469   2.902 -0.0915  1.2306 -0.6914
 6538TIP3   OH241028   6.135   1.172   0.486  0.0314  0.6096  0.3504
 6538TIP3    H141029   6.123   1.208   0.399  0.3468  1.1137  0.5136
 6538TIP3    H241030   6.121   1.246   0.545 -2.0913 -0.1394  0.8376
 6539TIP3   OH241031   0.886   3.485   5.088 -0.3380 -0.1550 -0.5625
 6539TIP3    H141032   0.877   3.410   5.147 -1.1376 -0.7216 -1.4011
 6539TIP3    H241033   0.854   3.559   5.140 -1.4027 -0.7136 -0.4074
 6540TIP3   OH241034   2.673   0.135  12.911  0.4741  0.0047  0.3471
 6540TIP3    H141035   2.586   0.109  12.881  0.7352 -0.7293  0.2203
 6540TIP3    H241036   2.733   0.079  12.862  0.8768 -1.8202  2.8506
 6541TIP3   OH241037   1.601   1.209   1.936 -0.5487  0.4661 -0.8214
 6541TIP3    H141038   1.660   1.134   1.946  0.4381  1.5676  2.0746
 6541TIP3    H241039   1.632   1.254   1.858  0.7570 -0.4789 -0.8602
 6542TIP3   OH241040   0.697   1.783   0.017  0.0612 -0.4638  0.2497
 6542TIP3    H141041   0.776   1.790  -0.037 -0.9479  0.0290 -1.1918
 6542TIP3    H241042   0.635   1.843  -0.024 -1.4946 -1.8005  0.6190
 6543TIP3   OH241043   6.409   5.988  11.128 -0.1521 -0.4918 -0.1621
 6543TIP3    H141044   6.366   5.923  11.183 -1.1095 -0.7272 -1.1480
 6543TIP3    H241045   6.463   5.936  11.067  0.7150 -0.2486  0.3941
 6544TIP3   OH241046   4.942   1.641   6.281  0.1395  0.0712  0.2935
 6544TIP3    H141047   4.951   1.652   6.375 -1.4257  0.3271  0.4310
 6544TIP3    H241048   4.922   1.549   6.269  2.0730 -0.3467  0.0459
 6545TIP3   OH241049   0.273   0.429   6.195  0.5389  0.0212  0.2036
 6545TIP3    H141050   0.272   0.383   6.279  0.8554 -1.1302 -0.4119
 6545TIP3    H241051   0.183   0.460   6.184  0.0719 -1.3571  0.1378
 6546TIP3   OH241052   3.872   6.046   4.896  0.4909  0.3724  0.1837
 6546TIP3    H141053   3.889   6.122   4.950  0.2925  1.0850 -0.7442
 6546TIP3    H241054   3.940   6.048   4.829 -0.3294  0.5218 -0.6616
 6547TIP3   OH241055   3.296   6.340  15.168  0.3892  0.4668  0.4153
 6547TIP3    H141056   3.381   6.363  15.204  0.3890  0.0235  0.6989
 6547TIP3    H241057   3.303   6.360  15.075  1.1872 -0.6687  0.2241
 6548TIP3   OH241058   5.688   5.476  16.892  0.1293  0.1395  0.3567
 6548TIP3    H141059   5.660   5.473  16.801  0.2542 -3.5652  0.3702
 6548TIP3    H241060   5.780   5.450  16.890 -0.4925 -2.3833  1.7206
 6549TIP3   OH241061   2.713   1.315  11.005  0.5123 -0.0137  0.2889
 6549TIP3    H141062   2.766   1.380  10.958 -0.1580 -0.4507 -1.1156
 6549TIP3    H241063   2.684   1.254  10.936 -0.6674 -0.5511  1.2466
 6550TIP3   OH241064   1.524   1.784  15.749  0.4465  0.0830  0.2396
 6550TIP3    H141065   1.564   1.701  15.724 -1.3393 -0.8518  0.4453
 6550TIP3    H241066   1.479   1.765  15.831 -2.1944  0.5572 -1.0540
 6551TIP3   OH241067   6.366   3.063  13.071 -0.3412 -0.6501  0.3008
 6551TIP3    H141068   6.289   3.088  13.019 -0.7026 -1.7679  0.2755
 6551TIP3    H241069   6.367   3.125  13.143 -1.6719 -1.0160  0.6640
 6552TIP3   OH241070   2.392   1.686  14.756 -0.1759 -0.1043 -0.0420
 6552TIP3    H141071   2.443   1.722  14.829 -0.5015 -1.3006  0.8011
 6552TIP3    H241072   2.317   1.643  14.798  0.2675 -1.8520 -0.9914
 6553TIP3   OH241073   4.959   3.325   6.232  0.1082 -0.5522 -0.5280
 6553TIP3    H141074   5.021   3.385   6.274 -2.1132  3.2386 -2.3482
 6553TIP3    H241075   4.960   3.351   6.140 -3.3623 -1.0827 -0.7961
 6554TIP3   OH241076   1.834   0.074   0.791 -0.5438 -0.2971 -0.4955
 6554TIP3    H141077   1.783   0.154   0.778 -0.6308 -0.0633  1.1733
 6554TIP3    H241078   1.778   0.017   0.844  0.7372 -0.1949  1.0018
 6555TIP3   OH241079   1.906   4.902   0.621  0.2475  0.2599 -0.0470
 6555TIP3    H141080   1.883   4.972   0.561  1.2088 -0.9979 -1.9096
 6555TIP3    H241081   1.845   4.831   0.600  2.0431 -1.0004 -1.0868
 6556TIP3   OH241082   5.553   4.155   2.378  0.1312 -0.3402 -0.5893
 6556TIP3    H141083   5.486   4.090   2.399  1.4236 -1.0645  1.4411
 6556TIP3    H241084   5.529   4.233   2.428  0.5361 -0.4443 -0.2285
 6557TIP3   OH241085   5.276   0.116  12.031  0.4579  0.3291  0.2499
 6557TIP3    H141086   5.226   0.058  12.089  0.6798  1.0862  1.2232
 6557TIP3    H241087   5.292   0.194  12.085  2.7834  0.0413 -0.0013
 6558TIP3   OH241088   0.078   5.753   5.382 -0.0502  0.3347  0.3323
 6558TIP3    H141089   0.071   5.848   5.369  1.1325  0.3784 -0.0307
 6558TIP3    H241090   0.069   5.741   5.476  0.9835  0.9166  0.5051
 6559TIP3   OH241091   5.927   5.671  14.184  0.3603  0.3761 -0.5470
 6559TIP3    H141092   6.014   5.657  14.146 -0.4298  0.7962 -2.5535
 6559TIP3    H241093   5.875   5.597  14.153  0.0855 -0.0919  0.9798
 6560TIP3   OH241094   6.270   5.849  15.013 -0.2812  0.1746 -0.4278
 6560TIP3    H141095   6.319   5.926  15.040  1.3319  0.0461 -2.8310
 6560TIP3    H241096   6.182   5.881  14.993  0.5790  1.5485 -2.1299
 6561TIP3   OH241097   5.617   0.173   3.759  0.4072  0.2509 -0.6726
 6561TIP3    H141098   5.707   0.206   3.764  0.0188  1.1626  0.3220
 6561TIP3    H241099   5.617   0.097   3.818  1.1043 -1.1280 -2.4030
 6562TIP3   OH241100   3.056   2.251   4.746  0.5872  0.8549 -0.1670
 6562TIP3    H141101   3.013   2.207   4.673  1.3660 -0.6147  0.2232
 6562TIP3    H241102   3.149   2.250   4.724  0.8067  0.6203  0.7097
 6563TIP3   OH241103   4.907   5.748  15.120 -0.3305 -0.5738  0.1743
 6563TIP3    H141104   4.897   5.841  15.140 -1.0758 -0.8123  0.9675
 6563TIP3    H241105   4.817   5.716  15.111 -0.0720 -1.1609 -0.3832
 6564TIP3   OH241106   6.763   1.313   3.113 -0.4246 -0.2312  0.1739
 6564TIP3    H141107   6.732   1.237   3.163 -2.4489  0.3537 -0.1397
 6564TIP3    H241108   6.788   1.277   3.028 -1.2058 -0.5830  0.0868
 6565TIP3   OH241109   3.820   3.497   2.152 -0.8117 -0.5519  0.6376
 6565TIP3    H141110   3.877   3.474   2.224 -2.5759 -2.3247  1.5085
 6565TIP3    H241111   3.749   3.433   2.155 -1.5136  0.0243 -1.9759
 6566TIP3   OH241112   3.606   1.109  16.764 -0.2665 -0.2431  0.0621
 6566TIP3    H141113   3.551   1.056  16.706 -0.2460 -3.0016  2.4281
 6566TIP3    H241114   3.554   1.118  16.844  1.3052  0.0537  1.0708
 6567TIP3   OH241115   6.268   3.842  11.745  0.7077 -0.0685  0.3161
 6567TIP3    H141116   6.323   3.860  11.669  2.7198  0.7983  1.9319
 6567TIP3    H241117   6.327   3.852  11.820 -1.2857 -0.6854  2.0057
 6568TIP3   OH241118   0.866   2.762  10.585  0.0027 -0.1916 -0.4971
 6568TIP3    H141119   0.903   2.823  10.649 -0.1925 -0.1206 -0.4522
 6568TIP3    H241120   0.836   2.817  10.513 -0.7843 -0.1719 -0.1577
 6569TIP3   OH241121   2.314   0.566  11.409 -0.2152 -0.2165  0.5790
 6569TIP3    H141122   2.350   0.653  11.424 -0.3652  0.0259 -0.3989
 6569TIP3    H241123   2.290   0.566  11.316  2.9226 -2.4608 -0.3117
 6570TIP3   OH241124   5.447   5.343  13.905  0.7811 -0.2360 -0.0388
 6570TIP3    H141125   5.411   5.349  13.817 -0.8146 -3.3343  0.3354
 6570TIP3    H241126   5.529   5.295  13.895 -0.1611 -1.9534  0.3215
 6571TIP3   OH241127   0.636   4.220  11.476  0.1973 -0.1494  0.3218
 6571TIP3    H141128   0.604   4.307  11.454 -0.9789 -0.8222 -0.7239
 6571TIP3    H241129   0.728   4.221  11.448  0.3285  0.9007  0.7668
 6572TIP3   OH241130   2.607   2.580  14.392 -0.1225  0.3016 -0.2143
 6572TIP3    H141131   2.647   2.652  14.343 -1.3442  0.5110 -0.9258
 6572TIP3    H241132   2.668   2.507  14.381 -0.5857  0.2089 -2.4689
 6573TIP3   OH241133   2.862   0.516  11.447 -0.4470 -0.1086 -0.8554
 6573TIP3    H141134   2.892   0.521  11.538 -1.8148 -0.1737 -0.3911
 6573TIP3    H241135   2.815   0.433  11.442 -2.0924  0.8191 -1.0795
 6574TIP3   OH241136   5.339   2.382   4.488  0.4295 -0.1078  0.8767
 6574TIP3    H141137   5.424   2.426   4.485  0.4258 -0.1588 -0.1513
 6574TIP3    H241138   5.297   2.416   4.567  1.1628  0.3681  1.0661
 6575TIP3   OH241139   5.522   6.317  16.530  0.2718  0.0338 -0.0257
 6575TIP3    H141140   5.581   6.372  16.479  0.6318  1.1671  1.5678
 6575TIP3    H241141   5.566   6.232  16.535 -0.1583 -0.3382 -2.2638
 6576TIP3   OH241142   4.649   5.814  16.053  0.3121 -0.0643  0.2591
 6576TIP3    H141143   4.744   5.821  16.053  0.3507 -0.5673  0.1809
 6576TIP3    H241144   4.619   5.896  16.014  0.7519 -0.3204 -0.6495
 6577TIP3   OH241145   0.141   5.003  16.288 -0.5888 -0.0591 -0.0533
 6577TIP3    H141146   0.234   5.015  16.268 -0.2859  0.3187  1.5479
 6577TIP3    H241147   0.119   5.074  16.348 -1.9064 -0.1905 -0.3542
 6578TIP3   OH241148   1.749   6.410   2.934  0.2293  0.3537 -0.6841
 6578TIP3    H141149   1.698   6.371   3.005  0.9594 -0.8493 -0.8030
 6578TIP3    H241150   1.760   6.501   2.959 -1.3303  0.4497 -0.2897
 6579TIP3   OH241151   6.530   3.989   3.335 -0.3676  0.1345 -0.0225
 6579TIP3    H141152   6.476   4.061   3.301  0.5864  0.7724 -0.2050
 6579TIP3    H241153   6.590   4.031   3.396  1.1124 -0.2777 -1.1540
 6580TIP3   OH241154   6.443   6.735  16.570 -0.3352  0.0599  0.0663
 6580TIP3    H141155   6.469   6.751  16.479 -0.2997 -1.1560 -0.1453
 6580TIP3    H241156   6.363   6.684  16.563 -0.9615  0.9189  0.7300
 6581TIP3   OH241157   4.284   1.012   5.375  0.4487  0.4531 -0.9817
 6581TIP3    H141158   4.335   0.937   5.403  1.2313  1.7047  1.0267
 6581TIP3    H241159   4.348   1.082   5.361 -0.5672  1.7419  0.5720
 6582TIP3   OH241160   3.945   0.488   3.413  0.0346 -0.2311  0.3247
 6582TIP3    H141161   3.877   0.551   3.388 -0.2079 -0.9858 -0.9672
 6582TIP3    H241162   3.981   0.522   3.495 -0.9285  0.9342  0.2693
 6583TIP3   OH241163   6.424   0.962  17.230  0.1752  0.3408  0.2336
 6583TIP3    H141164   6.475   1.027  17.277 -0.8459  0.2140  1.5709
 6583TIP3    H241165   6.386   0.907  17.299 -0.2315 -0.7115 -0.8046
 6584TIP3   OH241166   0.059   5.131  12.821  0.8566  0.2714 -0.1722
 6584TIP3    H141167   0.120   5.096  12.757  0.1812 -0.0574 -0.6490
 6584TIP3    H241168   0.111   5.142  12.901  1.1563 -1.5963 -0.0824
 6585TIP3   OH241169   2.050   5.069  11.208  0.2342  0.0446  0.0706
 6585TIP3    H141170   2.038   4.992  11.153 -0.2852  0.7481 -0.7981
 6585TIP3    H241171   1.978   5.064  11.272 -0.2585  0.2261 -0.4664
 6586TIP3   OH241172   5.696   2.497   5.670 -0.1532 -0.3368 -0.3555
 6586TIP3    H141173   5.682   2.591   5.667 -2.8854 -0.6444  1.3595
 6586TIP3    H241174   5.741   2.482   5.753  1.6223 -0.4135 -1.3125
 6587TIP3   OH241175   0.940   3.851   5.148  0.3257  0.4682 -0.0421
 6587TIP3    H141176   0.981   3.831   5.064 -0.8324 -1.0918 -0.2592
 6587TIP3    H241177   0.861   3.797   5.149 -0.1626  1.1925  1.6467
 6588TIP3   OH241178   5.060   5.759  17.217 -0.2961  1.0852 -1.1091
 6588TIP3    H141179   4.966   5.766  17.234 -0.7656  0.3365 -3.2102
 6588TIP3    H241180   5.069   5.676  17.171  1.6902  0.1932  0.8338
 6589TIP3   OH241181   6.782   0.221  15.557  0.5561 -0.0221 -0.4776
 6589TIP3    H141182   6.841   0.166  15.506  0.6447 -0.0374 -0.3586
 6589TIP3    H241183   6.734   0.159  15.613 -0.9371 -0.2153 -1.9318
 6590TIP3   OH241184   4.140   1.021   5.936  0.3447  0.1080 -0.1626
 6590TIP3    H141185   4.064   0.969   5.962  0.0426 -0.4274 -2.0056
 6590TIP3    H241186   4.162   1.072   6.014 -0.5974 -1.2860  1.0437
 6591TIP3   OH241187   4.953   5.847  16.558 -0.1099  0.0205 -0.4554
 6591TIP3    H141188   4.952   5.937  16.590  0.6665  0.1796 -0.8716
 6591TIP3    H241189   4.923   5.853  16.467 -2.7017 -0.4789  0.3307
 6592TIP3   OH241190   1.637   3.718  12.550  0.0826  0.7117  0.8210
 6592TIP3    H141191   1.724   3.745  12.521  0.4696  0.1778  1.4544
 6592TIP3    H241192   1.652   3.681  12.637 -0.8953  1.3410  1.2653
 6593TIP3   OH241193   3.110   0.155  16.511  0.3607  0.4700  0.0223
 6593TIP3    H141194   3.029   0.117  16.546  0.6864  1.1419  1.5384
 6593TIP3    H241195   3.094   0.164  16.417 -1.3261  0.6168  0.3145
 6594TIP3   OH241196   6.020   3.839   1.880 -0.0351 -0.4103  0.0035
 6594TIP3    H141197   5.977   3.819   1.797 -0.4953  0.0196  0.1367
 6594TIP3    H241198   5.996   3.767   1.938  0.5753 -0.8941 -0.3356
 6595TIP3   OH241199   2.512   6.493   2.852 -0.0117 -0.4119 -0.2475
 6595TIP3    H141200   2.482   6.447   2.774 -0.2162 -0.0553 -0.3777
 6595TIP3    H241201   2.510   6.427   2.921  1.5031 -1.0997 -0.8369
 6596TIP3   OH241202   4.699   0.932  11.250 -0.5159 -0.1531  0.1221
 6596TIP3    H141203   4.718   0.838  11.246 -0.0328 -0.2190  2.9498
 6596TIP3    H241204   4.615   0.942  11.205  0.7111 -1.5137 -2.5740
 6597TIP3   OH241205   2.014   1.760  13.582  0.4415  0.3179  0.0662
 6597TIP3    H141206   1.951   1.691  13.561 -1.0439  1.3299  1.0926
 6597TIP3    H241207   2.095   1.713  13.602 -0.9252 -1.2205  2.1147
 6598TIP3   OH241208   5.787   0.743   5.474 -0.1675  0.8850  0.2752
 6598TIP3    H141209   5.722   0.740   5.404 -0.3739 -1.9938  0.5294
 6598TIP3    H241210   5.735   0.747   5.555 -0.0000 -0.0868  0.4299
 6599TIP3   OH241211   2.317   4.550  14.098  0.2530  0.6859 -0.0799
 6599TIP3    H141212   2.363   4.500  14.165 -0.3278  0.6009  0.2567
 6599TIP3    H241213   2.367   4.534  14.018 -1.5227 -2.7071 -0.5823
 6600TIP3   OH241214   0.901   2.869   3.819  0.2082 -0.1548 -0.2762
 6600TIP3    H141215   0.831   2.911   3.770 -0.0962  2.6782  2.4181
 6600TIP3    H241216   0.982   2.904   3.782  0.1400 -1.2055 -1.4521
 6601TIP3   OH241217   1.999   1.279  11.586  0.1560  0.2883 -0.4163
 6601TIP3    H141218   1.939   1.262  11.513  0.4421 -0.7570 -0.4193
 6601TIP3    H241219   1.999   1.197  11.637 -0.0880  1.0268  0.7906
 6602TIP3   OH241220   5.318   1.230  13.882  0.1916 -0.1581  0.6367
 6602TIP3    H141221   5.227   1.259  13.876  0.1827 -0.0093  1.4583
 6602TIP3    H241222   5.360   1.266  13.804 -0.5499 -0.5835  0.0293
 6603TIP3   OH241223   6.304   1.839  13.565  0.3876  0.0206  0.6478
 6603TIP3    H141224   6.392   1.802  13.561 -0.0792 -0.8619 -2.1993
 6603TIP3    H241225   6.317   1.933  13.550  0.9031  0.0585  1.2715
 6604TIP3   OH241226   4.034   3.062  11.260  0.2804  0.1220 -0.0348
 6604TIP3    H141227   4.124   3.037  11.283  0.3112 -1.4144 -1.7408
 6604TIP3    H241228   4.044   3.125  11.189  0.0160 -0.0784 -0.2508
 6605TIP3   OH241229   0.154   1.757  10.994 -0.4509  0.3093  0.1140
 6605TIP3    H141230   0.103   1.810  10.933 -0.2483  2.2414  1.5733
 6605TIP3    H241231   0.199   1.693  10.939 -1.2391  1.2138 -1.6107
 6606TIP3   OH241232   3.714   6.553  16.218  0.0582  0.2980 -0.2409
 6606TIP3    H141233   3.627   6.567  16.255 -0.4160 -0.7322 -0.9436
 6606TIP3    H241234   3.755   6.489  16.276  0.9491  1.9380  0.9962
 6607TIP3   OH241235   2.610   4.603   0.945 -0.3146  0.1979  0.4743
 6607TIP3    H141236   2.580   4.693   0.947  1.2340  0.7326  0.1272
 6607TIP3    H241237   2.704   4.609   0.927 -0.2728 -1.4906  0.0324
 6608TIP3   OH241238   1.718   5.819   0.775  0.1997  0.2365 -0.7314
 6608TIP3    H141239   1.702   5.725   0.781  0.5572  0.2562  0.7033
 6608TIP3    H241240   1.667   5.857   0.847  1.6786  0.9223 -0.0137
 6609TIP3   OH241241   0.441   4.227  16.750  0.1074  0.4494 -0.2428
 6609TIP3    H141242   0.471   4.313  16.723  1.2412 -0.6470 -2.6155
 6609TIP3    H241243   0.474   4.216  16.839  2.2596  1.3831 -0.9127
 6610TIP3   OH241244   5.543   3.625  15.799 -0.0863  0.4026  0.5480
 6610TIP3    H141245   5.475   3.559  15.818 -0.7968  1.2190  0.8657
 6610TIP3    H241246   5.622   3.590  15.841 -0.4331 -0.3100  0.6131
 6611TIP3   OH241247   4.596   3.651  15.232  0.3280  0.0899 -0.1081
 6611TIP3    H141248   4.690   3.666  15.224  0.2117  0.0384 -1.9319
 6611TIP3    H241249   4.588   3.564  15.271  1.0273  0.6890  1.3788
 6612TIP3   OH241250   0.815   4.772  13.432  0.3320  0.3492 -0.8666
 6612TIP3    H141251   0.815   4.682  13.464 -2.2943  0.5972 -0.1006
 6612TIP3    H241252   0.778   4.766  13.343  1.1822  0.5411 -1.2378
 6613TIP3   OH241253   3.441   6.590   2.362  0.4490 -0.5053 -0.2881
 6613TIP3    H141254   3.518   6.626   2.408  0.2146 -0.4777  0.0838
 6613TIP3    H241255   3.434   6.643   2.282  2.7236 -2.5605 -1.9149
 6614TIP3   OH241256   6.354   0.090   2.549 -0.1030 -0.3841  0.1274
 6614TIP3    H141257   6.423   0.135   2.597 -1.0687  1.5652 -0.2228
 6614TIP3    H241258   6.395   0.010   2.517  1.9890  0.7203 -0.0720
 6615TIP3   OH241259   1.976   2.221   5.773 -0.0405  0.3036 -0.2610
 6615TIP3    H141260   1.905   2.161   5.750 -0.5862  0.8782 -0.0965
 6615TIP3    H241261   2.054   2.166   5.773 -0.4909 -0.3516 -0.3867
 6616TIP3   OH241262   0.197   5.436  15.996 -0.4810  0.2019 -0.6073
 6616TIP3    H141263   0.209   5.516  16.047  2.1294 -1.2829  1.2161
 6616TIP3    H241264   0.239   5.454  15.912  1.3693  0.2903  0.3143
 6617TIP3   OH241265   0.255   0.255   6.402  0.1398  0.6291 -0.2358
 6617TIP3    H141266   0.180   0.251   6.461  1.0837  0.1802  0.9416
 6617TIP3    H241267   0.331   0.241   6.458  1.0427  0.0811 -1.5677
 6618TIP3   OH241268   2.936   4.935   0.794 -0.3164 -0.1232  0.3935
 6618TIP3    H141269   3.029   4.958   0.802 -0.0084  0.0563 -2.7429
 6618TIP3    H241270   2.928   4.852   0.841  1.5723 -0.4347  0.2231
 6619TIP3   OH241271   0.716   2.931  12.015  0.0668 -0.0378 -0.0192
 6619TIP3    H141272   0.708   2.980  12.097  0.2434  0.4981 -0.3190
 6619TIP3    H241273   0.636   2.953  11.967  0.3154  0.2439 -0.3058
 6620TIP3   OH241274   5.132   4.097   1.993  0.1001  0.0229 -0.3154
 6620TIP3    H141275   5.208   4.096   2.051 -0.0852  1.0955 -0.0368
 6620TIP3    H241276   5.164   4.057   1.912  0.0788 -2.3950  0.8270
 6621TIP3   OH241277   0.892   1.303  16.973  0.0701  0.8552  0.6352
 6621TIP3    H141278   0.936   1.373  16.925  2.5614 -0.8730  0.3650
 6621TIP3    H241279   0.882   1.232  16.910 -1.4021  0.5007  1.2390
 6622TIP3   OH241280   1.403   5.545  12.372  0.4713 -0.2339  0.1412
 6622TIP3    H141281   1.402   5.486  12.297  0.5641 -2.4003  1.8174
 6622TIP3    H241282   1.464   5.614  12.346 -0.6120 -0.1439 -2.3478
 6623TIP3   OH241283   4.912   5.206   4.906 -0.4300  0.1013  0.3295
 6623TIP3    H141284   4.897   5.183   4.998 -2.3879 -1.2645 -0.3024
 6623TIP3    H241285   4.980   5.146   4.877 -0.5494 -0.1742  0.6155
 6624TIP3   OH241286   2.304   5.437   6.095 -0.3021 -0.3130  0.2660
 6624TIP3    H141287   2.267   5.365   6.045 -1.4685  0.9037 -0.6602
 6624TIP3    H241288   2.281   5.418   6.186 -2.2852 -0.1453 -0.1759
 6625TIP3   OH241289   0.112   6.362   1.922 -0.7113 -0.2352 -0.4811
 6625TIP3    H141290   0.045   6.293   1.920  1.7097 -2.6918 -0.1527
 6625TIP3    H241291   0.176   6.335   1.857  0.5359  1.4569  0.0212
 6626TIP3   OH241292   0.123   0.003   5.647 -0.8889  0.1500  0.4141
 6626TIP3    H141293   0.083  -0.023   5.730 -1.4055  0.0407  0.1329
 6626TIP3    H241294   0.204   0.048   5.672 -0.5206 -0.7994  0.9396
 6627TIP3   OH241295   3.747   5.625   1.705 -0.3560 -0.1214  0.0830
 6627TIP3    H141296   3.822   5.600   1.650 -1.6292 -2.2608 -0.7502
 6627TIP3    H241297   3.704   5.694   1.655 -0.0484 -0.2726 -0.3999
 6628TIP3   OH241298   0.134   1.276   5.250 -0.4705 -0.0805 -0.3548
 6628TIP3    H141299   0.119   1.364   5.215  2.3346 -0.3505 -2.4023
 6628TIP3    H241300   0.091   1.276   5.335  0.9162  3.8286  0.4395
 6629TIP3   OH241301   1.215   2.363   5.916 -0.1568  0.5986  0.0862
 6629TIP3    H141302   1.255   2.279   5.896 -0.1409  0.8030 -0.7360
 6629TIP3    H241303   1.243   2.382   6.006 -2.9381 -1.8785  1.5436
 6630TIP3   OH241304   4.393   4.677  15.792  0.5387  0.5382  0.6008
 6630TIP3    H141305   4.486   4.697  15.805  0.4179  0.4445  1.7005
 6630TIP3    H241306   4.383   4.667  15.698  1.5634  0.9717  0.4423
 6631TIP3   OH241307   4.599   0.768   2.531  0.0267 -0.1270  0.1103
 6631TIP3    H141308   4.626   0.703   2.465  0.0202 -0.3523  0.3308
 6631TIP3    H241309   4.681   0.793   2.575 -0.2025 -1.2586  1.1876
 6632TIP3   OH241310   0.269   5.966  10.630 -0.5674 -0.2031 -0.3805
 6632TIP3    H141311   0.337   5.908  10.596 -0.8953 -0.5282 -0.4836
 6632TIP3    H241312   0.316   6.045  10.657  0.4093 -1.8739  3.0706
 6633TIP3   OH241313   0.036   3.941   2.550 -0.4448 -0.0281  0.0865
 6633TIP3    H141314   0.110   3.887   2.521 -0.9079 -0.7589  0.2682
 6633TIP3    H241315  -0.041   3.889   2.531 -0.9276  0.7571 -0.1383
 6634TIP3   OH241316   3.927   0.403  12.786 -0.5699  0.1452  1.0676
 6634TIP3    H141317   3.969   0.481  12.750 -0.6239 -0.1439  0.3759
 6634TIP3    H241318   3.877   0.435  12.862 -1.7477  1.0181 -0.0583
 6635TIP3   OH241319   3.205   2.183   5.397 -0.1023  0.0942 -0.4079
 6635TIP3    H141320   3.196   2.186   5.302 -0.6808 -1.0356 -0.3873
 6635TIP3    H241321   3.299   2.171   5.412 -0.1164 -0.5626 -0.8497
 6636TIP3   OH241322   0.901   1.897   5.303 -0.0204  0.6368 -0.1045
 6636TIP3    H141323   0.840   1.874   5.372 -1.5830 -1.7502 -2.1986
 6636TIP3    H241324   0.975   1.836   5.314 -1.0818 -0.9598 -1.5581
 6637TIP3   OH241325   2.769   0.044   0.590 -0.0713  0.2053 -0.0032
 6637TIP3    H141326   2.838   0.094   0.634  0.1033  0.1039 -0.1634
 6637TIP3    H241327   2.754  -0.032   0.646  0.8099 -0.4113 -0.6079
 6638TIP3   OH241328   2.713   0.473  10.971 -0.5204 -0.0797  0.5163
 6638TIP3    H141329   2.803   0.446  10.989 -0.2632 -0.0212 -0.6451
 6638TIP3    H241330   2.708   0.479  10.876 -1.2854  1.5414  0.6381
 6639TIP3   OH241331   5.197   4.318   4.329 -0.1940 -0.6106  0.7511
 6639TIP3    H141332   5.284   4.351   4.310 -1.6280  2.1017 -1.5038
 6639TIP3    H241333   5.167   4.368   4.405  0.2408 -1.6422  1.6148
 6640TIP3   OH241334   1.695   0.747  16.919  0.0939  0.0254 -0.0896
 6640TIP3    H141335   1.671   0.700  16.998 -0.7089 -1.4971 -1.2030
 6640TIP3    H241336   1.786   0.772  16.932 -0.1428  0.1097  1.4493
 6641TIP3   OH241337   1.743   3.118  14.045 -0.1770  0.5147 -0.4755
 6641TIP3    H141338   1.782   3.069  14.118 -0.6406 -1.1592 -1.3205
 6641TIP3    H241339   1.741   3.209  14.075  2.5534  0.3329  0.3435
 6642TIP3   OH241340   1.808   1.430   0.155  0.5111 -0.2220 -0.1559
 6642TIP3    H141341   1.718   1.415   0.127  0.4182 -0.1545  0.1098
 6642TIP3    H241342   1.822   1.368   0.227  0.1515  0.8957  0.8952
 6643TIP3   OH241343   0.770   2.854   4.108 -0.0523 -0.2550 -0.2147
 6643TIP3    H141344   0.706   2.877   4.041  0.9689  1.8903 -0.4741
 6643TIP3    H241345   0.729   2.879   4.191 -0.3902 -0.8285 -0.2041
 6644TIP3   OH241346   5.910   4.634  16.059 -0.3269 -0.2668 -0.0523
 6644TIP3    H141347   5.846   4.603  15.995 -0.2403 -0.8433  0.1317
 6644TIP3    H241348   5.902   4.729  16.058 -1.2640 -0.3381  0.0455
 6645TIP3   OH241349   6.628   1.356  11.638  0.1333 -0.0312 -0.4785
 6645TIP3    H141350   6.629   1.312  11.723  3.6484 -1.0212 -0.9437
 6645TIP3    H241351   6.588   1.441  11.654 -0.3016 -0.6749  1.9117
 6646TIP3   OH241352   1.591   4.514  12.547 -0.4334 -0.4226  0.8113
 6646TIP3    H141353   1.681   4.509  12.516 -0.4647 -1.2602  0.8572
 6646TIP3    H241354   1.538   4.510  12.468 -0.3798  2.4097  0.5816
 6647TIP3   OH241355   0.930   2.129   2.928  1.0438  0.2781 -0.7842
 6647TIP3    H141356   0.952   2.215   2.891 -1.9135  1.2070 -0.5205
 6647TIP3    H241357   0.979   2.125   3.010  0.9442  1.9006 -0.6194
 6648TIP3   OH241358   3.902   3.737  15.098 -0.0439 -0.1388  0.1458
 6648TIP3    H141359   3.868   3.656  15.060  1.8591 -0.8482 -0.0755
 6648TIP3    H241360   3.962   3.708  15.167  0.5434  1.0819  0.1576
 6649TIP3   OH241361   2.744   3.398  15.586  0.1780 -0.0259 -0.8285
 6649TIP3    H141362   2.797   3.326  15.552  1.0231 -1.1061  2.5408
 6649TIP3    H241363   2.792   3.427  15.664 -3.6757 -0.4480  1.8483
 6650TIP3   OH241364   5.209   1.174   5.446 -0.1565 -0.3526 -0.3077
 6650TIP3    H141365   5.149   1.207   5.378 -0.0006  0.4878 -0.0388
 6650TIP3    H241366   5.292   1.163   5.401 -0.3961 -1.1085 -0.5787
 6651TIP3   OH241367   5.752   3.713  12.369  0.7495 -0.6155  0.0535
 6651TIP3    H141368   5.702   3.765  12.432  2.5828 -1.9515  2.6980
 6651TIP3    H241369   5.686   3.677  12.310 -0.9377  1.2665  0.7515
 6652TIP3   OH241370   5.203   4.266  10.566 -0.2262  0.4720 -0.1297
 6652TIP3    H141371   5.251   4.202  10.514  0.6614 -0.2697  1.5670
 6652TIP3    H241372   5.112   4.240  10.559  0.1452 -1.1465  0.7195
 6653TIP3   OH241373   6.660   2.771   6.596  0.5419 -0.6163  0.1059
 6653TIP3    H141374   6.606   2.705   6.640 -0.6384 -0.1353 -0.5650
 6653TIP3    H241375   6.746   2.731   6.588  0.0364 -1.7822  0.3887
 6654TIP3   OH241376   1.712   6.079   0.670 -0.8543 -0.8271  0.0998
 6654TIP3    H141377   1.786   6.075   0.731 -0.5488  0.0350 -0.2070
 6654TIP3    H241378   1.653   6.145   0.708 -0.5968 -0.1859 -0.6067
 6655TIP3   OH241379   5.786   6.332  14.991  0.2521  0.5356  0.1375
 6655TIP3    H141380   5.748   6.420  14.986 -2.4793 -0.5769  0.2355
 6655TIP3    H241381   5.816   6.324  15.081 -2.4924  0.2385  1.0775
 6656TIP3   OH241382   6.191   3.637  11.552 -0.0994 -0.2961  0.2698
 6656TIP3    H141383   6.237   3.689  11.485 -0.0984 -0.9592 -0.2516
 6656TIP3    H241384   6.168   3.556  11.507 -1.2912 -0.1987  0.7023
 6657TIP3   OH241385   2.626   1.797   2.088 -0.0237 -0.3736 -0.0703
 6657TIP3    H141386   2.580   1.785   2.005 -1.6207 -1.9161  1.0010
 6657TIP3    H241387   2.675   1.716   2.100  2.7224  1.1073 -1.0089
 6658TIP3   OH241388   5.143   5.404   0.945 -0.6096  0.0889 -0.1887
 6658TIP3    H141389   5.195   5.468   0.895 -0.8724  0.1674 -0.3641
 6658TIP3    H241390   5.158   5.428   1.037 -0.5762  0.2994 -0.2489
 6659TIP3   OH241391   3.729   4.349  16.013 -0.7213 -0.2233 -0.0858
 6659TIP3    H141392   3.783   4.303  16.078  0.7142  0.1096 -1.0083
 6659TIP3    H241393   3.789   4.412  15.972 -2.0347  0.7465 -0.5637
 6660TIP3   OH241394   6.174   5.885  12.128  0.3362 -0.3388 -0.0167
 6660TIP3    H141395   6.199   5.964  12.176  0.5630  0.9885 -2.2556
 6660TIP3    H241396   6.210   5.897  12.040 -2.2601 -1.5057 -1.3200
 6661TIP3   OH241397   0.110   3.002   3.281 -0.1742  0.4690 -0.0472
 6661TIP3    H141398   0.109   3.092   3.315 -1.2582  0.3063  0.3804
 6661TIP3    H241399   0.049   2.954   3.338  2.2965 -1.1461  1.3308
 6662TIP3   OH241400   2.562   2.957   3.725 -0.0771 -0.2641 -0.4658
 6662TIP3    H141401   2.490   2.926   3.671 -0.1247 -0.9295 -0.0313
 6662TIP3    H241402   2.640   2.921   3.685  0.1379  1.4023 -1.6080
 6663TIP3   OH241403   4.056   0.299  13.964  0.0677 -0.2510 -0.4582
 6663TIP3    H141404   4.150   0.289  13.949  0.7433  1.7908  2.2295
 6663TIP3    H241405   4.038   0.244  14.040 -0.8772 -0.3588 -0.7536
 6664TIP3   OH241406   3.425   6.751  15.167  0.3640 -0.1978  0.2741
 6664TIP3    H141407   3.400   6.743  15.075 -1.6963  3.7662  0.3389
 6664TIP3    H241408   3.379   6.679  15.211 -1.7504  0.1115 -1.3205
 6665TIP3   OH241409   2.576   5.199   5.495  0.2887 -0.6064  0.7546
 6665TIP3    H141410   2.642   5.223   5.430  1.6801 -4.4097  0.6432
 6665TIP3    H241411   2.626   5.162   5.568 -1.4776  0.4170  2.5223
 6666TIP3   OH241412   5.129   5.808   0.767  0.2388 -0.5425 -0.6738
 6666TIP3    H141413   5.095   5.799   0.856  0.4102 -0.4500 -0.5975
 6666TIP3    H241414   5.165   5.722   0.746 -1.7519 -1.2042 -1.4781
 6667TIP3   OH241415   6.598   5.824  15.166 -0.2925  0.6247  0.2878
 6667TIP3    H141416   6.610   5.896  15.104  2.1855 -0.2909 -0.3663
 6667TIP3    H241417   6.587   5.867  15.251 -1.1882  1.8121 -0.4124
 6668TIP3   OH241418   4.602   2.396  16.715  0.0155  0.1200  0.6223
 6668TIP3    H141419   4.515   2.430  16.694  0.0095 -0.5055 -0.4003
 6668TIP3    H241420   4.586   2.322  16.773 -0.2471 -1.0737 -0.9461
 6669TIP3   OH241421   0.001   2.039   0.391  0.5139 -0.2550 -0.0398
 6669TIP3    H141422   0.080   2.018   0.441  0.8496 -1.0107 -0.8734
 6669TIP3    H241423  -0.008   2.134   0.399 -0.3467 -0.5300  2.7846
 6670TIP3   OH241424   0.775   0.510  10.328 -0.3443 -0.0092  0.3365
 6670TIP3    H141425   0.866   0.481  10.331 -0.7847 -1.3212  1.4536
 6670TIP3    H241426   0.755   0.538  10.417 -0.9789  0.4677  0.0526
 6671TIP3   OH241427   5.023   2.330  11.185 -0.0745 -0.0347  0.3531
 6671TIP3    H141428   5.074   2.253  11.209  1.0021  0.0700 -1.5392
 6671TIP3    H241429   5.056   2.355  11.098 -2.8568  0.4324 -0.6168
 6672TIP3   OH241430   5.643   1.344  13.695 -0.4406 -0.0221 -0.7953
 6672TIP3    H141431   5.706   1.280  13.662 -1.1359 -0.7028 -0.8367
 6672TIP3    H241432   5.690   1.427  13.696 -0.0561 -0.2075 -2.4185
 6673TIP3   OH241433   5.103   1.363   0.366  0.3734 -0.1826 -0.3579
 6673TIP3    H141434   5.107   1.448   0.322  1.9403 -0.3275 -0.5266
 6673TIP3    H241435   5.054   1.380   0.447  2.3812  1.3159  0.5660
 6674TIP3   OH241436   3.595   3.446  11.536 -0.1459  0.0746 -0.2114
 6674TIP3    H141437   3.650   3.467  11.612  0.4787  1.4317 -1.0214
 6674TIP3    H241438   3.654   3.399  11.476 -0.4027 -0.2273 -0.2288
 6675TIP3   OH241439   3.779   0.378   5.157 -0.6703  0.0210 -0.3113
 6675TIP3    H141440   3.690   0.378   5.193  0.0147  0.4597  1.4686
 6675TIP3    H241441   3.811   0.467   5.172  0.9731 -0.8198  1.5080
 6676TIP3   OH241442   4.804   5.002   1.774 -0.1898 -0.9972  0.2471
 6676TIP3    H141443   4.875   4.941   1.752  0.5785  0.7508 -2.3634
 6676TIP3    H241444   4.842   5.060   1.840  1.2942  0.7030 -2.0266
 6677TIP3   OH241445   4.823   4.323   5.247 -0.0277  0.2506  0.0525
 6677TIP3    H141446   4.872   4.405   5.252  1.2022 -0.5584  1.5869
 6677TIP3    H241447   4.880   4.264   5.197 -0.2292 -0.1421  0.2790
 6678TIP3   OH241448   5.514   5.420  15.906  0.3694 -0.7761 -0.5170
 6678TIP3    H141449   5.532   5.361  15.979 -0.5082 -2.4093 -1.5909
 6678TIP3    H241450   5.585   5.404  15.844  0.2721 -0.5232 -0.6951
 6679TIP3   OH241451   2.739   1.092   0.774 -0.0204  0.3314  0.4541
 6679TIP3    H141452   2.830   1.100   0.804 -0.1816  0.2933  0.9552
 6679TIP3    H241453   2.729   1.163   0.710  1.5335 -2.0076 -2.5504
 6680TIP3   OH241454   0.273   6.354  15.115 -0.6242 -0.3787  0.1546
 6680TIP3    H141455   0.213   6.424  15.088 -0.5036 -0.7548 -1.1312
 6680TIP3    H241456   0.240   6.276  15.069  0.9537 -0.5511 -0.6965
 6681TIP3   OH241457   1.192   6.738  16.403  0.4226  0.0141 -0.0140
 6681TIP3    H141458   1.198   6.833  16.409  0.9289  0.0443 -0.9030
 6681TIP3    H241459   1.282   6.708  16.410  0.2949 -0.3788 -0.0267
 6682TIP3   OH241460   4.614   6.103   1.625 -0.0024  0.0519 -0.5222
 6682TIP3    H141461   4.566   6.186   1.628 -0.4330 -0.1579 -1.5419
 6682TIP3    H241462   4.648   6.092   1.714 -2.2096 -0.0211  0.3482
 6683TIP3   OH241463   3.742   3.731  15.539  0.1599 -0.5030  0.9916
 6683TIP3    H141464   3.732   3.783  15.619 -1.7977 -0.3971  0.6852
 6683TIP3    H241465   3.664   3.751  15.487 -0.3425 -3.2978  0.5941
 6684TIP3   OH241466   1.982   0.018  16.681 -0.0019 -0.4517  0.2645
 6684TIP3    H141467   2.070   0.055  16.675  0.7675 -1.9958  1.8230
 6684TIP3    H241468   1.933   0.080  16.735 -0.0234  0.6559 -1.0052
 6685TIP3   OH241469   4.395   1.267   4.918  0.5327 -0.0259  0.3918
 6685TIP3    H141470   4.451   1.237   4.846  2.2878  0.7776  1.3919
 6685TIP3    H241471   4.347   1.188   4.944  1.1446 -0.7210 -0.5292
 6686TIP3   OH241472   4.139   3.245  14.624  0.1081 -0.0248  0.3242
 6686TIP3    H141473   4.165   3.331  14.591  0.7514 -0.6905 -0.9704
 6686TIP3    H241474   4.094   3.204  14.550  0.3592 -1.0406  0.7308
 6687TIP3   OH241475   2.404   0.054   3.120  0.2980 -0.3553  0.1927
 6687TIP3    H141476   2.429   0.129   3.173  1.0322 -1.6777  1.7759
 6687TIP3    H241477   2.476   0.043   3.058  1.5475 -1.4259  1.7980
 6688TIP3   OH241478   0.202   4.782  13.689  0.1557 -0.3054 -0.0771
 6688TIP3    H141479   0.172   4.858  13.638 -0.4375 -1.6991 -1.8809
 6688TIP3    H241480   0.159   4.707  13.647  1.7137 -1.7664  0.8748
 6689TIP3   OH241481   4.594   6.003  11.773  0.0236 -0.3718 -0.2270
 6689TIP3    H141482   4.576   6.019  11.866 -1.6946 -0.0158 -0.6055
 6689TIP3    H241483   4.579   5.910  11.762  0.7990 -0.5238 -0.0310
 6690TIP3   OH241484   5.671   2.948  16.547  0.0953 -0.3389 -0.3129
 6690TIP3    H141485   5.579   2.949  16.522 -0.0879  1.2711  0.3892
 6690TIP3    H241486   5.683   2.864  16.592 -1.9857  1.0275  2.9969
 6691TIP3   OH241487   1.098   4.600  16.741 -0.7023 -0.0755 -0.3063
 6691TIP3    H141488   1.071   4.645  16.660  0.5293  1.2871  0.0237
 6691TIP3    H241489   1.168   4.542  16.713 -0.8568 -0.2383 -0.3585
 6692TIP3   OH241490   1.700   0.831   5.107 -0.3691  0.5211 -0.4717
 6692TIP3    H141491   1.642   0.874   5.169  0.7349  2.0824 -0.4990
 6692TIP3    H241492   1.662   0.849   5.021 -0.3581  0.7540 -0.4275
 6693TIP3   OH241493   1.368   3.102   1.277  0.2037  0.2105  0.5195
 6693TIP3    H141494   1.290   3.080   1.329 -1.2690 -0.9075 -2.0318
 6693TIP3    H241495   1.436   3.043   1.310 -1.7216 -3.1334 -1.2412
 6694TIP3   OH241496   5.159   6.352  16.485  0.7272  0.4111  0.3498
 6694TIP3    H141497   5.067   6.375  16.472  0.4698 -0.2795  0.9460
 6694TIP3    H241498   5.200   6.434  16.513 -0.5684 -0.2147  4.4293
 6695TIP3   OH241499   5.784   0.562   3.375  0.7429  0.4353  0.2691
 6695TIP3    H141500   5.740   0.596   3.453  0.0695  1.0621 -0.3736
 6695TIP3    H241501   5.775   0.631   3.310 -1.0227 -1.0992 -1.2019
 6696TIP3   OH241502   6.448   2.995   3.078  0.0362 -0.6944 -0.4854
 6696TIP3    H141503   6.408   2.924   3.130 -0.1773  0.3081  0.7393
 6696TIP3    H241504   6.542   2.977   3.083  0.0636 -0.2620  0.7763
 6697TIP3   OH241505   3.527   5.699  15.824  0.5303  0.7179 -0.2298
 6697TIP3    H141506   3.456   5.672  15.766  0.8809 -0.6013 -0.0489
 6697TIP3    H241507   3.532   5.631  15.890  0.7048  1.7817  0.8702
 6698TIP3   OH241508   4.740   0.790  15.355  0.2154 -0.1296  0.0088
 6698TIP3    H141509   4.771   0.834  15.277  0.3574 -0.1982  0.0262
 6698TIP3    H241510   4.798   0.714  15.365  1.3644  0.8667  1.1989
 6699TIP3   OH241511   5.602   4.148  11.522  0.0615  0.6584 -0.0432
 6699TIP3    H141512   5.614   4.089  11.597  1.3148 -0.4405 -1.0829
 6699TIP3    H241513   5.521   4.119  11.481  0.1285  0.3344  0.0543
 6700TIP3   OH241514   1.544   0.356  11.318  0.3055  0.2931  0.0945
 6700TIP3    H141515   1.535   0.281  11.260  0.1046  0.6666 -0.3636
 6700TIP3    H241516   1.470   0.349  11.378  0.0681  0.3384 -0.1929
 6701TIP3   OH241517   4.422   4.424  13.872 -0.8092 -0.0683  0.2016
 6701TIP3    H141518   4.468   4.384  13.946  0.0431  1.3222  0.4326
 6701TIP3    H241519   4.352   4.475  13.912 -0.5324  0.4403  0.0505
 6702TIP3   OH241520   2.004   0.315   5.299 -0.5738 -0.2220  0.7013
 6702TIP3    H141521   2.051   0.285   5.222 -1.5996 -0.8813  0.3200
 6702TIP3    H241522   1.980   0.405   5.280 -1.4775 -0.6161 -0.0775
 6703TIP3   OH241523   3.363   1.586   4.483 -0.7581  0.5573  0.2892
 6703TIP3    H141524   3.298   1.532   4.526 -1.3361 -0.5711 -1.9620
 6703TIP3    H241525   3.368   1.553   4.393  3.4968  0.0552  0.5801
 6704TIP3   OH241526   3.184   3.000   4.691 -0.3876 -0.3126  0.7470
 6704TIP3    H141527   3.267   2.967   4.656 -0.4116  0.5956 -0.2043
 6704TIP3    H241528   3.207   3.087   4.726 -0.8824 -0.1692  0.7108
 6705TIP3   OH241529   3.284   4.000   3.698  0.4158 -0.3572 -0.1540
 6705TIP3    H141530   3.215   4.041   3.645  1.4879  0.5370 -0.8591
 6705TIP3    H241531   3.360   3.997   3.640  1.4066  0.0070  1.1212
 6706TIP3   OH241532   3.432   1.480   4.237  0.4867 -0.0225 -0.4176
 6706TIP3    H141533   3.442   1.426   4.159  2.0705  0.2797 -0.4381
 6706TIP3    H241534   3.429   1.570   4.204  0.6533  0.0736 -0.1736
 6707TIP3   OH241535   4.212   1.453   1.455  0.0770 -0.3857 -0.1942
 6707TIP3    H141536   4.227   1.387   1.387 -1.9901 -0.3883 -0.6740
 6707TIP3    H241537   4.149   1.411   1.515 -0.7260  0.9018 -0.1332
 6708TIP3   OH241538   4.475   2.589   6.074 -0.5903  0.1033 -0.8806
 6708TIP3    H141539   4.558   2.615   6.033 -0.8711 -0.7876 -2.0440
 6708TIP3    H241540   4.500   2.521   6.137 -0.3829  0.1615 -0.8995
 6709TIP3   OH241541   0.187   4.518   3.249  0.3387 -0.6211  0.1032
 6709TIP3    H141542   0.247   4.592   3.257 -1.9042  1.3790 -0.8741
 6709TIP3    H241543   0.236   4.452   3.200  1.1595  1.6182 -2.1730
 6710TIP3   OH241544   2.983   3.551   0.722  0.1601  0.3154 -0.1536
 6710TIP3    H141545   3.070   3.535   0.760  0.3913  0.2615 -0.6878
 6710TIP3    H241546   2.967   3.473   0.668 -0.5063  0.0283  0.4520
 6711TIP3   OH241547   0.061   5.993  11.868 -0.1854 -0.1665  0.4171
 6711TIP3    H141548   0.050   6.030  11.956 -0.8150 -0.9199  0.6623
 6711TIP3    H241549   0.143   5.944  11.873 -0.4718 -0.6235  0.7399
 6712TIP3   OH241550   5.870   2.067  15.150  0.5222  0.1799 -0.6073
 6712TIP3    H141551   5.952   2.023  15.128  1.3733  1.8599 -0.8356
 6712TIP3    H241552   5.804   1.997  15.149  1.9281 -1.1541 -0.5108
 6713TIP3   OH241553   4.003   6.110   3.854 -0.0318 -0.3262  0.1598
 6713TIP3    H141554   4.081   6.165   3.866 -0.8539  0.7850  0.4986
 6713TIP3    H241555   3.943   6.165   3.804 -0.0633 -1.6980 -1.3639
 6714TIP3   OH241556   5.061   4.078  15.115 -0.4458  0.0944 -0.0462
 6714TIP3    H141557   4.975   4.118  15.126 -1.0108 -1.0578 -0.1577
 6714TIP3    H241558   5.064   4.009  15.182 -0.9288 -2.0167 -2.1442
 6715TIP3   OH241559   6.584   4.915  16.213  0.6974 -0.2770  0.3509
 6715TIP3    H141560   6.670   4.953  16.195  0.8711 -1.2464 -0.9361
 6715TIP3    H241561   6.603   4.825  16.240  0.1773 -0.0238  1.5927
 6716TIP3   OH241562   4.975   3.788  10.864 -0.0267 -0.5753  0.1194
 6716TIP3    H141563   5.055   3.735  10.873  0.7773  0.3630 -1.2757
 6716TIP3    H241564   4.984   3.855  10.932 -0.4697 -1.4917  1.0988
 6717TIP3   OH241565   6.479   0.896  14.918  0.0119 -0.6056 -0.0730
 6717TIP3    H141566   6.430   0.825  14.959  1.9714 -0.8923  1.8367
 6717TIP3    H241567   6.509   0.860  14.835  0.8176 -1.9482  0.7883
 6718TIP3   OH241568   5.500   4.416  14.478  0.2508  0.5094 -0.6773
 6718TIP3    H141569   5.417   4.415  14.430  0.5839 -0.3739 -1.2289
 6718TIP3    H241570   5.533   4.505  14.465 -2.4947  2.1886  2.7959
 6719TIP3   OH241571   0.311   4.993  10.583 -0.1264  0.8035 -0.3056
 6719TIP3    H141572   0.231   5.034  10.550  0.5571  2.3789 -0.0225
 6719TIP3    H241573   0.286   4.961  10.670 -1.1737 -1.0214 -1.2552
 6720TIP3   OH241574   0.592   5.540  17.062 -0.1136 -0.2473 -0.3638
 6720TIP3    H141575   0.599   5.467  16.999 -0.0939  0.2409 -0.9328
 6720TIP3    H241576   0.682   5.562  17.083  0.0490  2.2889 -3.3274
 6721TIP3   OH241577   2.439   2.603  14.056 -0.0871  0.2243  0.0890
 6721TIP3    H141578   2.346   2.582  14.068  0.1302  0.7672  3.1142
 6721TIP3    H241579   2.478   2.521  14.026 -1.1428 -0.6662  1.1184
 6722TIP3   OH241580   3.630   6.130  16.232  0.0211  0.1578  0.1406
 6722TIP3    H141581   3.612   6.214  16.275 -0.0237  1.0814 -1.6199
 6722TIP3    H241582   3.713   6.102  16.269 -0.7477  0.1821  1.9175
 6723TIP3   OH241583   1.528   1.703   3.536  0.3324  0.4820 -0.2209
 6723TIP3    H141584   1.444   1.744   3.557 -0.1575 -0.6180  0.0150
 6723TIP3    H241585   1.592   1.774   3.542 -0.1581  0.7758  2.4311
 6724TIP3   OH241586   1.526   5.051  15.839  0.4118  0.2223  0.2210
 6724TIP3    H141587   1.574   5.108  15.778  0.3719 -1.0480 -1.0318
 6724TIP3    H241588   1.554   4.962  15.815 -1.5730 -0.4540  0.3370
 6725TIP3   OH241589   2.108   1.340  14.001 -0.7481  0.2127  0.6710
 6725TIP3    H141590   2.195   1.379  14.003 -0.9259  0.6943 -0.6182
 6725TIP3    H241591   2.087   1.332  13.908 -1.8936 -0.3277  0.9607
 6726TIP3   OH241592   1.130   3.972  10.885 -0.0312 -0.5936 -0.3391
 6726TIP3    H141593   1.053   3.988  10.938  0.0265  0.3987 -0.5504
 6726TIP3    H241594   1.202   3.965  10.948  0.2163  1.6507 -0.3245
 6727TIP3   OH241595   6.179   5.998  14.301 -0.1641  0.2894 -0.4652
 6727TIP3    H141596   6.249   5.978  14.364 -1.1267 -0.6388  0.3225
 6727TIP3    H241597   6.224   6.004  14.217  0.7800 -1.0695 -0.0816
 6728TIP3   OH241598   1.605   1.184   6.217 -0.1501  0.1158 -0.2494
 6728TIP3    H141599   1.674   1.230   6.169 -0.1943  0.6309  0.1738
 6728TIP3    H241600   1.529   1.186   6.159  0.0828 -0.1258 -0.5621
 6729TIP3   OH241601   5.857   0.024  16.931 -0.2345 -0.0865  0.5900
 6729TIP3    H141602   5.790  -0.043  16.942  0.1113 -0.3829  0.9263
 6729TIP3    H241603   5.818   0.103  16.967 -1.6519  0.5521 -2.1825
 6730TIP3   OH241604   6.411   3.109  11.928 -0.6602 -0.3673 -0.2673
 6730TIP3    H141605   6.485   3.150  11.882  0.4828 -2.1405 -0.0157
 6730TIP3    H241606   6.446   3.086  12.014 -1.3370 -1.7567 -0.3626
 6731TIP3   OH241607   0.406   3.662  11.524 -0.6884  0.1750 -0.1140
 6731TIP3    H141608   0.501   3.660  11.513 -0.7889 -0.9987 -0.8779
 6731TIP3    H241609   0.393   3.660  11.619  0.0512 -0.3305 -0.0128
 6732TIP3   OH241610   1.201   6.159   5.942  0.4958 -0.1367  0.7792
 6732TIP3    H141611   1.176   6.127   6.029 -0.6716 -0.1043  0.4564
 6732TIP3    H241612   1.284   6.204   5.956  1.1944 -1.6283  1.5813
 6733TIP3   OH241613   2.366   0.406  12.163  0.2757  0.4783  0.3275
 6733TIP3    H141614   2.357   0.486  12.112  0.6979 -0.6459 -1.5480
 6733TIP3    H241615   2.460   0.388  12.163  0.0054 -1.0376 -0.8905
 6734TIP3   OH241616   6.306   1.761  14.738 -0.0516 -0.2280 -0.0169
 6734TIP3    H141617   6.286   1.690  14.800  1.3438 -1.5934 -1.1149
 6734TIP3    H241618   6.316   1.718  14.654  0.1563  1.3711 -0.8373
 6735TIP3   OH241619   0.133   3.995  11.333 -0.0688  0.0818  1.2839
 6735TIP3    H141620   0.067   4.022  11.268  0.1021  1.2892  1.6070
 6735TIP3    H241621   0.193   4.069  11.338  1.5498 -1.1655  0.7028
 6736TIP3   OH241622   4.791   6.244   0.173  0.1827 -0.1452 -0.0041
 6736TIP3    H141623   4.830   6.331   0.179 -0.2708 -0.0585  1.7269
 6736TIP3    H241624   4.738   6.248   0.093 -0.3519  1.3699  0.4018
 6737TIP3   OH241625   4.393   4.811  14.660  0.0174 -0.0933 -0.8238
 6737TIP3    H141626   4.416   4.893  14.617  1.7276 -0.4066 -0.5654
 6737TIP3    H241627   4.346   4.837  14.739  2.2617  0.7668  0.2840
 6738TIP3   OH241628   6.572   4.238   5.976  0.1336 -0.2856  0.1309
 6738TIP3    H141629   6.589   4.332   5.989 -0.3615 -0.2491  0.4929
 6738TIP3    H241630   6.656   4.196   5.997  0.0248 -0.0278  1.1041
 6739TIP3   OH241631   5.461   3.414   2.001  0.3784 -0.4129  0.2291
 6739TIP3    H141632   5.482   3.389   2.092 -2.1276  0.1481  1.0035
 6739TIP3    H241633   5.467   3.332   1.952  2.3142 -0.6171  0.7786
 6740TIP3   OH241634   3.699   1.011   2.560 -0.1836 -0.1242  0.2642
 6740TIP3    H141635   3.718   1.101   2.586 -1.3613 -0.6747  3.3723
 6740TIP3    H241636   3.608   0.997   2.589 -0.1498 -2.1601 -0.5361
 6741TIP3   OH241637   5.156   4.848   1.041 -0.1719 -0.1067 -0.7016
 6741TIP3    H141638   5.178   4.758   1.015  0.5381 -0.1368  0.0072
 6741TIP3    H241639   5.090   4.837   1.110 -1.9328 -0.0277 -2.3127
 6742TIP3   OH241640   5.036   1.821  13.724  0.0714 -0.2088 -0.1664
 6742TIP3    H141641   4.954   1.775  13.705 -0.4075  0.2972  0.6717
 6742TIP3    H241642   5.101   1.751  13.732 -0.8328 -0.8385  2.0936
 6743TIP3   OH241643   2.088   0.244   1.858  0.0550 -0.1256 -0.1636
 6743TIP3    H141644   2.010   0.193   1.881 -0.3364 -0.3179 -1.8598
 6743TIP3    H241645   2.093   0.312   1.925 -0.9002 -0.8225  0.6265
 6744TIP3   OH241646   4.572   2.252  13.955  0.0380  0.4225 -0.0405
 6744TIP3    H141647   4.590   2.344  13.935  0.7367 -0.1414 -2.1867
 6744TIP3    H241648   4.653   2.207  13.933 -0.1294 -0.6715  1.4742
 6745TIP3   OH241649   6.489   3.073  15.974 -0.4168  1.0168  0.2253
 6745TIP3    H141650   6.398   3.101  15.979 -0.9674 -1.0946  2.4562
 6745TIP3    H241651   6.488   2.982  16.002  2.3044  0.8012 -0.2796
 6746TIP3   OH241652   5.815   4.777  12.885  0.0105  0.2895 -0.3408
 6746TIP3    H141653   5.776   4.711  12.943  0.6670  0.6888  0.5654
 6746TIP3    H241654   5.813   4.858  12.936 -0.0836  0.8070 -1.1629
 6747TIP3   OH241655   2.499   3.626  13.741  0.0089 -0.6464 -0.1102
 6747TIP3    H141656   2.574   3.684  13.731 -0.6222 -0.0418 -1.4328
 6747TIP3    H241657   2.527   3.543  13.702  0.5518 -0.9169  0.8541
 6748TIP3   OH241658   5.616   4.755   5.272  0.4139  0.7313 -0.1992
 6748TIP3    H141659   5.624   4.808   5.193 -1.1397 -0.1355 -0.9624
 6748TIP3    H241660   5.526   4.723   5.271  0.7253 -0.2777  1.2929
 6749TIP3   OH241661   0.197   6.163   0.516 -0.1028  0.3163  0.3713
 6749TIP3    H141662   0.284   6.122   0.513 -0.2914 -0.0360 -0.3807
 6749TIP3    H241663   0.212   6.254   0.489 -0.0954  0.0260 -0.6307
 6750TIP3   OH241664   4.659   1.045  16.041  0.0223  0.9850  0.6731
 6750TIP3    H141665   4.657   0.963  16.091 -0.9373 -0.3805 -1.5325
 6750TIP3    H241666   4.567   1.064  16.022  0.3571  1.6543 -0.2895
 6751TIP3   OH241667   4.537   0.011   1.660  0.4208  0.1213  0.4095
 6751TIP3    H141668   4.613   0.015   1.602  0.4129 -0.5662  0.3521
 6751TIP3    H241669   4.481   0.082   1.631  0.5576 -0.0304 -0.2251
 6752TIP3   OH241670   5.480   2.156  12.156 -0.1099  0.4487 -0.1193
 6752TIP3    H141671   5.517   2.071  12.134  1.6797  1.5405 -1.5370
 6752TIP3    H241672   5.398   2.161  12.106  0.6257  0.2306 -1.3571
 6753TIP3   OH241673   0.918   5.770   4.299  0.0221 -0.0929 -0.4041
 6753TIP3    H141674   0.884   5.696   4.247  0.8250 -0.2812 -0.6756
 6753TIP3    H241675   1.013   5.755   4.301  0.1897  0.9539 -0.4901
 6754TIP3   OH241676   6.767   6.531   3.843  0.3711 -0.1595 -0.5775
 6754TIP3    H141677   6.862   6.542   3.845  0.2631  0.7442 -0.2600
 6754TIP3    H241678   6.750   6.459   3.904  0.5826  1.8416  1.9604
 6755TIP3   OH241679   3.639   2.869  13.830  0.3741  0.0026  0.5867
 6755TIP3    H141680   3.578   2.899  13.763  1.0493 -0.4660 -0.2312
 6755TIP3    H241681   3.725   2.877  13.791  0.6128 -2.6073  0.4857
 6756TIP3   OH241682   0.414   1.011  13.874 -0.4397 -0.6048 -0.6168
 6756TIP3    H141683   0.342   0.951  13.894 -0.3229 -0.1907  1.1326
 6756TIP3    H241684   0.371   1.091  13.844 -0.6712 -0.6860 -0.5003
 6757TIP3   OH241685   1.321   6.631  14.783  0.1905 -0.9215  0.0973
 6757TIP3    H141686   1.281   6.552  14.746  1.2997 -1.5691  0.2690
 6757TIP3    H241687   1.321   6.616  14.877 -0.1285 -0.4600  0.1694
 6758TIP3   OH241688   5.970   0.258  16.598 -0.2648  0.1639  0.0189
 6758TIP3    H141689   5.957   0.275  16.692  0.1476  1.5169 -0.1580
 6758TIP3    H241690   5.887   0.283  16.558 -0.7173 -1.1571  0.0984
 6759TIP3   OH241691   5.008   2.689  13.051 -0.2292  0.5995  0.5893
 6759TIP3    H141692   5.088   2.741  13.045  0.0044  0.2835  0.9266
 6759TIP3    H241693   4.937   2.751  13.035  0.1115  0.7689 -0.3076
 6760TIP3   OH241694   0.028   1.332  15.562  0.3028  0.2649 -0.6299
 6760TIP3    H141695   0.120   1.315  15.543  0.4403  1.5750 -1.2210
 6760TIP3    H241696   0.027   1.356  15.655  0.5645  0.2476 -0.6242
 6761TIP3   OH241697   3.667   1.682  12.572 -0.4005 -0.2582 -0.0798
 6761TIP3    H141698   3.622   1.685  12.487 -2.0237 -2.7089  0.6397
 6761TIP3    H241699   3.595   1.678  12.636  0.8263 -2.3053  1.2068
 6762TIP3   OH241700   0.920   1.812   3.152  0.7285 -0.4153  0.1093
 6762TIP3    H141701   0.905   1.894   3.198 -0.9748 -0.3097 -0.5900
 6762TIP3    H241702   0.947   1.750   3.220  0.9687  0.4462  0.8004
 6763TIP3   OH241703   3.708   5.194  12.812 -0.1706 -0.3162 -0.0378
 6763TIP3    H141704   3.781   5.254  12.796 -0.4546 -0.5185 -2.3668
 6763TIP3    H241705   3.679   5.169  12.724 -2.2740 -1.1718  0.8721
 6764TIP3   OH241706   1.366   2.330   6.148  0.2089  0.8512  0.0779
 6764TIP3    H141707   1.338   2.246   6.184  4.3423 -0.3823  0.6727
 6764TIP3    H241708   1.346   2.394   6.216 -2.0145  0.2035  0.0493
 6765TIP3   OH241709   1.494   4.363  13.561 -0.3938  0.8758  0.3712
 6765TIP3    H141710   1.399   4.363  13.551 -0.3629  0.7764  0.0800
 6765TIP3    H241711   1.522   4.280  13.522 -0.0684  1.4563 -0.6306
 6766TIP3   OH241712   5.523   6.610  11.276 -0.1193 -0.0281  0.0728
 6766TIP3    H141713   5.582   6.641  11.345  0.7677 -1.2278 -0.1275
 6766TIP3    H241714   5.582   6.582  11.205 -0.9790  0.1098 -0.6984
 6767TIP3   OH241715   3.832   6.736  16.024 -0.1485  0.0147 -0.0478
 6767TIP3    H141716   3.905   6.688  15.986 -1.0419 -1.3706 -0.0290
 6767TIP3    H241717   3.786   6.672  16.078 -1.3485  0.8909 -0.0091
 6768TIP3   OH241718   4.476   2.407   1.060 -0.4433 -0.0232  0.2282
 6768TIP3    H141719   4.411   2.406   1.131 -1.0212  1.4157 -0.2759
 6768TIP3    H241720   4.444   2.472   0.998  0.8202 -0.2236 -0.6623
 6769TIP3   OH241721   4.978   4.365   6.347 -0.2737  0.3967  0.5520
 6769TIP3    H141722   5.033   4.303   6.299  0.0899 -0.3175  1.8667
 6769TIP3    H241723   4.924   4.406   6.279  1.1972  0.4140 -0.6261
 6770TIP3   OH241724   1.389   2.486  11.964 -0.0720  0.0093 -0.6601
 6770TIP3    H141725   1.473   2.459  11.927 -1.1309 -2.2360 -1.4774
 6770TIP3    H241726   1.335   2.508  11.889 -0.3521  1.1164 -0.1512
 6771TIP3   OH241727   4.325   3.271  11.403  0.2251 -0.6976 -0.5956
 6771TIP3    H141728   4.370   3.211  11.344  0.9342 -0.2501 -0.5184
 6771TIP3    H241729   4.391   3.337  11.425 -0.6588  0.3324 -0.9890
 6772TIP3   OH241730   6.659   0.053  11.691  0.3719  0.7011 -0.1094
 6772TIP3    H141731   6.636   0.083  11.603 -1.8428  1.1416  0.5847
 6772TIP3    H241732   6.671   0.134  11.741 -0.0996  0.4521  0.4065
 6773TIP3   OH241733   2.937   1.127  16.861  0.1261  0.1869  0.0020
 6773TIP3    H141734   2.880   1.203  16.851 -0.8565 -0.7089 -1.4827
 6773TIP3    H241735   2.893   1.072  16.926 -0.1907 -0.0450 -0.4098
 6774TIP3   OH241736   2.339   6.679  11.346  0.6994 -0.0552 -0.0438
 6774TIP3    H141737   2.287   6.716  11.417  0.9485 -0.6623  0.4641
 6774TIP3    H241738   2.397   6.750  11.318  1.2873 -0.0976  1.0271
 6775TIP3   OH241739   5.044   0.923   2.571 -0.2239  0.1775  0.1577
 6775TIP3    H141740   5.036   1.014   2.599 -1.2355  0.2536 -0.3857
 6775TIP3    H241741   4.978   0.876   2.622 -0.5272 -0.0579 -0.4530
 6776TIP3   OH241742   2.016   5.770   0.869  0.2158  0.1448  0.3378
 6776TIP3    H141743   1.973   5.721   0.938  0.4080  0.3146  0.5788
 6776TIP3    H241744   1.967   5.853   0.865 -0.7674 -0.4730 -0.7705
 6777TIP3   OH241745   3.591   2.871   1.997 -0.6624 -0.1068  0.1714
 6777TIP3    H141746   3.521   2.935   1.990 -1.7070 -1.4197 -2.1188
 6777TIP3    H241747   3.666   2.912   1.955 -1.1679 -0.1065 -0.7669
 6778TIP3   OH241748   2.855   5.741  15.631 -0.3814 -0.2162  0.3600
 6778TIP3    H141749   2.889   5.654  15.652  1.1166  0.4049  0.5825
 6778TIP3    H241750   2.762   5.727  15.612 -0.0343 -1.9379 -0.1305
 6779TIP3   OH241751   3.847   0.220   2.659 -0.5359  0.5783 -0.1512
 6779TIP3    H141752   3.935   0.257   2.651 -0.6323  1.1564  1.3988
 6779TIP3    H241753   3.850   0.141   2.605  0.0489  2.1108 -2.4819
 6780TIP3   OH241754   2.385   1.941   3.067 -0.1672 -0.1206 -0.4725
 6780TIP3    H141755   2.331   1.879   3.019 -0.8780  0.1745 -0.0734
 6780TIP3    H241756   2.328   1.971   3.139  0.0681  1.1745 -0.8129
 6781TIP3   OH241757   3.754   3.702  13.218  0.7688  0.2448 -0.1521
 6781TIP3    H141758   3.716   3.744  13.295 -4.4946 -2.2295 -1.1432
 6781TIP3    H241759   3.779   3.615  13.247  1.2310  0.2071 -0.6492
 6782TIP3   OH241760   2.015   2.471   1.035  0.0414 -0.9769 -0.4935
 6782TIP3    H141761   2.063   2.528   0.975  1.2109  1.0654  2.2456
 6782TIP3    H241762   1.923   2.484   1.013  0.2136  2.7276  0.5830
 6783TIP3   OH241763   1.922   4.296  15.400  0.3417  0.0299 -0.2086
 6783TIP3    H141764   1.877   4.283  15.483  0.7638  0.3032  0.0609
 6783TIP3    H241765   1.854   4.280  15.334 -0.3602  1.1911  0.2092
 6784TIP3   OH241766   1.967   0.420  16.742  0.4770 -0.2062  0.3628
 6784TIP3    H141767   2.030   0.351  16.723 -0.5633 -1.7249  2.2973
 6784TIP3    H241768   2.009   0.473  16.809  0.9649  0.6251 -0.5844
 6785TIP3   OH241769   3.333   1.087   5.181  0.3983  0.3103 -0.2772
 6785TIP3    H141770   3.426   1.068   5.199  0.5361 -0.4112 -1.7286
 6785TIP3    H241771   3.326   1.182   5.194  0.6639 -0.0301  2.7736
 6786TIP3   OH241772   1.782   1.992   4.641  0.4728  0.1098  0.1907
 6786TIP3    H141773   1.764   2.037   4.559 -0.1129  1.3564  0.9920
 6786TIP3    H241774   1.871   2.020   4.665  0.3511  0.3479  0.3660
 6787TIP3   OH241775   4.041   4.793   5.832 -0.6550  0.3197  0.0346
 6787TIP3    H141776   4.104   4.725   5.811  1.0338  2.2137 -1.3192
 6787TIP3    H241777   4.020   4.780   5.924  1.1866 -0.7921  0.3180
 6788TIP3   OH241778   1.062   4.030  13.404  0.2640 -0.4164 -0.4449
 6788TIP3    H141779   1.065   4.021  13.499 -0.2421  0.6765 -0.3151
 6788TIP3    H241780   0.993   3.970  13.376  1.5193 -1.9579 -0.2960
 6789TIP3   OH241781   6.732   2.106  11.659 -0.4874 -0.0952  0.2589
 6789TIP3    H141782   6.702   2.148  11.740 -1.9687 -1.9854  0.7527
 6789TIP3    H241783   6.819   2.072  11.681 -1.1252 -1.1215  1.2800
 6790TIP3   OH241784   4.114   3.885  16.439  0.2944  0.0101  0.4714
 6790TIP3    H141785   4.167   3.941  16.382 -0.2856 -0.5556 -0.6224
 6790TIP3    H241786   4.153   3.897  16.526  0.9859  1.1122  0.0244
 6791TIP3   OH241787   1.363   3.750  11.702  0.3207  0.3731  0.3360
 6791TIP3    H141788   1.408   3.774  11.783 -1.0209  0.7277  1.0033
 6791TIP3    H241789   1.348   3.655  11.711 -0.0459  0.4566  0.6177
 6792TIP3   OH241790   5.834   5.186   0.820 -0.2498 -0.5832 -0.3937
 6792TIP3    H141791   5.826   5.257   0.884 -0.7736 -0.7862 -0.2306
 6792TIP3    H241792   5.772   5.209   0.751  0.5242 -0.2149 -0.9745
 6793TIP3   OH241793   3.330   6.106  11.435 -0.0276  0.3317  0.7636
 6793TIP3    H141794   3.387   6.072  11.504  0.3906  0.0775  0.2926
 6793TIP3    H241795   3.360   6.197  11.424 -0.5152  0.5691  1.3552
 6794TIP3   OH241796   5.527   5.708   3.267  0.2891  0.4531 -0.1246
 6794TIP3    H141797   5.558   5.631   3.315  1.0265  0.5931 -0.3572
 6794TIP3    H241798   5.585   5.779   3.295  0.0629  0.7662 -0.4345
 6795TIP3   OH241799   1.531   5.100   2.440 -0.1015  0.0801  0.0263
 6795TIP3    H141800   1.537   5.091   2.345  0.0870  3.4878 -0.3707
 6795TIP3    H241801   1.459   5.043   2.465 -1.2576  0.4174 -2.3851
 6796TIP3   OH241802   0.194   6.084   1.567 -0.4360  0.4847 -0.0835
 6796TIP3    H141803   0.175   6.000   1.608 -0.7644  1.4388  1.7795
 6796TIP3    H241804   0.110   6.130   1.567 -0.1991  0.9276 -0.8469
 6797TIP3   OH241805   2.177   4.689  14.982  0.0264 -0.4352  0.0159
 6797TIP3    H141806   2.114   4.670  14.912 -0.9145  0.0536  0.7310
 6797TIP3    H241807   2.146   4.771  15.021  1.2081 -0.0903  0.2512
 6798TIP3   OH241808   2.226   6.774   0.027 -0.1549 -0.0421  0.9668
 6798TIP3    H141809   2.271   6.736   0.103  0.1965  0.7298  1.1529
 6798TIP3    H241810   2.290   6.768  -0.044 -0.7346 -1.4019  0.5488
 6799TIP3   OH241811   0.507   3.039  12.712  0.1917  0.1719 -0.0023
 6799TIP3    H141812   0.457   3.111  12.751 -0.8499 -0.6030  0.1350
 6799TIP3    H241813   0.440   2.974  12.689  1.0751 -0.5571 -0.5313
 6800TIP3   OH241814   1.857   2.246   3.071 -0.4066  0.5198 -0.9582
 6800TIP3    H141815   1.946   2.263   3.039 -0.8585  0.2434 -2.3540
 6800TIP3    H241816   1.839   2.320   3.129  1.4709 -0.4015  0.8930
 6801TIP3   OH241817   3.831   5.134  16.871  0.0009  0.6120  0.0230
 6801TIP3    H141818   3.856   5.079  16.945 -0.0353 -0.3726 -0.6880
 6801TIP3    H241819   3.904   5.126  16.809 -0.3028  0.8412 -0.3659
 6802TIP3   OH241820   1.262   0.097   3.029  0.0850 -0.2509 -0.3327
 6802TIP3    H141821   1.274   0.157   2.955  1.4244 -0.1888 -0.0651
 6802TIP3    H241822   1.326   0.027   3.015  0.9539  0.2080  1.2191
 6803TIP3   OH241823   3.638   2.050  17.098 -0.0646  0.3965 -0.4974
 6803TIP3    H141824   3.625   1.967  17.053 -0.4389  0.2330 -0.0983
 6803TIP3    H241825   3.568   2.107  17.065 -0.0810  0.4078 -0.4450
 6804TIP3   OH241826   0.231   5.639   5.180  0.1192 -0.2319 -0.0724
 6804TIP3    H141827   0.282   5.718   5.162  0.9270  0.0370  3.0148
 6804TIP3    H241828   0.174   5.664   5.253 -1.5145 -1.7477 -0.7973
 6805TIP3   OH241829   2.055   6.761   0.355 -0.4211  0.5998  0.2211
 6805TIP3    H141830   2.143   6.776   0.388  0.4025 -1.6215 -0.8111
 6805TIP3    H241831   2.021   6.689   0.409  0.2652 -1.8341 -2.4754
 6806TIP3   OH241832   1.685   6.721   5.918  0.2540 -0.2302  0.0571
 6806TIP3    H141833   1.730   6.662   5.979 -1.2904  0.0666  1.5188
 6806TIP3    H241834   1.593   6.694   5.923 -0.0850  0.6839 -1.1465
 6807TIP3   OH241835   2.984   2.982  15.417 -0.2426  0.2289  0.9244
 6807TIP3    H141836   3.005   2.962  15.326 -3.7298  2.3095 -0.4171
 6807TIP3    H241837   2.924   2.913  15.444 -0.3772  0.4424  1.1722
 6808TIP3   OH241838   3.435   2.405   0.807  0.0581  0.2823  0.0166
 6808TIP3    H141839   3.346   2.435   0.790 -0.4117 -1.1004  0.0296
 6808TIP3    H241840   3.482   2.420   0.725 -0.0698  1.3840  0.1362
 6809TIP3   OH241841   0.416   1.506   5.659 -0.0673 -0.1405  0.6489
 6809TIP3    H141842   0.354   1.455   5.711  2.2958 -2.8698  0.8844
 6809TIP3    H241843   0.381   1.500   5.569  1.0106 -3.6111  0.3942
 6810TIP3   OH241844   0.816   0.468   3.327  0.4444 -0.2808  0.3904
 6810TIP3    H141845   0.884   0.403   3.345  0.0954 -0.8012 -0.1578
 6810TIP3    H241846   0.762   0.428   3.259  0.2306  0.5929  0.0426
 6811TIP3   OH241847   3.043   2.273  15.695 -1.0783 -0.0713  0.5630
 6811TIP3    H141848   3.001   2.347  15.737 -1.8292  0.6300 -1.3764
 6811TIP3    H241849   3.114   2.311  15.644 -1.2550 -0.7052 -0.1769
 6812TIP3   OH241850   6.152   3.787  14.352  0.3384  0.2934 -0.3939
 6812TIP3    H141851   6.188   3.848  14.287  0.5409  1.8307  1.1395
 6812TIP3    H241852   6.174   3.826  14.436 -0.8277 -1.1637  0.6069
 6813TIP3   OH241853   5.245   6.252   0.842  0.4187 -0.0697 -0.0858
 6813TIP3    H141854   5.223   6.179   0.900 -0.6654 -0.2331 -0.6822
 6813TIP3    H241855   5.222   6.220   0.754 -0.9674  1.3341 -0.2474
 6814TIP3   OH241856   0.258   0.735  13.550 -0.0793  0.3583 -0.5127
 6814TIP3    H141857   0.245   0.657  13.603  0.4617  0.5101 -0.1576
 6814TIP3    H241858   0.332   0.781  13.590  0.3133  0.4955 -1.3642
 6815TIP3   OH241859   4.159   5.233   0.603  0.1686  0.2793 -0.0129
 6815TIP3    H141860   4.159   5.293   0.678 -2.0219  2.5356 -1.7513
 6815TIP3    H241861   4.239   5.255   0.555  0.9753 -0.3677  1.0109
 6816TIP3   OH241862   6.206   3.716   5.990 -0.0216 -0.0606 -0.7010
 6816TIP3    H141863   6.120   3.676   5.975  0.1207 -0.5629 -0.2092
 6816TIP3    H241864   6.245   3.721   5.902  0.2232 -1.6346 -0.7045
 6817TIP3   OH241865   4.201   5.724  16.470 -0.4097  0.6169  0.5880
 6817TIP3    H141866   4.271   5.673  16.429  1.1619  2.4602  0.9256
 6817TIP3    H241867   4.179   5.791  16.406 -0.5331  1.2213  1.2613
 6818TIP3   OH241868   2.400   6.429   4.834  0.0843 -0.1593 -0.0030
 6818TIP3    H141869   2.440   6.438   4.748  0.6213  0.6561  0.3297
 6818TIP3    H241870   2.363   6.515   4.853  1.0902  0.0402  1.1272
 6819TIP3   OH241871   4.101   5.364  12.143 -0.6717  0.3387  0.1184
 6819TIP3    H141872   4.015   5.374  12.101 -0.3210  0.0695 -0.6687
 6819TIP3    H241873   4.132   5.453  12.156 -0.1683  0.3931 -1.4603
 6820TIP3   OH241874   5.884   6.428  16.744 -0.5160 -0.1317  0.0209
 6820TIP3    H141875   5.844   6.375  16.814 -1.1441  0.6882  0.2897
 6820TIP3    H241876   5.818   6.495  16.725 -0.6775 -0.8044 -1.8927
 6821TIP3   OH241877   4.234   6.245  16.580 -0.5187 -0.1783 -0.1512
 6821TIP3    H141878   4.234   6.184  16.654 -1.6454  0.6153  0.5239
 6821TIP3    H241879   4.290   6.317  16.608  0.9256 -0.9432 -1.0063
 6822TIP3   OH241880   0.490   4.319  12.742  0.1893 -0.3274  0.6319
 6822TIP3    H141881   0.442   4.330  12.660  0.2370  0.8491  0.7517
 6822TIP3    H241882   0.500   4.408  12.776  0.9260 -0.7245  1.4785
 6823TIP3   OH241883   6.406   3.558   0.393 -0.4759 -0.5640 -0.4407
 6823TIP3    H141884   6.479   3.501   0.371  0.8717  1.4259 -1.1770
 6823TIP3    H241885   6.421   3.638   0.344 -2.3508  0.4534  0.5667
 6824TIP3   OH241886   5.091   2.918   1.556 -0.5259  0.0184 -0.3657
 6824TIP3    H141887   5.066   2.825   1.550  0.7966 -0.4604  1.1045
 6824TIP3    H241888   5.027   2.956   1.616  1.8813 -1.1250  3.1007
 6825TIP3   OH241889   2.933   6.523  13.535 -0.4218  0.0500 -0.0128
 6825TIP3    H141890   2.931   6.607  13.489  1.0072 -0.7115 -1.4926
 6825TIP3    H241891   3.025   6.514  13.563 -0.6470 -0.8763  0.4258
 6826TIP3   OH241892   3.517   3.862   5.354 -0.8559  0.8521 -0.2418
 6826TIP3    H141893   3.548   3.941   5.398 -1.3541 -0.5553  2.7630
 6826TIP3    H241894   3.588   3.839   5.294  0.6470  1.8601  1.1025
 6827TIP3   OH241895   1.162   1.900  15.936 -0.0586  0.5183 -0.4025
 6827TIP3    H141896   1.160   1.878  16.029 -1.7287 -0.4786 -0.6395
 6827TIP3    H241897   1.245   1.945  15.923  0.3785  0.2932  1.4857
 6828TIP3   OH241898   2.466   0.205  12.686 -0.2600 -0.0401 -0.0262
 6828TIP3    H141899   2.463   0.215  12.591 -0.9251 -0.5155 -0.0607
 6828TIP3    H241900   2.388   0.154  12.707  0.5899 -1.0999  0.6322
 6829TIP3   OH241901   1.355   4.564  16.248  0.5663  0.1048  0.3650
 6829TIP3    H141902   1.290   4.634  16.244  1.4968  0.9903  0.5498
 6829TIP3    H241903   1.385   4.555  16.157  0.8216  0.3093  0.4289
 6830TIP3   OH241904   5.839   3.717  16.077  0.0258  0.2610 -0.2087
 6830TIP3    H141905   5.879   3.695  16.161  0.2229 -1.5797 -0.7754
 6830TIP3    H241906   5.752   3.750  16.101 -0.3711 -1.3509  0.6671
 6831TIP3   OH241907   4.070   0.897   4.806 -0.6488 -0.0737  0.0758
 6831TIP3    H141908   4.087   0.939   4.722 -0.9218  0.7876  0.4516
 6831TIP3    H241909   4.109   0.810   4.797  0.6726  0.5538 -0.3951
 6832TIP3   OH241910   3.107   1.521   3.736  0.1328  0.1685  0.3950
 6832TIP3    H141911   3.024   1.503   3.779 -0.1524 -0.8294 -0.5656
 6832TIP3    H241912   3.113   1.457   3.665  0.3727  2.0650 -1.3621
 6833TIP3   OH241913   3.565   4.621  11.980 -0.3707  0.1597 -0.2263
 6833TIP3    H141914   3.503   4.668  12.035 -0.6969  2.9919 -2.9143
 6833TIP3    H241915   3.651   4.643  12.017 -0.6765  0.5134  0.2801
 6834TIP3   OH241916   3.752   4.776   3.529 -0.1599 -0.6725 -0.1168
 6834TIP3    H141917   3.837   4.737   3.512  0.1638 -0.6162  1.3061
 6834TIP3    H241918   3.695   4.743   3.459  0.5667 -2.2035  0.0076
 6835TIP3   OH241919   0.052   6.528  16.785 -0.5090 -0.2835 -0.2605
 6835TIP3    H141920  -0.001   6.470  16.840 -0.1507  0.0740  0.4634
 6835TIP3    H241921   0.028   6.504  16.695 -1.1080 -0.8583  0.0465
 6836TIP3   OH241922   5.458   6.306  17.208  0.1999 -0.0895 -0.1650
 6836TIP3    H141923   5.432   6.302  17.300 -0.8055 -0.3756 -0.4557
 6836TIP3    H241924   5.536   6.361  17.208  0.3683 -0.3177  0.8963
 6837TIP3   OH241925   2.179   0.448  17.087  0.1055 -0.4191 -0.1164
 6837TIP3    H141926   2.084   0.448  17.095  0.2757 -1.3105  2.1361
 6837TIP3    H241927   2.195   0.449  16.993 -2.1193  1.1809 -0.5295
 6838TIP3   OH241928   5.422   3.413   2.706 -0.4247 -0.4062 -0.6194
 6838TIP3    H141929   5.504   3.402   2.657 -1.7689  1.0384 -3.2552
 6838TIP3    H241930   5.365   3.344   2.673 -0.7858 -0.4815  0.1536
 6839TIP3   OH241931   4.366   2.077  15.953  0.0596 -0.1508 -0.2465
 6839TIP3    H141932   4.432   2.146  15.966 -1.6898  1.9042 -1.9871
 6839TIP3    H241933   4.320   2.072  16.037 -0.7464  1.8537 -0.5445
 6840TIP3   OH241934   0.517   3.411  14.938 -0.2644 -0.5007  0.0022
 6840TIP3    H141935   0.514   3.507  14.945 -1.4497 -0.4595 -0.7680
 6840TIP3    H241936   0.492   3.394  14.847 -0.6982 -1.5615  0.3176
 6841TIP3   OH241937   5.879   0.740   2.862  0.6408 -0.5247 -0.0059
 6841TIP3    H141938   5.829   0.817   2.888  1.4779  0.1883 -0.4780
 6841TIP3    H241939   5.958   0.744   2.915  2.7343  1.3644 -3.1011
 6842TIP3   OH241940   3.614   0.832  13.059 -0.0474  0.2888  0.3732
 6842TIP3    H141941   3.557   0.794  13.125  0.2001  1.3811  1.2253
 6842TIP3    H241942   3.582   0.921  13.046  0.5083  0.4087 -0.2637
 6843TIP3   OH241943   3.773   3.655  14.726  0.9559 -0.0469  0.0206
 6843TIP3    H141944   3.697   3.646  14.783  3.2724 -0.4611  3.1539
 6843TIP3    H241945   3.823   3.726  14.764  2.9657 -0.8708 -1.0127
 6844TIP3   OH241946   5.949   2.033   6.609 -0.0285 -0.2864 -0.0237
 6844TIP3    H141947   6.021   1.977   6.579 -0.7495 -1.0616 -0.3185
 6844TIP3    H241948   5.981   2.072   6.690  1.1382  0.1995 -0.7030
 6845TIP3   OH241949   3.961   3.684   5.453 -0.4446 -0.1588 -0.0048
 6845TIP3    H141950   4.020   3.751   5.418 -0.8391 -0.2263 -0.8173
 6845TIP3    H241951   3.879   3.731   5.471 -0.0385  0.0065  1.4512
 6846TIP3   OH241952   3.708   2.565  16.056  0.2494  0.5492  0.1277
 6846TIP3    H141953   3.627   2.606  16.086  0.2996 -1.5067  3.3799
 6846TIP3    H241954   3.777   2.624  16.084  0.0320  0.8782 -0.0336
 6847TIP3   OH241955   6.673   1.290   3.870 -0.0694 -0.0583  0.0478
 6847TIP3    H141956   6.691   1.224   3.937  0.0114 -0.1423 -0.0567
 6847TIP3    H241957   6.653   1.370   3.920 -0.8033 -0.3251  0.1867
 6848TIP3   OH241958   1.848   1.862  14.633 -0.9475 -0.7619 -0.2850
 6848TIP3    H141959   1.781   1.794  14.625 -1.9600  0.4372 -2.3220
 6848TIP3    H241960   1.877   1.877  14.543  1.6878 -0.8778  0.5217
 6849TIP3   OH241961   1.863   4.031  11.807  0.2271  0.1304 -0.1020
 6849TIP3    H141962   1.945   4.043  11.854  0.3171  1.8820 -0.6595
 6849TIP3    H241963   1.888   4.036  11.714 -0.0720 -2.4057 -0.3593
 6850TIP3   OH241964   0.359   1.505   5.323 -0.5445 -0.3736  0.2714
 6850TIP3    H141965   0.407   1.537   5.246 -0.5061  1.4346  1.0241
 6850TIP3    H241966   0.280   1.559   5.326 -1.1773 -1.3167  0.7672
 6851TIP3   OH241967   2.158   2.722   5.911  0.2513 -0.0339  0.0840
 6851TIP3    H141968   2.193   2.638   5.879 -1.0045 -0.6052  0.1918
 6851TIP3    H241969   2.078   2.698   5.958 -0.3214  1.2734 -0.2206
 6852TIP3   OH241970   5.760   4.368  11.577 -0.2023 -0.2895  0.1343
 6852TIP3    H141971   5.697   4.302  11.549 -1.5627  0.6817  0.8630
 6852TIP3    H241972   5.818   4.379  11.502 -1.2906 -0.7146 -0.7869
 6853TIP3   OH241973   0.990   1.507   5.257 -0.1179  0.1720 -0.2332
 6853TIP3    H141974   1.041   1.456   5.194 -0.3922 -0.4721  0.0572
 6853TIP3    H241975   1.046   1.581   5.279 -0.0525  0.4538 -1.2967
 6854TIP3   OH241976   4.703   1.982  14.186  0.1531  0.0146 -0.2208
 6854TIP3    H141977   4.650   2.026  14.252  3.0235  1.0069  1.5172
 6854TIP3    H241978   4.652   1.905  14.162 -2.6841  1.6497  0.3372
 6855TIP3   OH241979   5.033   6.510   2.542  0.1788  0.0694  0.1960
 6855TIP3    H141980   5.003   6.452   2.613  1.1587  0.0610  0.6117
 6855TIP3    H241981   5.079   6.581   2.587 -2.9927  2.4447 -0.1554
 6856TIP3   OH241982   4.779   1.067  14.102 -0.4969  0.3077 -0.2031
 6856TIP3    H141983   4.715   1.074  14.172  2.3961  2.2837  2.3836
 6856TIP3    H241984   4.798   1.157  14.076  0.3562 -0.2836 -1.7477
 6857TIP3   OH241985   2.184   5.738   4.712 -0.7874  0.3151 -0.1737
 6857TIP3    H141986   2.241   5.791   4.656 -0.9267 -0.1173 -0.7256
 6857TIP3    H241987   2.188   5.781   4.798 -1.2928  1.5087 -0.7388
 6858TIP3   OH241988   1.676   3.983   0.091 -0.2606 -0.4538 -0.0376
 6858TIP3    H141989   1.670   3.887   0.085  0.3715 -0.4465 -0.9569
 6858TIP3    H241990   1.679   4.012   0.000  1.0767  0.3294  0.2484
 6859TIP3   OH241991   6.081   5.293  15.801  0.3092 -0.4355 -0.0166
 6859TIP3    H141992   6.041   5.341  15.727  0.4717  0.7692  0.6591
 6859TIP3    H241993   6.122   5.362  15.854  0.8288 -1.3753  0.8061
 6860TIP3   OH241994   3.459   4.707   6.176 -0.0735 -0.4891 -0.0477
 6860TIP3    H141995   3.549   4.739   6.180 -0.3019  0.2629 -0.7523
 6860TIP3    H241996   3.463   4.619   6.212  0.8705 -0.3030  0.3128
 6861TIP3   OH241997   5.362   3.060   1.620  0.7701 -0.5005 -0.2050
 6861TIP3    H141998   5.277   3.015   1.613  0.2995  0.3654 -0.1889
 6861TIP3    H241999   5.399   3.056   1.532  0.1476  0.1792 -0.5104
 6862TIP3   OH242000   5.474   6.113   1.107  0.0805  0.2270 -1.2534
 6862TIP3    H142001   5.502   6.175   1.040 -0.2587  1.8926  0.0987
 6862TIP3    H242002   5.379   6.115   1.105  0.0545 -1.4595 -2.2712
 6863TIP3   OH242003   1.546   1.858   3.872 -0.2568 -0.2460  0.8506
 6863TIP3    H142004   1.487   1.889   3.804 -0.8251 -1.5022  0.7731
 6863TIP3    H242005   1.493   1.855   3.951 -0.3529 -1.5753  0.7365
 6864TIP3   OH242006   4.630   3.778  13.703  0.2318 -0.0531  0.6518
 6864TIP3    H142007   4.649   3.699  13.653 -1.3400  0.9707 -1.6725
 6864TIP3    H242008   4.689   3.775  13.778  1.6481 -2.3586 -0.5291
 6865TIP3   OH242009   0.014   4.043   0.776  0.5248 -0.4823 -0.2106
 6865TIP3    H142010  -0.044   4.087   0.715  1.6457 -1.4606 -2.0251
 6865TIP3    H242011   0.071   4.112   0.809 -0.3157  0.1138  0.0217
 6866TIP3   OH242012   5.948   0.796  11.275 -0.2076 -0.3126 -0.4308
 6866TIP3    H142013   5.948   0.889  11.251  2.3464 -0.0975  0.1722
 6866TIP3    H242014   5.953   0.796  11.370  0.9841 -1.0225 -0.4776
 6867TIP3   OH242015   4.457   4.183   0.673 -0.3630  0.0650 -0.6069
 6867TIP3    H142016   4.453   4.268   0.718 -0.7585 -0.1484 -0.2418
 6867TIP3    H242017   4.387   4.187   0.608  1.5476  1.2064 -2.6703
 6868TIP3   OH242018   0.464   3.364   2.296 -0.5908  0.2990 -0.5278
 6868TIP3    H142019   0.376   3.350   2.331  0.3789 -1.1599  1.4063
 6868TIP3    H242020   0.490   3.279   2.261  0.0299  0.7401 -1.1568
 6869TIP3   OH242021   0.687   4.009  11.653  0.7743  0.7196 -0.3993
 6869TIP3    H142022   0.661   4.079  11.593 -2.1689 -1.2272 -1.5466
 6869TIP3    H242023   0.604   3.976  11.688  2.1046 -1.7643  0.5492
 6870TIP3   OH242024   5.334   3.429  15.435  0.6948  0.3044 -0.1590
 6870TIP3    H142025   5.412   3.402  15.483  0.7201 -0.1568 -0.4644
 6870TIP3    H242026   5.275   3.463  15.503  1.1212  0.5714  0.0799
 6871TIP3   OH242027   5.714   4.823   3.442 -0.0739  0.2815  0.4502
 6871TIP3    H142028   5.801   4.794   3.412  0.0024  0.8922  0.0676
 6871TIP3    H242029   5.661   4.743   3.443  1.0400 -0.4721  2.6414
 6872TIP3   OH242030   2.330   2.105  10.513 -0.2210 -0.0877  0.4436
 6872TIP3    H142031   2.416   2.141  10.534 -0.6973  0.7395  1.0098
 6872TIP3    H242032   2.272   2.181  10.513 -0.6640 -0.3799 -1.6037
 6873TIP3   OH242033   6.719   5.050   5.815 -0.1791 -0.4739 -0.1107
 6873TIP3    H142034   6.648   5.011   5.764 -0.5544  0.4311 -0.2829
 6873TIP3    H242035   6.695   5.142   5.824  1.4059  0.0518 -0.9399
 6874TIP3   OH242036   5.683   5.519  15.499  0.3904 -0.4765 -0.9123
 6874TIP3    H142037   5.606   5.475  15.463 -0.2560 -0.1776  0.0812
 6874TIP3    H242038   5.696   5.595  15.443 -2.2549  1.4939  1.0419
 6875TIP3   OH242039   4.185   1.507  15.372  0.5279 -0.1371 -0.1506
 6875TIP3    H142040   4.221   1.582  15.419 -1.1487 -0.4924  1.8024
 6875TIP3    H242041   4.090   1.515  15.384  0.3299 -2.6098  0.1744
 6876TIP3   OH242042   1.417   2.439  11.422  0.2235  0.3473  0.7844
 6876TIP3    H142043   1.499   2.400  11.453  0.0642 -0.6787 -0.0366
 6876TIP3    H242044   1.437   2.532  11.412  1.1060  0.2043  1.1805
 6877TIP3   OH242045   4.672   0.084  16.899  0.0826  0.6093 -0.5213
 6877TIP3    H142046   4.632   0.133  16.971  0.1867  1.0907 -0.7920
 6877TIP3    H242047   4.761   0.065  16.930  0.6395  2.1603 -1.1518
 6878TIP3   OH242048   1.983   6.335   5.086 -0.4871  0.1805 -0.2035
 6878TIP3    H142049   1.905   6.305   5.039 -0.2243 -1.7394  0.5401
 6878TIP3    H242050   1.961   6.325   5.179  0.1360  0.9987  0.0448
 6879TIP3   OH242051   0.545   0.505   3.244  0.0670  0.7778  0.3826
 6879TIP3    H142052   0.584   0.590   3.224  0.4321  0.5898  0.2971
 6879TIP3    H242053   0.530   0.507   3.338 -0.0636  0.9921  0.3594
 6880TIP3   OH242054   4.425   6.776   3.675  0.2295 -0.4866  0.1998
 6880TIP3    H142055   4.478   6.840   3.722  0.9783 -1.8259  1.2040
 6880TIP3    H242056   4.400   6.821   3.594 -0.9289  1.7750  1.7683
 6881TIP3   OH242057   5.887   3.343  16.137 -0.3381  0.2507  0.3397
 6881TIP3    H142058   5.929   3.426  16.115 -2.1487  1.4403  1.2695
 6881TIP3    H242059   5.922   3.321  16.224 -0.3371  0.3563  0.3662
 6882TIP3   OH242060   1.861   1.582   3.671  0.1746 -1.1776  0.0158
 6882TIP3    H142061   1.832   1.605   3.760 -1.4444  0.1682 -0.8234
 6882TIP3    H242062   1.781   1.587   3.618  1.1903 -1.6092 -1.5819
 6883TIP3   OH242063   0.852   1.102  16.776 -0.5379 -0.0408  0.5721
 6883TIP3    H142064   0.853   1.037  16.846 -0.3224 -1.6084 -0.8430
 6883TIP3    H242065   0.787   1.070  16.714  1.5886 -0.4683 -1.5416
 6884TIP3   OH242066   1.988   4.311   1.325 -0.3455 -0.0726 -0.4017
 6884TIP3    H142067   2.042   4.232   1.321 -0.3976 -0.1768  0.7004
 6884TIP3    H242068   1.935   4.299   1.404 -0.5078  0.9690 -0.3509
 6885TIP3   OH242069   0.371   5.530  14.508  0.2667 -0.5019 -0.2887
 6885TIP3    H142070   0.365   5.533  14.604  2.6126 -0.1434 -0.1189
 6885TIP3    H242071   0.311   5.597  14.478 -0.9396 -1.0242  0.9174
 6886TIP3   OH242072   4.466   1.334   3.297  0.2460 -0.6950  0.3072
 6886TIP3    H142073   4.372   1.349   3.297  0.6708  2.1557  0.9262
 6886TIP3    H242074   4.486   1.308   3.206 -0.4994  3.2497 -1.0716
 6887TIP3   OH242075   4.566   5.806   4.747  0.5618 -0.2455  0.1977
 6887TIP3    H142076   4.561   5.766   4.834 -0.5114 -1.1885 -0.2813
 6887TIP3    H242077   4.583   5.899   4.764 -1.0031 -0.1690  1.4721
 6888TIP3   OH242078   0.980   2.559  14.525  0.1970 -0.1559 -0.2236
 6888TIP3    H142079   0.890   2.590  14.535  0.5073 -0.0160  2.3313
 6888TIP3    H242080   0.996   2.564  14.431 -2.8167 -1.2222 -0.8581
 6889TIP3   OH242081   2.660   2.328   5.809  0.0548  0.6110 -0.3950
 6889TIP3    H142082   2.670   2.395   5.876  1.2574 -1.7626  1.9095
 6889TIP3    H242083   2.748   2.318   5.772  0.2183 -0.6890  0.3084
 6890TIP3   OH242084   1.066   0.898  15.612  0.7206 -0.5341  0.4128
 6890TIP3    H142085   0.978   0.867  15.592  0.3768 -0.3417  1.5967
 6890TIP3    H242086   1.124   0.833  15.571  0.1219  1.5254 -3.9028
 6891TIP3   OH242087   0.592   4.130  15.391 -0.8833 -0.1868 -0.4955
 6891TIP3    H142088   0.622   4.069  15.324  1.1429  0.8764 -0.5713
 6891TIP3    H242089   0.641   4.107  15.469  0.1137  1.5183 -0.5981
 6892TIP3   OH242090   4.169   0.782  16.604 -0.3787  0.3347  0.0004
 6892TIP3    H142091   4.166   0.694  16.567  0.6044  1.1091 -1.9594
 6892TIP3    H242092   4.224   0.774  16.682 -1.8481 -1.1530  0.8990
 6893TIP3   OH242093   1.492   6.472   4.485 -0.5119 -0.1672 -0.6112
 6893TIP3    H142094   1.451   6.506   4.406 -0.4014 -1.3483 -1.1729
 6893TIP3    H242095   1.420   6.432   4.534 -0.5557  0.4362 -0.1746
 6894TIP3   OH242096   4.407   2.836   3.628 -0.2094  0.3022  0.2066
 6894TIP3    H142097   4.439   2.916   3.670  0.8067  1.2121 -2.1685
 6894TIP3    H242098   4.315   2.831   3.654  0.2513  1.1033  2.0716
 6895TIP3   OH242099   5.677   2.773  12.628  0.3615 -0.8146  0.0573
 6895TIP3    H142100   5.624   2.695  12.643  1.3214 -1.6031 -0.5535
 6895TIP3    H242101   5.627   2.823  12.564 -1.2044  0.0367  1.9195
 6896TIP3   OH242102   4.798   0.441  15.977 -0.4998  0.0284  0.2081
 6896TIP3    H142103   4.717   0.390  15.972 -0.3507 -0.2684  0.8230
 6896TIP3    H242104   4.856   0.388  16.032  0.5755 -0.4034 -1.3136
 6897TIP3   OH242105   5.109   3.181   6.838 -0.5981 -0.0405 -0.1339
 6897TIP3    H142106   5.193   3.225   6.821 -0.3740 -0.2205  0.4940
 6897TIP3    H242107   5.121   3.093   6.804 -0.4771 -0.1186  0.1153
 6898TIP3   OH242108   2.262   2.431  15.605  0.8343  0.1219  0.2277
 6898TIP3    H142109   2.246   2.474  15.521 -3.1198 -0.4399  0.6122
 6898TIP3    H242110   2.246   2.499  15.670  1.5626 -0.0844  0.6345
 6899TIP3   OH242111   3.714   1.370  11.752 -0.2515 -0.8171 -0.1596
 6899TIP3    H142112   3.807   1.382  11.730 -0.0213  1.0512  1.6435
 6899TIP3    H242113   3.706   1.278  11.775  1.5835 -0.5841  1.5103
 6900TIP3   OH242114   0.868   3.431  11.571 -0.2517  0.0979 -0.7800
 6900TIP3    H142115   0.859   3.336  11.572  1.8849 -0.1227 -0.0285
 6900TIP3    H242116   0.842   3.458  11.659  1.2789 -0.0357 -0.2681
 6901TIP3   OH242117   0.982   4.834   5.824 -0.4201  0.5085 -0.7705
 6901TIP3    H142118   0.933   4.909   5.857 -0.6573 -0.3798  0.9622
 6901TIP3    H242119   0.950   4.760   5.876 -0.2350 -0.8111 -2.4864
 6902TIP3   OH242120   0.169   2.397  13.510  0.1311  0.0312  0.0818
 6902TIP3    H142121   0.262   2.404  13.490 -0.1978  0.8349 -1.1998
 6902TIP3    H242122   0.148   2.478  13.557 -0.0116  0.0327  0.0168
 6903TIP3   OH242123   1.601   4.400   1.355  0.3040 -0.2980 -0.1124
 6903TIP3    H142124   1.576   4.400   1.447  1.7676  0.5797  0.3115
 6903TIP3    H242125   1.604   4.308   1.330  2.8400 -0.7277  1.5787
 6904TIP3   OH242126   6.378   1.669  14.462  0.1451 -0.6723  0.1687
 6904TIP3    H142127   6.403   1.654  14.371 -0.8851  1.6552 -0.5314
 6904TIP3    H242128   6.300   1.616  14.475 -0.2176 -0.3198 -0.5777
 6905TIP3   OH242129   2.144   2.974   6.129  0.2602 -0.1322 -0.3345
 6905TIP3    H142130   2.097   2.894   6.152 -1.7905  1.1939  0.2130
 6905TIP3    H242131   2.191   2.998   6.209 -1.2466  0.6272  0.3481
 6906TIP3   OH242132   3.729   4.565   2.315 -0.0201 -0.0778 -0.0773
 6906TIP3    H142133   3.787   4.639   2.329 -0.5547  0.8472 -2.4879
 6906TIP3    H242134   3.642   4.597   2.341  0.0232 -0.4617  0.5705
 6907TIP3   OH242135   4.529   0.924   4.969  0.1454 -0.1056  0.6292
 6907TIP3    H142136   4.556   0.852   4.912 -1.4635  0.6619 -1.1479
 6907TIP3    H242137   4.444   0.897   5.004 -0.9179  1.2900 -0.7867
 6908TIP3   OH242138   2.479   2.652   3.835 -0.0650 -0.6939  0.0132
 6908TIP3    H142139   2.425   2.695   3.769  3.1950  1.2396 -1.5119
 6908TIP3    H242140   2.474   2.709   3.912 -0.6458 -0.8158  0.0638
 6909TIP3   OH242141   5.737   3.624   3.321 -0.1700 -0.0576 -0.9616
 6909TIP3    H142142   5.645   3.598   3.314 -0.2888  0.3260 -0.8229
 6909TIP3    H242143   5.735   3.719   3.334  0.2711  0.0407 -1.5804
 6910TIP3   OH242144   0.756   6.684  11.398 -0.1958 -0.4300 -0.1738
 6910TIP3    H142145   0.686   6.650  11.342 -0.1748 -1.2562  0.2931
 6910TIP3    H242146   0.835   6.639  11.368 -0.2074 -0.9877  0.6037
 6911TIP3   OH242147   3.294   1.664  15.140 -0.5309 -0.5835 -0.4871
 6911TIP3    H142148   3.246   1.650  15.058  0.1888 -1.9561 -0.7019
 6911TIP3    H242149   3.358   1.732  15.119 -1.0346 -0.1997 -0.7752
 6912TIP3   OH242150   1.256   2.272  12.963  0.2667 -0.1780  0.5188
 6912TIP3    H142151   1.286   2.248  12.875  0.4983  0.5896  0.3880
 6912TIP3    H242152   1.336   2.291  13.011  0.4277 -3.8888  1.9141
 6913TIP3   OH242153   3.404   2.079  12.071  0.3680  0.4275  0.6850
 6913TIP3    H142154   3.439   1.990  12.066 -0.5777  0.0714 -0.0045
 6913TIP3    H242155   3.335   2.074  12.137  2.5187  1.4636  3.0986
 6914TIP3   OH242156   1.574   0.769   0.276  0.2283 -0.0129 -0.1628
 6914TIP3    H142157   1.510   0.746   0.343  1.4255  0.4596  1.1592
 6914TIP3    H242158   1.617   0.686   0.254 -0.8881 -0.3507 -1.1334
 6915TIP3   OH242159   2.006   0.533   3.316  0.3232  0.2934 -0.3953
 6915TIP3    H142160   1.986   0.445   3.283  1.1024  0.2807 -0.8378
 6915TIP3    H242161   2.011   0.588   3.238  0.7214  0.5546 -0.1868
 6916TIP3   OH242162   4.325   6.614   1.815  0.3426  1.0229  0.3616
 6916TIP3    H142163   4.258   6.565   1.766 -1.2333  2.4429  1.0410
 6916TIP3    H242164   4.393   6.632   1.751  0.9325 -1.9304  0.0516
 6917TIP3   OH242165   4.064   1.685  13.310  0.0481  0.1377  0.1122
 6917TIP3    H142166   4.036   1.623  13.242  0.9364 -0.7893  0.5800
 6917TIP3    H242167   4.160   1.687  13.302  0.0389  1.3372  0.2108
 6918TIP3   OH242168   4.849   1.605  13.756  0.2356  0.0815  0.0979
 6918TIP3    H142169   4.761   1.643  13.761  0.4122  0.6663 -1.2976
 6918TIP3    H242170   4.844   1.529  13.815 -0.9135  0.6651  0.7808
 6919TIP3   OH242171   2.382   6.688   6.518 -0.5797  0.5944 -0.0486
 6919TIP3    H142172   2.427   6.667   6.600 -3.2932 -2.6821  0.7186
 6919TIP3    H242173   2.418   6.625   6.455 -1.6501  0.2073 -0.2746
 6920TIP3   OH242174   6.246   6.666   3.695 -0.4730 -0.0836 -0.4605
 6920TIP3    H142175   6.254   6.572   3.711  3.9077  0.5518  1.6228
 6920TIP3    H242176   6.277   6.678   3.605  0.7125 -0.4366 -0.1042
 6921TIP3   OH242177   6.338   0.295  11.059  0.1734 -0.2483 -0.0868
 6921TIP3    H142178   6.276   0.250  11.117  0.2009  0.2218  0.3180
 6921TIP3    H242179   6.345   0.384  11.096 -0.4428  0.3176 -1.2988
 6922TIP3   OH242180   4.031   0.549   1.235 -0.3712 -0.3807  0.1677
 6922TIP3    H142181   4.087   0.621   1.205 -0.9813  0.2451  0.5332
 6922TIP3    H242182   4.074   0.470   1.202  0.8007  0.0903  0.5711
 6923TIP3   OH242183   3.549   5.023   4.482 -0.8497  0.1302 -0.1653
 6923TIP3    H142184   3.588   5.072   4.409 -1.2772  0.2373 -0.3232
 6923TIP3    H242185   3.594   4.938   4.480 -0.1439  0.4972  0.0761
 6924TIP3   OH242186   3.184   2.205  11.256 -0.3169  0.0420  0.6814
 6924TIP3    H142187   3.124   2.181  11.186  2.2209 -0.0489 -1.5674
 6924TIP3    H242188   3.200   2.124  11.303 -0.1126 -0.4605 -0.2326
 6925TIP3   OH242189   5.956   0.105   3.585 -0.0477  0.0980  0.1911
 6925TIP3    H142190   5.901   0.162   3.531  0.7811  0.5091 -0.2234
 6925TIP3    H242191   5.928   0.122   3.675 -1.7560 -0.9277 -0.1150
 6926TIP3   OH242192   0.758   3.936  17.112  0.4022 -0.5531  0.0548
 6926TIP3    H142193   0.827   3.906  17.172 -0.1123  0.3300  1.1044
 6926TIP3    H242194   0.806   3.980  17.041  0.9632 -0.6194  0.3862
 6927TIP3   OH242195   3.991   6.771   0.540  0.2790  0.4508 -0.1563
 6927TIP3    H142196   4.083   6.746   0.539  0.3599  0.6643  1.5706
 6927TIP3    H242197   3.964   6.763   0.631 -1.7144 -0.6405 -0.8045
 6928TIP3   OH242198   0.041   4.983  13.575 -0.6437  0.2336 -0.5768
 6928TIP3    H142199   0.107   5.053  13.578 -0.8397  0.3496  2.1523
 6928TIP3    H242200  -0.041   5.029  13.558 -0.7930  0.7385  1.3529
 6929TIP3   OH242201   4.256   2.385  13.267 -0.0722 -0.2939  0.2534
 6929TIP3    H142202   4.303   2.351  13.190  0.1323  1.4727 -0.4195
 6929TIP3    H242203   4.311   2.457  13.298 -1.8853  1.2249 -0.0067
 6930TIP3   OH242204   5.557   4.847   2.212 -0.1254 -0.1150 -0.3050
 6930TIP3    H142205   5.613   4.775   2.241 -0.3751  0.6458  2.2015
 6930TIP3    H242206   5.615   4.905   2.162  0.6492 -0.7543 -0.1468
 6931TIP3   OH242207   6.645   0.914   0.565 -0.2000 -0.3827 -0.1622
 6931TIP3    H142208   6.729   0.896   0.608 -0.0760  0.9823  0.1860
 6931TIP3    H242209   6.588   0.945   0.635 -0.9638 -1.1746 -0.4236
 6932TIP3   OH242210   3.244   2.103  14.838  0.2106 -0.1951 -0.5105
 6932TIP3    H142211   3.271   2.161  14.767 -0.3673  0.0010 -0.5736
 6932TIP3    H242212   3.314   2.110  14.902 -0.2026  1.1688 -0.1787
 6933TIP3   OH242213   2.812   2.249  16.429 -0.1632 -0.3802  0.2727
 6933TIP3    H142214   2.788   2.341  16.444  0.9335  0.1354 -0.9819
 6933TIP3    H242215   2.823   2.212  16.517 -1.8014  0.3559  0.8031
 6934TIP3   OH242216   2.071   1.853   4.909  0.4437 -0.6935 -0.4328
 6934TIP3    H142217   2.122   1.910   4.852  1.2231 -0.5475  0.3910
 6934TIP3    H242218   2.058   1.772   4.859 -0.0002 -0.0843 -1.3045
 6935TIP3   OH242219   2.062   4.160   2.789 -0.0156  0.0845  0.4416
 6935TIP3    H142220   2.111   4.137   2.869 -0.4471 -0.0496  0.6711
 6935TIP3    H242221   2.062   4.079   2.738  1.6912  0.6375 -0.4525
 6936TIP3   OH242222   6.019   5.775   0.371  0.1801 -0.1636  0.1219
 6936TIP3    H142223   5.970   5.845   0.414  2.7096  2.0113 -0.4268
 6936TIP3    H242224   5.965   5.749   0.297 -2.6742 -1.6556  2.6231
 6937TIP3   OH242225   3.152   6.051   0.100 -0.6134 -0.3275 -0.3829
 6937TIP3    H142226   3.168   6.135   0.143  0.0691 -1.4469  1.6139
 6937TIP3    H242227   3.237   6.007   0.102 -0.4532 -0.2201 -3.3531
 6938TIP3   OH242228   5.945   1.295   3.625 -0.1652 -0.6229 -0.1137
 6938TIP3    H142229   5.957   1.232   3.696 -0.5068  0.4567  0.9109
 6938TIP3    H242230   5.998   1.370   3.650  3.0343 -1.7871 -3.0079
 6939TIP3   OH242231   4.803   4.566   0.730 -0.1810 -0.1735 -0.6289
 6939TIP3    H142232   4.761   4.594   0.811  1.4006 -1.5948  0.7100
 6939TIP3    H242233   4.833   4.647   0.689 -1.3978  0.5850 -0.0353
 6940TIP3   OH242234   0.854   4.003   2.763  0.6956 -0.6331  0.4324
 6940TIP3    H142235   0.896   3.917   2.768  1.2171 -0.4822 -1.1155
 6940TIP3    H242236   0.905   4.051   2.698  0.7055  1.0330  1.6459
 6941TIP3   OH242237   5.542   1.547  13.876  0.2681  0.5065  0.7879
 6941TIP3    H142238   5.477   1.613  13.853  0.4484  0.4867  0.1988
 6941TIP3    H242239   5.573   1.513  13.791 -0.9621 -1.4320  1.0798
 6942TIP3   OH242240   0.361   1.648   3.529  0.2333  0.0905  0.2961
 6942TIP3    H142241   0.294   1.647   3.597 -0.0756 -0.5897 -0.0164
 6942TIP3    H242242   0.405   1.733   3.540 -1.9082  1.3798 -0.7023
 6943TIP3   OH242243   1.318   5.734   3.962  0.5648 -0.2061 -0.2396
 6943TIP3    H142244   1.310   5.731   3.866  0.0670  1.5879 -0.2620
 6943TIP3    H242245   1.409   5.707   3.978  1.3366  1.6011 -1.3653
 6944TIP3   OH242246   0.976   2.094  12.143 -0.3221  0.7156  0.4690
 6944TIP3    H142247   0.892   2.058  12.172 -0.1577  0.3623  0.5163
 6944TIP3    H242248   1.003   2.152  12.213 -0.5719  0.9053  0.4110
 6945TIP3   OH242249   5.178   0.311  15.044  0.6901 -0.6883 -0.0435
 6945TIP3    H142250   5.183   0.215  15.038  0.0156 -0.7528  0.4024
 6945TIP3    H242251   5.192   0.330  15.136 -1.0330 -0.4850  0.2021
 6946TIP3   OH242252   0.920   4.860   0.728  0.1804 -0.5142 -0.2692
 6946TIP3    H142253   1.013   4.881   0.729  0.2638 -0.6967 -2.9441
 6946TIP3    H242254   0.917   4.768   0.702 -0.7682 -0.5377 -0.0886
 6947TIP3   OH242255   1.479   0.007   0.643  0.5711  0.3506  0.3880
 6947TIP3    H142256   1.453   0.025   0.734  1.7901 -1.0710  1.0507
 6947TIP3    H242257   1.575  -0.001   0.647  0.6467  0.4171 -1.0524
 6948TIP3   OH242258   6.394   5.929  16.492 -0.2683 -0.6785  0.3522
 6948TIP3    H142259   6.365   5.846  16.452  2.4272 -1.4685 -0.0483
 6948TIP3    H242260   6.420   5.904  16.581  2.7733 -0.7471 -0.5161
 6949TIP3   OH242261   5.237   2.938  15.291 -0.3982  0.4109  0.6369
 6949TIP3    H142262   5.243   2.896  15.377 -1.2848 -1.0807 -0.0334
 6949TIP3    H242263   5.320   2.986  15.283  0.3873 -0.7432  1.6498
 6950TIP3   OH242264   2.140   4.188  12.257 -0.1025  0.5774 -0.0856
 6950TIP3    H142265   2.158   4.161  12.347 -0.4100 -0.1072 -0.2218
 6950TIP3    H242266   2.204   4.256  12.238  0.4767  0.1680  0.3928
 6951TIP3   OH242267   3.834   1.045   1.701 -0.2165  0.5022  0.0264
 6951TIP3    H142268   3.773   1.000   1.759  0.6357 -1.6485 -0.6849
 6951TIP3    H242269   3.796   1.132   1.688 -1.9157 -0.0115  1.4294
 6952TIP3   OH242270   2.079   1.693  14.049 -0.3063 -0.4750 -0.6588
 6952TIP3    H142271   2.142   1.626  14.078 -1.8063 -1.7333 -0.2282
 6952TIP3    H242272   2.133   1.765  14.017  1.4019 -0.4171  2.1835
 6953TIP3   OH242273   3.186   0.280   2.109 -0.5019 -0.0112  0.1845
 6953TIP3    H142274   3.158   0.338   2.179 -0.0357  0.2105  0.1920
 6953TIP3    H242275   3.248   0.332   2.058 -0.8073 -0.1829 -0.3683
 6954TIP3   OH242276   0.146   2.376   5.078 -0.1176 -0.0123 -0.0409
 6954TIP3    H142277   0.152   2.396   4.984 -1.0342  0.9927  0.1068
 6954TIP3    H242278   0.211   2.308   5.092  0.3518  0.1572 -1.3283
 6955TIP3   OH242279   3.288   4.622   0.060 -0.0764 -0.0540 -0.1684
 6955TIP3    H142280   3.316   4.704   0.018 -1.5713 -0.5050 -2.1457
 6955TIP3    H242281   3.288   4.641   0.153 -2.1892  2.7971 -0.7071
 6956TIP3   OH242282   0.788   4.221   4.098  0.7144 -0.0326 -0.0092
 6956TIP3    H142283   0.748   4.151   4.047 -1.2603  0.6859  0.4951
 6956TIP3    H242284   0.715   4.277   4.124  1.8718  0.5085  2.2360
 6957TIP3   OH242285   0.170   5.762   4.383 -0.0337 -0.4801  0.3016
 6957TIP3    H142286   0.106   5.748   4.453  1.1312 -1.2605  1.2326
 6957TIP3    H242287   0.145   5.846   4.345 -1.7925 -0.9051  0.4380
 6958TIP3   OH242288   1.299   1.745   1.783  0.0359 -0.2085  0.6592
 6958TIP3    H142289   1.279   1.697   1.864  0.8690  0.2537  1.1542
 6958TIP3    H242290   1.295   1.679   1.714  0.0032 -0.7509  1.1748
 6959TIP3   OH242291   3.068   5.966   5.332 -0.4962 -0.1833 -0.1747
 6959TIP3    H142292   3.111   6.046   5.359  3.4856 -2.3695  0.2658
 6959TIP3    H242293   3.049   5.920   5.414  1.3626 -1.6912 -0.5503
 6960TIP3   OH242294   0.234   0.560  14.373  0.2862  0.1119 -0.8606
 6960TIP3    H142295   0.155   0.605  14.341  0.3058  0.0956 -0.9320
 6960TIP3    H242296   0.301   0.629  14.375  0.1715  0.2091 -0.4391
 6961TIP3   OH242297   4.991   1.885   4.136  0.1826 -0.5472 -0.0388
 6961TIP3    H142298   4.999   1.804   4.186  0.5772 -1.5335 -1.6769
 6961TIP3    H242299   5.011   1.954   4.200 -2.0981 -1.5711  1.8696
 6962TIP3   OH242300   1.962   0.906   5.063 -0.5536 -0.4162 -0.0833
 6962TIP3    H142301   2.036   0.855   5.096 -1.4102  0.4317  3.3104
 6962TIP3    H242302   1.885   0.855   5.086 -1.2424  0.7776  0.3011
 6963TIP3   OH242303   0.312   6.222   1.802 -0.0362 -0.8023 -0.5395
 6963TIP3    H142304   0.317   6.177   1.718  0.8562  0.5552 -1.2361
 6963TIP3    H242305   0.402   6.245   1.822 -0.5212  1.1056 -0.4533
 6964TIP3   OH242306   0.554   0.219   5.569  0.5208  0.8392 -0.2477
 6964TIP3    H142307   0.572   0.191   5.480  1.0074  0.7643 -0.1282
 6964TIP3    H242308   0.592   0.307   5.575 -0.3646  1.2417 -0.4038
 6965TIP3   OH242309   5.278   2.108   1.627  0.9627 -0.1010  0.2797
 6965TIP3    H142310   5.285   2.102   1.723  0.2647 -0.3421  0.3158
 6965TIP3    H242311   5.368   2.118   1.598  1.2771 -1.0228  0.8963
 6966TIP3   OH242312   1.224   1.829   2.212  0.4731 -0.3335  0.5975
 6966TIP3    H142313   1.291   1.882   2.167 -2.7321  1.3383 -2.5239
 6966TIP3    H242314   1.203   1.879   2.291 -0.5327  1.7332 -0.9224
 6967TIP3   OH242315   5.156   3.194  16.316 -0.6246 -0.1284  0.7319
 6967TIP3    H142316   5.070   3.176  16.354 -0.8003 -2.3454 -0.6339
 6967TIP3    H242317   5.140   3.263  16.252 -1.5859 -1.1129 -0.1251
 6968TIP3   OH242318   1.962   6.056   3.809 -0.1726  0.4871  0.1415
 6968TIP3    H142319   2.042   6.107   3.805 -0.1398  0.4319  0.0887
 6968TIP3    H242320   1.956   6.013   3.724  1.7632 -2.5282  1.4336
 6969TIP3   OH242321   0.704   1.307   5.659 -0.5882  0.5922  0.3423
 6969TIP3    H142322   0.696   1.212   5.671  0.7281  0.5158  0.6595
 6969TIP3    H242323   0.672   1.322   5.570 -1.7077 -0.0181  0.6339
 6970TIP3   OH242324   5.731   6.007  12.087 -0.5355  0.0517  0.1333
 6970TIP3    H142325   5.666   6.077  12.083 -0.3862  0.2508  0.9384
 6970TIP3    H242326   5.798   6.040  12.147 -0.2141 -0.5775  0.1332
 6971TIP3   OH242327   4.722   4.353   5.687  0.7724 -0.2285 -0.5511
 6971TIP3    H142328   4.805   4.384   5.650  0.5930 -1.9667 -2.4935
 6971TIP3    H242329   4.698   4.278   5.633 -0.3555 -1.8624  2.1211
 6972TIP3   OH242330   3.464   6.075  16.600  0.7610 -0.2711 -0.8818
 6972TIP3    H142331   3.555   6.092  16.623  0.3234  1.5558 -0.3904
 6972TIP3    H242332   3.431   6.021  16.672  1.0888  0.2056 -0.3685
 6973TIP3   OH242333   4.130   2.168   5.254 -0.0683  0.4319 -0.6538
 6973TIP3    H142334   4.121   2.244   5.310  1.3177  1.4826 -1.7998
 6973TIP3    H242335   4.052   2.169   5.198 -0.7487  0.1800  0.2755
 6974TIP3   OH242336   5.511   4.492  11.370  0.4518 -0.3306 -0.4324
 6974TIP3    H142337   5.422   4.485  11.336  1.4065 -1.7590 -2.7626
 6974TIP3    H242338   5.563   4.434  11.314  3.3514  2.6110 -0.9241
 6975TIP3   OH242339   5.098   1.632  14.283 -0.0045  0.3371 -0.7746
 6975TIP3    H142340   5.074   1.724  14.278 -1.3525  0.1672  1.5158
 6975TIP3    H242341   5.014   1.586  14.290  0.6472 -1.0759 -2.0579
 6976TIP3   OH242342   5.568   1.037  16.780  0.5437  0.0205  0.0536
 6976TIP3    H142343   5.606   1.093  16.712  1.2316 -1.7377 -1.0455
 6976TIP3    H242344   5.494   0.994  16.737  0.3722 -0.3519  0.7110
 6977TIP3   OH242345   2.848   4.244   3.700 -0.2282  0.0533 -0.0479
 6977TIP3    H142346   2.778   4.185   3.729 -1.3645  1.0422 -0.6908
 6977TIP3    H242347   2.801   4.319   3.663  1.1994  0.2051 -1.5780
 6978TIP3   OH242348   2.957   5.506  13.675  0.5533  0.0186  0.9841
 6978TIP3    H142349   2.945   5.580  13.616  0.6503  1.1421  2.3777
 6978TIP3    H242350   2.876   5.456  13.667  2.1927 -2.2540 -3.4089
 6979TIP3   OH242351   3.541   4.828  13.303  0.6147  0.2434 -0.4527
 6979TIP3    H142352   3.462   4.840  13.251 -0.0222 -0.5653  0.3136
 6979TIP3    H242353   3.611   4.867  13.250  0.0084 -0.7115 -1.9852
 6980TIP3   OH242354   2.223   1.915  12.121  0.4489 -0.0446  0.0711
 6980TIP3    H142355   2.129   1.908  12.141  0.1182  1.1040 -1.0036
 6980TIP3    H242356   2.226   1.959  12.036  1.9921  0.3960  0.3465
 6981TIP3   OH242357   6.412   5.879  12.422 -0.1174 -0.2854  0.0351
 6981TIP3    H142358   6.407   5.791  12.384 -1.5345 -0.5671  0.8089
 6981TIP3    H242359   6.395   5.938  12.349 -1.5736 -0.7700 -0.0394
 6982TIP3   OH242360   6.563   2.784   3.941 -0.0558  0.0998 -0.0468
 6982TIP3    H142361   6.650   2.823   3.932  1.3887 -3.2854 -1.7716
 6982TIP3    H242362   6.564   2.743   4.027 -0.2671  0.8008  0.2910
 6983TIP3   OH242363   4.470   6.132  14.813  0.0936  0.7654 -0.1704
 6983TIP3    H142364   4.514   6.127  14.898 -0.9503 -0.7645  0.2990
 6983TIP3    H242365   4.377   6.131  14.833 -0.1982 -1.4066 -1.3797
 6984TIP3   OH242366   3.638   6.634   5.799  0.2631 -0.2164 -0.1559
 6984TIP3    H142367   3.646   6.544   5.765  0.1716 -0.2990  0.0406
 6984TIP3    H242368   3.546   6.642   5.824  0.3831 -0.2347  0.2905
 6985TIP3   OH242369   3.142   0.280   1.509 -0.4220 -0.4032  0.3746
 6985TIP3    H142370   3.223   0.232   1.493 -0.4573 -0.6032  0.7901
 6985TIP3    H242371   3.169   0.353   1.566 -0.2416  0.4744 -0.8194
 6986TIP3   OH242372   2.288   1.404  11.671 -0.3337  0.8401  0.1970
 6986TIP3    H142373   2.310   1.382  11.580 -0.8691  0.3902  0.1700
 6986TIP3    H242374   2.338   1.483  11.689 -0.6903  1.2787 -0.6873
 6987TIP3   OH242375   5.462   1.841  16.045  0.2825  0.1021 -0.1759
 6987TIP3    H142376   5.473   1.751  16.014  0.7729 -0.0726  0.4940
 6987TIP3    H242377   5.426   1.832  16.133 -1.5176  0.6035 -0.8376
 6988TIP3   OH242378   4.089   3.012   0.381 -0.2884 -0.0350  0.0196
 6988TIP3    H142379   4.092   3.101   0.348  0.6336  0.0117  0.2176
 6988TIP3    H242380   4.143   2.961   0.321  0.0561 -0.2547  0.5045
 6989TIP3   OH242381   2.267   6.080   3.462  0.0985 -0.3672  0.8520
 6989TIP3    H142382   2.342   6.113   3.511  1.3682 -1.0303 -0.6058
 6989TIP3    H242383   2.292   5.991   3.437 -1.1290 -0.5548  0.2615
 6990TIP3   OH242384   0.440   1.576  12.844 -0.1468  0.0884  0.1410
 6990TIP3    H142385   0.529   1.570  12.807 -0.1972  0.4090 -0.0352
 6990TIP3    H242386   0.439   1.510  12.913  1.2159  2.1055  2.1790
 6991TIP3   OH242387   2.976   2.429   2.236  0.0693 -0.1458  0.3258
 6991TIP3    H142388   3.044   2.486   2.273 -0.4989  0.1011  0.9915
 6991TIP3    H242389   2.941   2.479   2.163  0.7132 -0.3424 -0.1258
 6992TIP3   OH242390   5.070   0.749  14.791 -0.2184  0.3033  0.1158
 6992TIP3    H142391   5.078   0.818  14.726  0.7734 -0.0557 -0.1601
 6992TIP3    H242392   4.981   0.716  14.782 -0.9728  2.0850  0.8114
 6993TIP3   OH242393   0.070   0.875   3.900 -0.2124 -0.5371 -0.2986
 6993TIP3    H142394   0.106   0.788   3.915  0.5031  0.1418  2.2603
 6993TIP3    H242395   0.105   0.902   3.815  0.0790 -2.4500 -0.8101
 6994TIP3   OH242396   2.155   4.024   0.034 -0.3148 -0.3527  0.6791
 6994TIP3    H142397   2.091   3.957   0.009 -1.5764  0.9181  0.4322
 6994TIP3    H242398   2.135   4.098  -0.023  0.8610  0.3545  1.1668
 6995TIP3   OH242399   2.522   5.085   2.189  0.0247 -0.1183 -0.1431
 6995TIP3    H142400   2.545   5.113   2.278 -1.4087  0.7961 -0.0312
 6995TIP3    H242401   2.535   5.164   2.135  2.2781 -1.0530 -1.0249
 6996TIP3   OH242402   6.368   3.885  13.657 -0.8301  0.4207  0.7708
 6996TIP3    H142403   6.374   3.790  13.655 -0.6822  0.3774  2.2864
 6996TIP3    H242404   6.274   3.904  13.654 -0.8839  0.1985  1.0322
 6997TIP3   OH242405   1.913   3.118  15.784 -0.1521 -0.0649 -0.5652
 6997TIP3    H142406   1.828   3.076  15.766 -0.8808  1.8650 -1.8219
 6997TIP3    H242407   1.913   3.196  15.728  1.9436  0.6137  0.3445
 6998TIP3   OH242408   4.021   5.355   5.464  0.2823 -0.0841  0.4010
 6998TIP3    H142409   3.974   5.300   5.526  1.9341 -0.4764  1.3336
 6998TIP3    H242410   4.097   5.302   5.438 -0.7356 -0.2121 -2.4952
 6999TIP3   OH242411   4.973   6.700  12.907 -0.1317  0.3781 -0.1605
 6999TIP3    H142412   5.002   6.740  12.825  0.7398  0.0679 -0.0157
 6999TIP3    H242413   4.924   6.622  12.881 -3.0545  2.2553 -0.4945
 7000TIP3   OH242414   5.527   5.860  13.433 -0.7304  0.3452  0.1203
 7000TIP3    H142415   5.473   5.809  13.373 -0.3275 -1.0111  0.8716
 7000TIP3    H242416   5.465   5.916  13.479 -1.4019 -0.6038  0.3976
 7001TIP3   OH242417   0.945   4.027   4.222 -0.0187  0.1005 -0.4598
 7001TIP3    H142418   0.889   3.976   4.282 -1.4798  1.2300 -0.8289
 7001TIP3    H242419   0.909   4.115   4.226  1.8113  0.8755 -0.6713
 7002TIP3   OH242420   6.699   1.342  13.108 -0.2423 -0.0678 -0.1546
 7002TIP3    H142421   6.651   1.293  13.041  0.9805 -1.6771  0.1016
 7002TIP3    H242422   6.754   1.276  13.151 -2.8994  0.3815  4.2172
 7003TIP3   OH242423   6.727   0.147  15.072 -0.0082 -0.2618 -0.3903
 7003TIP3    H142424   6.776   0.179  14.997 -1.4700  1.0790 -0.7999
 7003TIP3    H242425   6.683   0.224  15.107 -1.6585 -1.3724  0.0733
 7004TIP3   OH242426   5.674   3.122   2.310 -0.2649 -0.5406  0.3149
 7004TIP3    H142427   5.755   3.161   2.343 -0.4679  0.6872 -0.5960
 7004TIP3    H242428   5.702   3.045   2.260  0.3014 -0.3967  0.4097
 7005TIP3   OH242429   4.288   4.363  12.932  0.1410 -0.1873  0.3397
 7005TIP3    H142430   4.312   4.453  12.951 -0.4546 -0.2665  1.5011
 7005TIP3    H242431   4.224   4.340  13.000  0.1486 -1.4184 -0.0543
 7006TIP3   OH242432   3.010   2.197  13.642 -0.5622 -0.5172 -0.0708
 7006TIP3    H142433   3.063   2.128  13.683  0.9836 -0.5778 -2.1096
 7006TIP3    H242434   3.008   2.267  13.707  3.6418  0.2327 -0.6142
 7007TIP3   OH242435   1.002   6.035  15.745 -0.1837 -0.1310  0.1245
 7007TIP3    H142436   1.053   6.008  15.668 -0.6229  1.1362 -0.6243
 7007TIP3    H242437   1.068   6.049  15.813  0.0859 -2.8376  0.4891
 7008TIP3   OH242438   2.485   1.048  12.648 -0.2885  0.8644  0.0583
 7008TIP3    H142439   2.448   1.072  12.563 -0.0917  0.8485 -0.0318
 7008TIP3    H242440   2.456   1.117  12.707 -1.6257  0.1132  0.2943
 7009TIP3   OH242441   3.934   3.831  14.851 -0.4047  0.2053  0.3877
 7009TIP3    H142442   3.943   3.802  14.941  1.4956  1.6548  0.7012
 7009TIP3    H242443   4.012   3.798  14.807 -1.0013  0.0604 -0.5829
 7010TIP3   OH242444   1.795   3.405  15.450  0.4523 -0.6378  0.5008
 7010TIP3    H142445   1.777   3.410  15.356  0.6302  0.7847  0.5364
 7010TIP3    H242446   1.730   3.463  15.490  1.5400  0.1823  1.0934
 7011TIP3   OH242447   1.311   6.041   2.517  0.6513 -0.2079 -0.1387
 7011TIP3    H142448   1.298   6.062   2.609 -1.8625 -2.1476 -0.0020
 7011TIP3    H242449   1.387   5.982   2.516  1.6287  1.0186  0.4939
 7012TIP3   OH242450   5.277   3.369  13.939 -0.2419  0.1178 -0.2345
 7012TIP3    H142451   5.218   3.307  13.982  0.2701  0.2193  0.6074
 7012TIP3    H242452   5.271   3.448  13.992  1.3094 -0.1511  0.3484
 7013TIP3   OH242453   5.673   0.162  11.458 -0.0245  1.0688 -0.7326
 7013TIP3    H142454   5.599   0.165  11.518  0.6183 -0.8409  0.1982
 7013TIP3    H242455   5.648   0.219  11.385 -1.6702  1.7909  0.3792
 7014TIP3   OH242456   0.938   0.566  13.941  0.5009  0.5284  0.0149
 7014TIP3    H142457   0.956   0.598  13.853  1.4132  0.7552  0.2814
 7014TIP3    H242458   1.015   0.514  13.965 -1.1517 -2.3563 -0.6039
 7015TIP3   OH242459   0.144   1.716   4.111 -0.2964 -0.3972  0.6089
 7015TIP3    H142460   0.156   1.718   4.016  0.6261  0.1749  0.7353
 7015TIP3    H242461   0.143   1.622   4.132 -0.4851 -0.5302  0.0416
 7016TIP3   OH242462   6.078   0.776  10.570 -0.1573  0.8557  1.0032
 7016TIP3    H142463   6.124   0.701  10.532 -2.1979  0.7487 -1.3578
 7016TIP3    H242464   6.147   0.840  10.587  1.0499  0.2350 -1.3411
 7017TIP3   OH242465   3.286   2.343   1.137 -0.7276  0.1668 -0.5504
 7017TIP3    H142466   3.337   2.317   1.213  1.1547 -0.5925 -2.0402
 7017TIP3    H242467   3.234   2.266   1.115 -1.2947  0.3971 -0.0218
 7018TIP3   OH242468   3.150   6.230   3.182  0.0343 -0.1847 -0.0356
 7018TIP3    H142469   3.114   6.177   3.254  0.2698 -1.7659 -1.0622
 7018TIP3    H242470   3.114   6.190   3.103  1.1257  0.5028 -0.8852
 7019TIP3   OH242471   5.052   3.575   6.346  0.1531  0.2088 -0.0574
 7019TIP3    H142472   5.138   3.596   6.311 -0.2181  3.1905  0.7068
 7019TIP3    H242473   4.991   3.625   6.292 -0.9917 -0.6881  0.3776
 7020TIP3   OH242474   4.158   1.993  12.196 -0.7284  0.2265  0.2757
 7020TIP3    H142475   4.070   1.982  12.233 -1.0082 -1.1499 -0.7564
 7020TIP3    H242476   4.161   2.085  12.170 -2.3140  0.0107 -0.7471
 7021TIP3   OH242477   0.945   3.643   2.939  0.0042 -0.6769 -0.1313
 7021TIP3    H142478   1.006   3.717   2.934 -0.6358 -0.0552  0.8572
 7021TIP3    H242479   0.985   3.575   2.885  1.4779 -0.2233  0.3508
 7022TIP3   OH242480   1.382   5.481  15.469  0.5939  0.1272  0.0557
 7022TIP3    H142481   1.337   5.552  15.515  0.7923  1.4518 -1.7004
 7022TIP3    H242482   1.353   5.401  15.513 -1.1466  1.1604  0.8596
 7023TIP3   OH242483   5.017   3.974  12.647 -0.1516 -0.1163 -0.2445
 7023TIP3    H142484   4.992   3.908  12.582 -0.1938 -0.3541  0.0121
 7023TIP3    H242485   4.937   4.024  12.663 -0.7125 -1.4323  1.2251
 7024TIP3   OH242486   2.615   1.370   3.847  0.2471  0.1956 -0.8225
 7024TIP3    H142487   2.520   1.359   3.849  0.2921 -0.0860 -0.1111
 7024TIP3    H242488   2.647   1.307   3.911  0.9267  0.1503 -1.2116
 7025TIP3   OH242489   5.477   4.892   4.685 -0.2426  0.1936 -0.3056
 7025TIP3    H142490   5.426   4.853   4.614 -1.6925  1.1284  0.2095
 7025TIP3    H242491   5.568   4.885   4.655 -0.6667 -1.3139 -1.3148
 7026TIP3   OH242492   2.738   3.371  12.280 -0.1458  0.5974 -0.5420
 7026TIP3    H142493   2.816   3.397  12.328 -0.6021  1.5952 -0.3361
 7026TIP3    H242494   2.668   3.374  12.345 -0.5201  0.6107 -0.9482
 7027TIP3   OH242495   6.239   2.719  12.125 -0.1492  0.0072  0.3668
 7027TIP3    H142496   6.289   2.660  12.182  0.1828 -0.6039 -0.5404
 7027TIP3    H242497   6.221   2.796  12.179  0.6707 -0.3176  1.1122
 7028TIP3   OH242498   4.433   4.560   2.809 -0.8996 -0.1634  0.0662
 7028TIP3    H142499   4.368   4.628   2.790 -0.4956  0.0600 -0.5399
 7028TIP3    H242500   4.427   4.499   2.736  0.4868  0.5651 -0.6764
 7029TIP3   OH242501   2.224   5.147   0.855  0.1033 -0.3982  0.0435
 7029TIP3    H142502   2.178   5.066   0.833 -2.2565  0.3754  1.9527
 7029TIP3    H242503   2.266   5.130   0.939 -0.1570  0.2695  0.3152
 7030TIP3   OH242504   2.035   3.292   1.912 -0.9459 -0.3520 -0.3604
 7030TIP3    H142505   1.993   3.229   1.970 -0.9226 -0.2990 -0.2859
 7030TIP3    H242506   2.073   3.239   1.842  0.0807 -0.5279  0.3201
 7031TIP3   OH242507   2.610   0.214   0.193 -0.2695 -0.1165 -0.0400
 7031TIP3    H142508   2.642   0.126   0.209  1.3443  0.5385  0.3927
 7031TIP3    H242509   2.682   0.271   0.220 -2.2238  1.4290  2.1046
 7032TIP3   OH242510   5.200   0.371  13.056  0.5324  0.0121  0.7399
 7032TIP3    H142511   5.196   0.277  13.071  1.4430  0.0952  1.5731
 7032TIP3    H242512   5.177   0.382  12.964 -0.2592 -0.9609  0.8191
 7033TIP3   OH242513   2.628   5.411  16.588  0.1655 -0.0760 -0.1213
 7033TIP3    H142514   2.562   5.385  16.524 -0.4674 -0.9494  0.8653
 7033TIP3    H242515   2.579   5.459  16.655  0.8190  0.8210 -0.2697
 7034TIP3   OH242516   1.248   1.119  13.167 -0.3982  0.1411 -0.2722
 7034TIP3    H142517   1.201   1.064  13.104 -2.2659  1.0877  0.2777
 7034TIP3    H242518   1.246   1.207  13.129  2.5718 -0.1087 -1.1426
 7035TIP3   OH242519   5.303   0.827  11.579 -0.4279 -0.4063  0.4325
 7035TIP3    H142520   5.222   0.863  11.544 -0.3530  0.0126  0.6858
 7035TIP3    H242521   5.368   0.841  11.510 -0.2906  0.3784  0.7192
 7036TIP3   OH242522   2.023   3.182   4.592  0.1188  0.3599 -0.0918
 7036TIP3    H142523   1.934   3.215   4.608  0.3355  0.4333  1.0090
 7036TIP3    H242524   2.053   3.230   4.515 -1.5561 -1.1588 -1.7380
 7037TIP3   OH242525   3.568   3.020  13.558 -0.3221 -0.2635 -0.4116
 7037TIP3    H142526   3.508   3.087  13.525 -0.1224  0.7023  1.1305
 7037TIP3    H242527   3.651   3.038  13.515 -1.1211 -1.6752 -2.6443
 7038TIP3   OH242528   5.640   4.321   2.923  0.2844 -0.0945 -0.2877
 7038TIP3    H142529   5.656   4.254   2.857 -1.6717 -1.0171  0.1382
 7038TIP3    H242530   5.596   4.275   2.994  1.9314  0.9938  1.4749
 7039TIP3   OH242531   1.732   0.619   1.295  0.4951  0.5116  0.0127
 7039TIP3    H142532   1.785   0.544   1.319 -1.1128 -0.9913 -0.9868
 7039TIP3    H242533   1.647   0.582   1.272  0.4608  2.3323 -3.1138
 7040TIP3   OH242534   4.403   2.435   3.262  0.2106 -0.9933 -0.6772
 7040TIP3    H142535   4.463   2.508   3.280  0.0163 -0.6114 -1.5518
 7040TIP3    H242536   4.400   2.386   3.344 -0.4173  0.5309  0.2295
 7041TIP3   OH242537   2.327   1.137  16.470 -0.2316 -0.3179  1.2290
 7041TIP3    H142538   2.334   1.091  16.554 -0.7288 -1.6959  0.5300
 7041TIP3    H242539   2.246   1.104  16.431  0.1721  0.0676  0.0500
 7042TIP3   OH242540   2.842   6.409  15.245  0.0262 -0.3653 -0.1443
 7042TIP3    H142541   2.907   6.364  15.298 -0.8500 -0.0671  1.2067
 7042TIP3    H242542   2.847   6.501  15.271 -0.2678 -0.1735 -0.7268
 7043TIP3   OH242543   4.820   6.390  16.238 -0.5705 -0.4165 -0.3206
 7043TIP3    H142544   4.768   6.451  16.185 -0.8114 -1.7587 -1.6656
 7043TIP3    H242545   4.845   6.320  16.177 -0.8732 -2.0290  1.3588
 7044TIP3   OH242546   1.883   2.406   3.378  0.2089  0.0840 -0.3953
 7044TIP3    H142547   1.834   2.442   3.304 -1.5609 -0.7904  0.3194
 7044TIP3    H242548   1.838   2.324   3.399  1.0275  0.0491  1.3052
 7045TIP3   OH242549   6.392   6.467  15.183  0.2006 -0.2455 -0.1723
 7045TIP3    H142550   6.306   6.509  15.176  0.2340  0.1351  1.6064
 7045TIP3    H242551   6.447   6.531  15.228  1.4984 -0.3956 -1.4954
 7046TIP3   OH242552   1.270   6.734   5.808  0.2219  0.2742 -0.2461
 7046TIP3    H142553   1.314   6.710   5.890 -0.1015 -0.3170 -0.2465
 7046TIP3    H242554   1.316   6.813   5.780 -0.5320  1.2428  1.1848
 7047TIP3   OH242555   2.068   6.483   0.831  0.1375  0.2629  0.8025
 7047TIP3    H142556   2.160   6.460   0.813 -0.0810  0.3761 -0.5664
 7047TIP3    H242557   2.065   6.499   0.925  0.7870 -3.0343  1.4487
 7048TIP3   OH242558   5.032   1.287  16.134 -0.7392 -0.2457 -0.0030
 7048TIP3    H142559   5.056   1.195  16.139 -3.0659 -0.8461  0.4289
 7048TIP3    H242560   4.964   1.291  16.066 -1.5307  0.9532  0.8316
 7049TIP3   OH242561   5.904   5.256   2.962 -0.2224  0.6124 -0.1607
 7049TIP3    H142562   5.901   5.317   2.888  1.7645  1.1777  0.2043
 7049TIP3    H242563   5.975   5.289   3.017 -0.6098 -0.7529  1.1725
 7050TIP3   OH242564   5.094   0.401   2.709  0.6009  0.3158  0.0092
 7050TIP3    H142565   5.179   0.358   2.702 -0.5225 -1.8124 -1.0551
 7050TIP3    H242566   5.045   0.348   2.771 -0.4894  0.5970 -0.5976
 7051TIP3   OH242567   3.786   5.142   2.345  1.1237 -0.1088  0.2506
 7051TIP3    H142568   3.828   5.060   2.371  1.6311  0.6303  1.8503
 7051TIP3    H242569   3.701   5.141   2.389  2.0128  1.1841  2.0515
 7052TIP3   OH242570   5.318   1.974   5.279  0.2528  0.6674  0.3132
 7052TIP3    H142571   5.246   1.923   5.243 -0.2101  2.1932 -0.9792
 7052TIP3    H242572   5.300   1.980   5.373  0.1423 -1.2316  0.4332
 7053TIP3   OH242573   2.091   6.700   3.994 -0.1557 -0.3824 -0.3350
 7053TIP3    H142574   2.020   6.668   3.938  2.0345 -1.8523 -2.3652
 7053TIP3    H242575   2.121   6.623   4.042  0.2295  0.1859  0.3523
 7054TIP3   OH242576   1.527   2.012  11.942  0.2327 -0.5232  0.5114
 7054TIP3    H142577   1.476   1.932  11.953 -0.1049 -0.2411  1.0252
 7054TIP3    H242578   1.556   2.035  12.030  3.4427 -2.0838 -0.0994
 7055TIP3   OH242579   2.621   4.084  16.789  0.2998 -0.2094 -0.0093
 7055TIP3    H142580   2.593   4.174  16.802  0.2977  0.0753 -1.8255
 7055TIP3    H242581   2.579   4.035  16.860 -0.7206  1.0089  0.2412
 7056TIP3   OH242582   1.838   4.814  13.541 -0.0823 -0.4331  0.1305
 7056TIP3    H142583   1.924   4.850  13.517  0.3849 -0.4410  1.7322
 7056TIP3    H242584   1.796   4.884  13.590 -0.0185 -1.2949  1.4353
 7057TIP3   OH242585   0.197   5.763  12.773 -0.0980  0.0429 -0.0055
 7057TIP3    H142586   0.290   5.744  12.759 -0.3833 -0.7537 -0.8455
 7057TIP3    H242587   0.178   5.836  12.715 -0.1790 -0.2792 -0.3814
 7058TIP3   OH242588   6.481   2.336   0.148 -0.2561 -0.0811  0.2576
 7058TIP3    H142589   6.442   2.282   0.217 -0.3701  1.4040  1.3624
 7058TIP3    H242590   6.474   2.425   0.180  1.8550  0.4203 -0.6283
 7059TIP3   OH242591   2.279   6.257   2.501  0.1881 -0.3141 -0.4960
 7059TIP3    H142592   2.240   6.175   2.530  0.6863 -0.6920 -0.8688
 7059TIP3    H242593   2.332   6.232   2.425 -0.2305  0.4725 -1.0507
 7060TIP3   OH242594   2.238   4.754   4.315  0.0597 -0.3863  0.1691
 7060TIP3    H142595   2.327   4.718   4.318 -0.2721 -1.2185  0.3612
 7060TIP3    H242596   2.238   4.823   4.381  0.3628 -0.8778  0.6974
 7061TIP3   OH242597   4.121   1.208   4.236 -0.2833 -0.2474 -0.1968
 7061TIP3    H142598   4.190   1.198   4.302  0.6116  0.6957 -0.9669
 7061TIP3    H242599   4.111   1.303   4.226 -1.2861 -0.3801 -0.5163
 7062TIP3   OH242600   0.863   5.742  11.844  0.2856  0.4817 -0.1283
 7062TIP3    H142601   0.775   5.769  11.817 -0.0929  0.6510  1.2484
 7062TIP3    H242602   0.849   5.682  11.917  1.3241  0.8892  0.4274
 7063TIP3   OH242603   6.005   0.807   0.047  0.2168  0.5791  0.4918
 7063TIP3    H142604   5.991   0.712   0.043  1.6075  0.3588  0.7996
 7063TIP3    H242605   6.041   0.829  -0.039 -0.6739  0.9452  0.1953
 7064TIP3   OH242606   0.172   2.889   4.172  0.0864  0.4599 -0.3376
 7064TIP3    H142607   0.131   2.890   4.259  0.3258 -0.5096 -0.2077
 7064TIP3    H242608   0.188   2.796   4.154  3.9524  0.9056  0.4341
 7065TIP3   OH242609   3.854   0.092  14.587 -0.4014 -0.7602 -0.1455
 7065TIP3    H142610   3.762   0.095  14.562 -1.2456 -2.0424  2.5691
 7065TIP3    H242611   3.875  -0.001  14.589  0.2029 -0.6042  1.7229
 7066TIP3   OH242612   0.091   4.829   5.791 -0.2529  0.6658  0.6242
 7066TIP3    H142613   0.051   4.913   5.770 -0.0240  0.0603 -2.3934
 7066TIP3    H242614   0.185   4.847   5.793 -0.1329  0.2764 -1.1000
 7067TIP3   OH242615   4.667   2.492  13.382 -0.4550 -0.8430 -0.1811
 7067TIP3    H142616   4.759   2.471  13.366 -0.3513  0.4012 -1.3148
 7067TIP3    H242617   4.643   2.439  13.458  1.3213 -0.8346  0.4102
 7068TIP3   OH242618   1.383   0.931   5.938  0.4025 -0.7893  0.3469
 7068TIP3    H142619   1.292   0.948   5.963  0.1940 -0.9132 -0.3234
 7068TIP3    H242620   1.396   0.985   5.860  0.4997 -1.7847 -0.3356
 7069TIP3   OH242621   5.466   2.335  12.970  0.3377  0.3586 -0.4342
 7069TIP3    H142622   5.485   2.243  12.954 -0.0467  0.0788  0.6702
 7069TIP3    H242623   5.545   2.381  12.942  0.2864 -0.2359 -1.5956
 7070TIP3   OH242624   0.090   0.098  11.309  0.2968  0.4655 -0.3841
 7070TIP3    H142625   0.043   0.140  11.237  0.9320 -0.9656 -1.6455
 7070TIP3    H242626   0.080   0.005  11.293  1.0564  0.1376  0.9998
 7071TIP3   OH242627   4.805   2.297   2.886 -0.2568 -0.3725 -0.1892
 7071TIP3    H142628   4.750   2.357   2.936  0.7683  0.5564 -0.1435
 7071TIP3    H242629   4.875   2.273   2.947  0.7610  0.4243 -1.0287
 7072TIP3   OH242630   4.766   4.047  12.598 -0.7559  0.2755 -0.2760
 7072TIP3    H142631   4.783   4.082  12.510 -0.5028  1.7773  0.3468
 7072TIP3    H242632   4.727   4.120  12.645 -2.9610 -1.1992  0.2303
 7073TIP3   OH242633   1.733   0.852  12.235  0.0743  0.6690  0.4861
 7073TIP3    H142634   1.817   0.894  12.213  0.3701  0.1183  0.5501
 7073TIP3    H242635   1.750   0.809  12.319 -0.5497  1.3334  0.9643
 7074TIP3   OH242636   1.204   2.886   4.899  0.4279  0.3978 -0.1173
 7074TIP3    H142637   1.213   2.869   4.805 -0.9194  0.1230 -0.1998
 7074TIP3    H242638   1.115   2.860   4.920  0.4627  1.2044  1.0878
 7075TIP3   OH242639   3.790   6.005  17.133 -0.0391  0.1433  0.1323
 7075TIP3    H142640   3.722   6.058  17.173 -1.0972  0.1339 -1.6330
 7075TIP3    H242641   3.788   5.922  17.181 -1.0300  0.2685  0.3035
 7076TIP3   OH242642   0.336   6.122  11.201 -0.0585 -0.2739 -0.0194
 7076TIP3    H142643   0.293   6.185  11.144 -1.8587  0.5231  2.1435
 7076TIP3    H242644   0.341   6.165  11.286  1.2309 -1.9852  0.8167
 7077TIP3   OH242645   5.686   4.334   0.606  0.3935  0.4994 -0.3915
 7077TIP3    H142646   5.704   4.264   0.542 -2.1416 -0.3108 -0.2659
 7077TIP3    H242647   5.724   4.412   0.567 -0.7015 -0.0763 -2.7109
 7078TIP3   OH242648   5.193   4.007  16.256  0.4276  0.1430 -0.0598
 7078TIP3    H142649   5.182   3.915  16.280 -0.0471 -0.2455 -1.6963
 7078TIP3    H242650   5.115   4.050  16.292  0.6880 -0.0654  0.7793
 7079TIP3   OH242651   3.935   1.239   3.288  0.2532 -0.0402  0.2882
 7079TIP3    H142652   3.871   1.181   3.246  0.4413 -0.0012 -0.0544
 7079TIP3    H242653   4.015   1.226   3.238  0.0408  1.2525 -0.4109
 7080TIP3   OH242654   1.321   1.393   0.789  0.1714  0.5477 -0.3241
 7080TIP3    H142655   1.303   1.364   0.878 -1.4385 -0.6546 -1.0233
 7080TIP3    H242656   1.318   1.314   0.736 -1.5908  1.5917 -1.8484
 7081TIP3   OH242657   2.733   1.850   4.482 -0.1542  0.6982  0.0156
 7081TIP3    H142658   2.797   1.779   4.491 -0.6026  0.2375 -0.3952
 7081TIP3    H242659   2.746   1.904   4.559 -1.2849 -1.0185  1.4593
 7082TIP3   OH242660   4.568   0.318  11.707 -0.0709 -0.2470  0.0645
 7082TIP3    H142661   4.493   0.370  11.735 -1.5759 -1.3371 -1.7621
 7082TIP3    H242662   4.580   0.342  11.615  0.9947 -1.0436 -0.0114
 7083TIP3   OH242663   3.666   4.453   4.418  1.0015 -0.4796 -0.2004
 7083TIP3    H142664   3.735   4.453   4.485 -0.6486 -2.6994  1.5913
 7083TIP3    H242665   3.699   4.395   4.350  1.4129 -0.6073  0.1000
 7084TIP3   OH242666   4.686   2.384   3.353  0.5412 -0.4914 -0.1940
 7084TIP3    H142667   4.752   2.361   3.287 -0.0155 -0.6435 -0.6980
 7084TIP3    H242668   4.691   2.479   3.359  0.4100 -0.4550 -0.6486
 7085TIP3   OH242669   2.993   4.011   2.678 -0.3191  0.3434 -0.1152
 7085TIP3    H142670   3.080   4.027   2.713  0.0174  0.1990 -0.8804
 7085TIP3    H242671   2.999   4.034   2.585 -1.4112  1.4517  0.0842
 7086TIP3   OH242672   1.017   2.124   6.456 -0.1586  0.2722 -0.0311
 7086TIP3    H142673   1.105   2.108   6.420  0.5589  0.3269  1.6694
 7086TIP3    H242674   1.009   2.220   6.456  0.4730  0.3399  1.3973
 7087TIP3   OH242675   1.971   3.494  11.636  0.1266  0.0745 -0.1721
 7087TIP3    H142676   1.915   3.479  11.713  0.6324  0.7024  0.3239
 7087TIP3    H242677   2.044   3.545  11.670 -0.4223  1.7064 -1.3841
 7088TIP3   OH242678   2.278   1.745   6.672  0.0644  0.0708  0.5243
 7088TIP3    H142679   2.241   1.744   6.584 -0.7149  1.1535  0.8262
 7088TIP3    H242680   2.286   1.652   6.696 -0.4473 -0.2103 -0.3786
 7089TIP3   OH242681   2.191   4.101   6.627  0.6938 -0.0013  0.1597
 7089TIP3    H142682   2.203   4.195   6.638 -0.8058  0.3039 -0.5642
 7089TIP3    H242683   2.264   4.061   6.673  2.0991  1.5607 -0.6773
 7090TIP3   OH242684   1.169   0.349   5.983 -0.1655 -0.5114 -0.7831
 7090TIP3    H142685   1.191   0.310   5.898  0.5031 -0.8115 -0.4742
 7090TIP3    H242686   1.088   0.397   5.967 -0.4811 -1.2351 -1.3996
 7091TIP3   OH242687   1.710   4.720   0.454  0.1476  0.0740  0.0730
 7091TIP3    H142688   1.741   4.629   0.463  2.1133  0.5847 -1.1693
 7091TIP3    H242689   1.723   4.740   0.361  0.6345  1.9301  0.5229
 7092TIP3   OH242690   5.701   1.903  16.836 -1.0313 -0.4633 -0.6777
 7092TIP3    H142691   5.689   1.998  16.842  1.6236 -0.3204  3.8759
 7092TIP3    H242692   5.781   1.892  16.785 -1.5990 -0.3651 -1.6268
 7093TIP3   OH242693   1.455   3.509  13.678  0.0135  0.5605  0.0345
 7093TIP3    H142694   1.420   3.506  13.768  0.1643  1.3168  0.1210
 7093TIP3    H242695   1.548   3.488  13.687 -0.2812 -0.8787 -0.1285
 7094TIP3   OH242696   1.364   3.310  13.468  0.0745 -0.3201 -0.3450
 7094TIP3    H142697   1.404   3.252  13.403  0.5019  0.8400 -1.1192
 7094TIP3    H242698   1.408   3.287  13.550  1.7169  0.3189 -1.0288
 7095TIP3   OH242699   4.999   5.992   1.643  0.2296 -0.7238 -0.4752
 7095TIP3    H142700   5.016   5.900   1.659  0.0422 -0.7136 -0.2120
 7095TIP3    H242701   5.033   6.037   1.720 -1.7983 -0.7824  0.4848
 7096TIP3   OH242702   3.686   2.547   1.258  0.0104 -0.6252  0.3079
 7096TIP3    H142703   3.674   2.455   1.232  1.1522 -0.9482  0.9120
 7096TIP3    H242704   3.704   2.543   1.351 -2.3893  0.4248  0.8602
 7097TIP3   OH242705   6.150   3.982   0.973  0.0331  0.1176  0.1143
 7097TIP3    H142706   6.198   3.934   1.040  0.0233  2.3881  1.8124
 7097TIP3    H242707   6.061   3.945   0.975  0.4907 -1.0031  0.1097
 7098TIP3   OH242708   5.065   2.289   0.438 -0.3904  0.2857  0.4970
 7098TIP3    H142709   5.078   2.362   0.378 -1.4233  0.9156  1.0275
 7098TIP3    H242710   4.976   2.258   0.419  1.0729 -2.8359 -1.8943
 7099TIP3   OH242711   6.560   6.321  16.589 -0.1219 -0.0625  0.1249
 7099TIP3    H142712   6.619   6.395  16.603 -1.4677  1.8811 -3.5128
 7099TIP3    H242713   6.490   6.334  16.653 -0.4999  2.0735 -0.6532
 7100TIP3   OH242714   4.011   5.323  14.795 -0.2200  0.3486 -0.4088
 7100TIP3    H142715   4.073   5.384  14.754 -0.6228  0.0923 -1.4252
 7100TIP3    H242716   3.929   5.336  14.747 -0.4835 -0.5375 -0.2091
 7101TIP3   OH242717   6.126   2.551  15.582 -0.2249  0.0007 -0.0331
 7101TIP3    H142718   6.045   2.510  15.613 -0.0894 -0.8515 -0.7710
 7101TIP3    H242719   6.130   2.527  15.489  0.3230  0.9451 -0.2558
 7102TIP3   OH242720   3.506   4.101   1.343  0.1111 -0.4640 -0.3958
 7102TIP3    H142721   3.585   4.076   1.296  0.2186 -0.1764 -0.3668
 7102TIP3    H242722   3.535   4.167   1.406  0.0491 -1.1572  0.3704
 7103TIP3   OH242723   3.081   5.248  14.943  0.8979 -0.6258  0.1769
 7103TIP3    H142724   3.151   5.219  15.000  1.3803 -1.4390 -0.8181
 7103TIP3    H242725   3.115   5.327  14.901  1.8000 -1.8201 -1.3912
 7104TIP3   OH242726   2.308   5.074   5.538 -0.2632 -0.4099 -0.3263
 7104TIP3    H142727   2.308   4.991   5.490 -1.2780  0.8275 -2.5174
 7104TIP3    H242728   2.385   5.121   5.505 -0.7829  0.3111 -0.5316
 7105TIP3   OH242729   2.831   6.591   5.901  0.2235  0.4638  0.0889
 7105TIP3    H142730   2.841   6.684   5.878 -1.4004  0.5207 -0.3906
 7105TIP3    H242731   2.760   6.560   5.845  1.2476 -1.2647 -0.2820
 7106TIP3   OH242732   2.396   1.462  12.711  0.2701 -0.3017 -1.0189
 7106TIP3    H142733   2.445   1.418  12.780  1.5758 -0.9965 -2.3684
 7106TIP3    H242734   2.323   1.402  12.692  0.6806 -0.7578 -1.1780
 7107TIP3   OH242735   1.284   5.059  11.376  0.4684  0.2071  0.5595
 7107TIP3    H142736   1.207   5.042  11.322 -0.4351 -2.3025  2.4888
 7107TIP3    H242737   1.358   5.055  11.315 -0.5850 -1.6759 -0.6534
 7108TIP3   OH242738   1.091   6.618  10.450 -0.5827 -0.3476  0.0926
 7108TIP3    H142739   1.174   6.633  10.404 -1.8370  1.6101 -1.6322
 7108TIP3    H242740   1.094   6.676  10.525 -0.9697  0.7969 -0.7606
 7109TIP3   OH242741   5.736   3.940   1.088  0.5848  0.8809  0.4270
 7109TIP3    H142742   5.805   3.876   1.108  0.5188  0.6328 -0.1365
 7109TIP3    H242743   5.751   3.962   0.996 -0.0701  0.8475  0.3150
 7110TIP3   OH242744   4.219   3.187  12.662 -0.0548 -0.2173 -0.2031
 7110TIP3    H142745   4.277   3.184  12.585  1.2953  1.2997  0.7163
 7110TIP3    H242746   4.171   3.105  12.659  0.4949 -0.4962 -2.2807
 7111TIP3   OH242747   1.874   5.890   4.033 -0.6244  0.4979  0.1077
 7111TIP3    H142748   1.889   5.965   3.975 -0.3354  1.6325  1.6098
 7111TIP3    H242749   1.846   5.820   3.974 -0.9157  1.7821 -1.3405
 7112TIP3   OH242750   6.029   4.453   2.151 -0.2765 -0.4072 -0.3191
 7112TIP3    H142751   5.942   4.421   2.128  0.0300 -0.4109 -1.5061
 7112TIP3    H242752   6.058   4.397   2.224 -1.6268  0.1834  0.6886
 7113TIP3   OH242753   5.557   1.390  13.325  0.0335  0.2610  0.7643
 7113TIP3    H142754   5.490   1.331  13.357  0.8814 -0.4147  1.3198
 7113TIP3    H242755   5.602   1.341  13.256  0.0904  0.6301  0.5365
 7114TIP3   OH242756   5.551   5.080  12.931 -0.0145 -0.8243 -0.7537
 7114TIP3    H142757   5.612   5.135  12.980 -0.7497 -0.6117 -0.0634
 7114TIP3    H242758   5.578   5.090  12.840 -1.0391  1.8610 -0.8171
 7115TIP3   OH242759   1.887   5.168   3.286  0.1469  0.7311  0.0815
 7115TIP3    H142760   1.954   5.217   3.333 -1.0224  0.7664  1.7310
 7115TIP3    H242761   1.825   5.140   3.353 -0.8273 -0.4015 -1.2448
 7116TIP3   OH242762   0.164   1.533  16.300  0.2058 -0.1512 -0.3871
 7116TIP3    H142763   0.166   1.515  16.394  0.5805  0.6093 -0.2497
 7116TIP3    H242764   0.088   1.591  16.288 -0.3576 -0.9355 -0.6825
 7117TIP3   OH242765   1.569   0.002   3.831 -0.9767  0.1400 -0.2179
 7117TIP3    H142766   1.604   0.087   3.857 -2.0143  0.3420  0.5323
 7117TIP3    H242767   1.520   0.020   3.751 -1.0800  0.2233 -0.1358
 7118TIP3   OH242768   6.236   6.548   3.408 -0.2514  0.2537 -0.2293
 7118TIP3    H142769   6.268   6.485   3.472  0.5829 -1.4933 -2.3041
 7118TIP3    H242770   6.304   6.616   3.405 -0.4676  0.5251  0.9711
 7119TIP3   OH242771   4.177   5.263  10.765 -0.2949 -0.2378  0.1169
 7119TIP3    H142772   4.157   5.353  10.792  0.2667  0.3121 -1.2760
 7119TIP3    H242773   4.107   5.240  10.704 -0.0099 -0.4597 -0.1275
 7120TIP3   OH242774   4.506   4.040  16.981  0.7713  0.5717  0.0659
 7120TIP3    H142775   4.595   4.067  17.004  1.1254 -1.1930  0.7937
 7120TIP3    H242776   4.517   3.983  16.906  0.1794  0.9192 -0.2886
 7121TIP3   OH242777   1.381   4.277  14.953  0.1521 -0.3358 -0.2085
 7121TIP3    H142778   1.416   4.365  14.939 -1.3225  0.4987  1.0182
 7121TIP3    H242779   1.452   4.229  14.997  0.3131  0.8458  0.8599
 7122TIP3   OH242780   1.519   6.246   0.769 -0.6835  0.4042  0.2268
 7122TIP3    H142781   1.460   6.185   0.726  0.0236  0.0668 -0.2776
 7122TIP3    H242782   1.470   6.277   0.845 -1.6504  0.4256 -0.3950
 7123TIP3   OH242783   6.301   4.963  13.017 -0.4061 -0.0544 -0.3529
 7123TIP3    H142784   6.282   4.966  13.110 -0.2823 -0.5738 -0.3082
 7123TIP3    H242785   6.352   4.883  13.006  1.8390  1.3594 -0.4504
 7124TIP3   OH242786   3.410   5.919   5.391  0.3567  0.5457  0.1368
 7124TIP3    H142787   3.340   5.982   5.373 -1.0064 -0.2839  2.4395
 7124TIP3    H242788   3.436   5.938   5.481  2.0423 -0.1988 -0.1824
 7125TIP3   OH242789   2.820   3.067   2.518 -0.2694 -0.0905  0.2264
 7125TIP3    H142790   2.884   3.031   2.457 -0.1342 -0.5168  0.6157
 7125TIP3    H242791   2.753   2.999   2.526  1.3460 -1.4527  3.0482
 7126TIP3   OH242792   0.012   6.029  13.416  0.3188 -0.3904 -0.2082
 7126TIP3    H142793   0.007   5.946  13.370  0.0958  0.0057 -0.9034
 7126TIP3    H242794   0.021   6.005  13.509 -3.2355 -1.1827 -0.0187
 7127TIP3   OH242795   2.503   2.733  16.897  0.9976  0.7158 -0.0931
 7127TIP3    H142796   2.465   2.661  16.846  0.6958  1.5762 -1.0987
 7127TIP3    H242797   2.476   2.715  16.987 -0.2430  0.3240 -0.5318
 7128TIP3   OH242798   0.868   5.096  15.943 -0.0519 -0.8053  0.5504
 7128TIP3    H142799   0.841   5.167  16.002 -0.7695 -1.6594  1.2690
 7128TIP3    H242800   0.797   5.032  15.949  0.1080 -1.1280 -0.8764
 7129TIP3   OH242801   6.356   0.170  16.941  0.1685 -1.0026  0.1441
 7129TIP3    H142802   6.429   0.143  16.886  0.6834 -1.5241  1.0844
 7129TIP3    H242803   6.312   0.089  16.965  0.8938 -0.9235  1.8136
 7130TIP3   OH242804   5.202   6.100  16.744 -0.0816  0.2143  0.4277
 7130TIP3    H142805   5.229   6.008  16.742 -0.7722  0.0178  0.2056
 7130TIP3    H242806   5.134   6.107  16.677  0.2436  0.9782  0.1624
 7131TIP3   OH242807   3.886   4.119   3.195  0.0174  0.2737 -0.2331
 7131TIP3    H142808   3.948   4.085   3.131 -0.5549  0.4295 -0.8782
 7131TIP3    H242809   3.903   4.068   3.274 -1.2099 -1.9361 -1.3459
 7132TIP3   OH242810   5.774   2.124  11.126  0.5638  0.4809 -0.0785
 7132TIP3    H142811   5.712   2.155  11.192  1.1465 -1.0004  1.2098
 7132TIP3    H242812   5.825   2.201  11.102  0.5875  0.9790  1.4870
 7133TIP3   OH242813   4.853   5.357   1.078  0.8093 -0.1055 -0.8015
 7133TIP3    H142814   4.919   5.336   1.012  0.8974 -0.2773 -0.6591
 7133TIP3    H242815   4.811   5.437   1.046 -0.7208 -1.4547 -2.2183
 7134TIP3   OH242816   0.565   1.977  12.760  0.4315 -0.2156 -0.2122
 7134TIP3    H142817   0.508   1.943  12.828  3.8614 -3.6315  1.1070
 7134TIP3    H242818   0.634   2.025  12.807  1.9955 -1.3152 -1.3101
 7135TIP3   OH242819   5.709   2.430  10.807 -0.1244 -0.4666 -0.2755
 7135TIP3    H142820   5.625   2.453  10.767  0.2281 -0.8601 -1.2683
 7135TIP3    H242821   5.692   2.347  10.853 -0.2129 -0.6965 -0.7196
 7136TIP3   OH242822   5.324   2.731  14.312  0.3774 -0.9334 -0.4499
 7136TIP3    H142823   5.314   2.636  14.301  1.3325 -0.9676 -1.1489
 7136TIP3    H242824   5.418   2.746  14.301  0.6460 -0.2520  2.3542
 7137TIP3   OH242825   5.320   6.099  11.194  0.2743 -0.0405  0.2680
 7137TIP3    H142826   5.259   6.100  11.120  0.1792 -0.2808  0.3398
 7137TIP3    H242827   5.300   6.017  11.239 -0.5495  0.7090  1.2968
 7138TIP3   OH242828   1.674   5.884   6.448  0.4921  0.1665 -0.1782
 7138TIP3    H142829   1.722   5.950   6.398  0.9916 -0.5897 -0.7058
 7138TIP3    H242830   1.724   5.874   6.529  1.3838 -0.8166 -0.8445
 7139TIP3   OH242831   1.608   5.868   1.019 -0.8008 -0.3189  0.2691
 7139TIP3    H142832   1.544   5.912   1.075  1.3498  1.3336  1.5068
 7139TIP3    H242833   1.601   5.775   1.043 -2.1497 -0.0502  0.9704
 7140TIP3   OH242834   0.960   4.158  16.474 -0.3027 -0.6766  0.1860
 7140TIP3    H142835   0.986   4.238  16.521 -0.3630  0.0134 -0.9316
 7140TIP3    H242836   0.868   4.171  16.453  0.2361 -0.0319 -1.9380
 7141TIP3   OH242837   3.083   4.719  11.884  0.2019 -0.3903  0.0846
 7141TIP3    H142838   3.124   4.744  11.966 -0.1860 -0.2555  0.2375
 7141TIP3    H242839   3.049   4.800  11.847 -2.4167 -0.8458  1.3266
 7142TIP3   OH242840   0.094   3.995  14.384 -0.0758 -0.4272 -0.2815
 7142TIP3    H142841   0.116   3.946  14.304  0.4873  1.1663 -1.1342
 7142TIP3    H242842   0.008   4.033  14.366  0.1954  0.2037 -0.2892
 7143TIP3   OH242843   5.537   3.750   5.346  0.4246  0.1327  0.0855
 7143TIP3    H142844   5.579   3.686   5.402  0.4039 -2.4572 -2.6892
 7143TIP3    H242845   5.443   3.731   5.353  0.2938  0.9311  0.5116
 7144TIP3   OH242846   0.587   2.415   5.574  0.3375 -0.1578 -0.5064
 7144TIP3    H142847   0.639   2.391   5.651 -1.0758  1.5552  1.0389
 7144TIP3    H242848   0.512   2.355   5.576 -0.5051  0.9037  0.3730
 7145TIP3   OH242849   6.210   4.303   4.445  0.1802 -0.4639 -0.2157
 7145TIP3    H142850   6.228   4.386   4.488 -4.2729  0.6665 -0.2245
 7145TIP3    H242851   6.262   4.239   4.493  1.3147  1.8823  1.8063
 7146TIP3   OH242852   0.372   2.095   2.658  0.5153 -0.2102  0.5032
 7146TIP3    H142853   0.377   2.190   2.663 -1.3039 -0.1161  0.7398
 7146TIP3    H242854   0.463   2.067   2.648  0.8639  1.7045 -2.3905
 7147TIP3   OH242855   5.323   6.225   4.559 -0.3012  0.3159  0.2874
 7147TIP3    H142856   5.355   6.256   4.474 -2.3497 -0.3930 -0.7820
 7147TIP3    H242857   5.375   6.274   4.623  1.4412  0.7015 -1.3531
 7148TIP3   OH242858   1.860   4.138   1.514 -0.4603 -0.4441 -0.1574
 7148TIP3    H142859   1.864   4.054   1.560  1.5810 -0.0765  0.3872
 7148TIP3    H242860   1.818   4.197   1.576 -0.8841 -0.7838 -0.1161
 7149TIP3   OH242861   3.689   4.468  15.291  0.6360 -0.3559 -0.1672
 7149TIP3    H142862   3.767   4.428  15.329  1.3290  0.7920 -0.3555
 7149TIP3    H242863   3.666   4.410  15.218  0.4902 -1.4508  0.7348
 7150TIP3   OH242864   2.088   6.254  11.547 -0.1986 -0.6356 -0.1552
 7150TIP3    H142865   2.069   6.348  11.548 -1.2191 -0.8268 -0.4637
 7150TIP3    H242866   2.086   6.231  11.454  0.7376 -0.8316 -0.1283
 7151TIP3   OH242867   0.520   0.888   4.574 -0.8431 -0.4870 -0.0442
 7151TIP3    H142868   0.466   0.896   4.653 -1.2617 -0.6687 -0.3083
 7151TIP3    H242869   0.571   0.808   4.588  0.8461  0.7708  1.0980
 7152TIP3   OH242870   0.564   6.648   4.219 -1.4073 -0.4313  0.0308
 7152TIP3    H142871   0.658   6.661   4.217 -1.1602 -1.8331  1.7315
 7152TIP3    H242872   0.527   6.736   4.215 -0.0603  0.0875 -1.4025
 7153TIP3   OH242873   1.677   2.923  15.522  0.4760 -0.5673  0.2122
 7153TIP3    H142874   1.692   3.013  15.494 -0.4223 -0.2179  0.8230
 7153TIP3    H242875   1.705   2.922  15.614  0.6940 -0.9735  0.1444
 7154TIP3   OH242876   2.368   4.388   4.184  0.1646 -0.2161 -0.7657
 7154TIP3    H142877   2.346   4.449   4.114 -1.0059  2.0967  1.5516
 7154TIP3    H242878   2.392   4.443   4.258 -1.3344 -2.5145  1.5373
 7155TIP3   OH242879   3.140   4.940  13.227  0.0810 -0.3541  0.1610
 7155TIP3    H142880   3.116   4.896  13.309 -0.8619 -1.0530 -0.4818
 7155TIP3    H242881   3.103   5.028  13.235 -0.1185 -0.4628  0.4421
 7156TIP3   OH242882   4.463   3.797   1.696 -0.0728 -0.4094 -0.2105
 7156TIP3    H142883   4.394   3.818   1.759 -0.8162  2.5490 -1.9266
 7156TIP3    H242884   4.422   3.736   1.635 -0.9619  0.7119 -0.7545
 7157TIP3   OH242885   4.164   5.041   5.774 -0.2138  0.3426 -0.2531
 7157TIP3    H142886   4.094   5.075   5.830  0.8295  0.3575  1.0574
 7157TIP3    H242887   4.153   4.946   5.777 -1.5563  0.4390 -1.8615
 7158TIP3   OH242888   0.806   1.666   3.492 -0.2407  0.5020 -0.3304
 7158TIP3    H142889   0.738   1.610   3.529  0.2504 -0.7709 -1.3555
 7158TIP3    H242890   0.798   1.748   3.542 -2.0381  0.1216  0.0429
 7159TIP3   OH242891   6.380   0.489  14.169  0.3238  0.3034  0.2070
 7159TIP3    H142892   6.405   0.577  14.195 -0.3914  0.6386 -0.2062
 7159TIP3    H242893   6.307   0.502  14.108  0.0995 -0.5810  0.2772
 7160TIP3   OH242894   2.384   2.631   0.375 -0.0800 -1.0108  0.0720
 7160TIP3    H142895   2.394   2.542   0.409 -2.0189 -1.2205  0.1307
 7160TIP3    H242896   2.299   2.660   0.408 -0.3977  0.0925 -1.6675
 7161TIP3   OH242897   1.940   3.761  15.579  0.2111 -0.2266  0.1649
 7161TIP3    H142898   1.974   3.827  15.518 -0.6046 -1.2587 -1.4280
 7161TIP3    H242899   2.013   3.699  15.590  0.2175 -0.2590 -0.0647
 7162TIP3   OH242900   5.301   5.569  15.839  0.0450 -0.8470  0.4924
 7162TIP3    H142901   5.373   5.526  15.885  0.4090  0.0951  0.8136
 7162TIP3    H242902   5.309   5.661  15.863 -0.9645 -0.6595  0.1225
 7163TIP3   OH242903   1.380   2.947   2.485 -0.2189 -0.4546  0.2749
 7163TIP3    H142904   1.302   2.891   2.479  1.2641 -2.5635  0.4288
 7163TIP3    H242905   1.392   2.981   2.396 -1.4685  0.1046  0.3109
 7164TIP3   OH242906   0.440   6.726  16.962  0.4010  0.0380  0.4495
 7164TIP3    H142907   0.456   6.684  16.877  0.2280 -0.1345  0.5012
 7164TIP3    H242908   0.346   6.741  16.964  0.6565  1.7551 -0.1748
 7165TIP3   OH242909   3.268   1.525  13.362  0.5995 -0.9503 -0.0733
 7165TIP3    H142910   3.251   1.612  13.397 -1.3293 -0.8153 -1.2893
 7165TIP3    H242911   3.326   1.539  13.288  1.6802 -0.8821  0.7741
 7166TIP3   OH242912   6.471   3.062   4.686 -0.0545  0.1260 -0.0488
 7166TIP3    H142913   6.563   3.080   4.666 -0.4073  1.2618 -0.6461
 7166TIP3    H242914   6.467   2.966   4.695  0.9586 -0.0254 -1.1280
 7167TIP3   OH242915   5.896   2.797  14.616 -0.0927 -0.1682  0.0560
 7167TIP3    H142916   5.889   2.838  14.529  2.1531  0.6806  0.2329
 7167TIP3    H242917   5.850   2.857  14.675  0.1957  0.3380 -0.2286
 7168TIP3   OH242918   3.444   1.364   2.668  0.0994 -0.5111  0.5161
 7168TIP3    H142919   3.423   1.450   2.707  0.6051  0.2518 -0.8612
 7168TIP3    H242920   3.359   1.329   2.643 -0.2048 -0.8636  1.9830
 7169TIP3   OH242921   4.147   1.276  16.862 -0.2896  0.0419  0.3670
 7169TIP3    H142922   4.076   1.212  16.860 -1.4649  1.3260  0.5483
 7169TIP3    H242923   4.221   1.231  16.821 -1.2656 -1.2251 -0.0213
 7170TIP3   OH242924   3.277   0.931   0.021  0.3289 -0.0105  0.1794
 7170TIP3    H142925   3.291   0.837   0.021  0.4921  0.0133  0.4207
 7170TIP3    H242926   3.308   0.960   0.107  0.2026  0.2510  0.1380
 7171TIP3   OH242927   2.091   3.615   4.298 -0.2082  0.2116 -0.0182
 7171TIP3    H142928   2.170   3.563   4.279 -0.4692 -0.2208  0.0711
 7171TIP3    H242929   2.125   3.697   4.334  0.2963  1.0585 -2.3055
 7172TIP3   OH242930   5.792   2.550   6.225  0.3803 -0.3924  0.0338
 7172TIP3    H142931   5.858   2.570   6.158  0.4231  0.1756  0.2416
 7172TIP3    H242932   5.737   2.483   6.185  3.0657 -3.3383  1.1035
 7173TIP3   OH242933   6.754   3.418  14.564 -0.3700 -0.2504 -0.5301
 7173TIP3    H142934   6.754   3.428  14.469 -1.9307 -1.9337 -0.7266
 7173TIP3    H242935   6.662   3.415  14.589 -0.0278  2.5025  1.3382
 7174TIP3   OH242936   3.032   1.263   1.626  0.4229  0.1974  0.4411
 7174TIP3    H142937   3.045   1.303   1.712 -1.0125 -0.6608  1.0584
 7174TIP3    H242938   2.975   1.188   1.642  0.9168 -0.5338 -1.1165
 7175TIP3   OH242939   1.360   1.587   0.610 -0.7564 -0.2941 -0.2445
 7175TIP3    H142940   1.323   1.534   0.681 -0.2815 -2.0944 -1.3184
 7175TIP3    H242941   1.372   1.674   0.649 -0.7100 -1.1996  1.8157
 7176TIP3   OH242942   6.206   5.659   4.440  0.0576  0.3585  0.2668
 7176TIP3    H142943   6.132   5.600   4.458  0.6881 -0.1717  1.1657
 7176TIP3    H242944   6.253   5.617   4.369 -1.9878  2.0494 -2.1803
 7177TIP3   OH242945   6.035   4.541   5.030  0.3483 -0.0241 -0.1189
 7177TIP3    H142946   6.119   4.527   4.988 -0.6019 -0.7528 -1.8373
 7177TIP3    H242947   6.006   4.454   5.055  0.4269  0.2990  1.1177
 7178TIP3   OH242948   2.362   0.363  14.867  0.5212  0.0135 -0.0818
 7178TIP3    H142949   2.379   0.392  14.957 -2.1792 -0.3485  0.5933
 7178TIP3    H242950   2.279   0.404  14.843  1.2437  0.1703 -2.4689
 7179TIP3   OH242951   4.059   0.070   2.536 -0.2080  0.1100 -0.1484
 7179TIP3    H142952   4.132   0.011   2.517 -0.2419 -0.0266  0.1287
 7179TIP3    H242953   4.020   0.089   2.451 -1.5547 -2.0288 -0.0385
 7180TIP3   OH242954   6.060   2.211   1.755  0.5345 -0.2381 -0.0521
 7180TIP3    H142955   6.107   2.191   1.836  0.9862 -0.2109 -0.3011
 7180TIP3    H242956   6.106   2.161   1.687  0.6164  0.3014 -0.4042
 7181TIP3   OH242957   3.950   5.110   2.797 -0.1893  0.6051 -0.0570
 7181TIP3    H142958   3.883   5.143   2.856  0.4877 -0.7513  1.5161
 7181TIP3    H242959   4.024   5.170   2.808 -1.0970  2.1231 -1.8214
 7182TIP3   OH242960   5.893   1.555   1.541 -0.4732 -0.6103 -0.0298
 7182TIP3    H142961   5.849   1.589   1.620  0.5083 -1.0868  0.7308
 7182TIP3    H242962   5.930   1.471   1.569 -1.4647 -1.5349 -1.4461
 7183TIP3   OH242963   4.528   6.006   2.287 -0.4199 -0.1277 -0.0188
 7183TIP3    H142964   4.577   6.084   2.259 -0.1155  0.5048  2.2249
 7183TIP3    H242965   4.531   5.948   2.211  2.7386  0.4219 -0.3789
 7184TIP3   OH242966   3.479   3.200  12.966  0.6811 -0.1833  0.0118
 7184TIP3    H142967   3.479   3.140  12.891  3.1348 -0.0715 -0.1040
 7184TIP3    H242968   3.421   3.272  12.939 -2.0439 -2.2807  0.0283
 7185TIP3   OH242969   1.344   3.042  14.573 -0.1070  0.0613 -0.0790
 7185TIP3    H142970   1.352   3.122  14.521 -0.1927 -0.8017 -1.4388
 7185TIP3    H242971   1.362   2.971  14.511 -0.5620 -1.0010  0.9898
 7186TIP3   OH242972   3.184   6.175  16.090  0.6698 -0.5486 -0.4074
 7186TIP3    H142973   3.224   6.256  16.058 -0.0938  0.0935  0.2505
 7186TIP3    H242974   3.183   6.117  16.013  2.2241 -0.3357 -0.6099
 7187TIP3   OH242975   6.359   0.506   5.610 -0.2603 -0.0160  0.1463
 7187TIP3    H142976   6.430   0.490   5.672  0.3591 -0.3950 -0.6484
 7187TIP3    H242977   6.281   0.471   5.653 -0.1477  1.2852  1.4447
 7188TIP3   OH242978   6.145   6.566  16.788 -0.2799 -0.2074  0.0590
 7188TIP3    H142979   6.082   6.494  16.797 -0.1541 -0.3120  0.0933
 7188TIP3    H242980   6.106   6.623  16.722 -0.0227 -0.6940 -0.5207
 7189TIP3   OH242981   0.173   6.060  15.496  0.4292 -0.0117 -0.3484
 7189TIP3    H142982   0.175   6.105  15.581 -0.6087 -1.4706  0.4693
 7189TIP3    H242983   0.087   6.017  15.494 -0.0352  0.9526 -2.6498
 7190TIP3   OH242984   6.432   0.937  12.345  0.3511 -0.0206 -0.3546
 7190TIP3    H142985   6.415   0.857  12.296  1.3129 -0.1073 -0.5537
 7190TIP3    H242986   6.523   0.958  12.325  0.8397 -0.2075  1.6225
 7191TIP3   OH242987   4.403   1.349   0.778 -0.3777  0.0897 -0.3979
 7191TIP3    H142988   4.384   1.261   0.811 -0.7895 -0.0013 -0.8667
 7191TIP3    H242989   4.368   1.408   0.845 -0.6834 -0.0978 -0.3889
 7192TIP3   OH242990   6.218   1.985  16.706 -0.7629 -0.1709  0.1782
 7192TIP3    H142991   6.291   1.926  16.723  0.4583  1.2428 -0.0830
 7192TIP3    H242992   6.192   2.017  16.792 -0.6911 -0.2447  0.2284
 7193TIP3   OH242993   1.181   3.234   5.418  0.1353 -0.1347  0.0233
 7193TIP3    H142994   1.262   3.274   5.447  0.2224  0.1048 -0.5369
 7193TIP3    H242995   1.134   3.212   5.498  1.3011 -1.4034  0.3833
 7194TIP3   OH242996   5.141   2.192  13.558  0.0865 -0.1845 -0.0853
 7194TIP3    H142997   5.227   2.151  13.541  0.0164 -0.5963  0.5175
 7194TIP3    H242998   5.127   2.179  13.652 -0.8297 -0.4896 -0.2577
 7195TIP3   OH242999   5.512   5.129  16.622  0.2250 -0.4127  0.4361
 7195TIP3    H143000   5.604   5.124  16.594  0.3464 -0.6063  0.8638
 7195TIP3    H243001   5.510   5.205  16.680  0.2473 -0.7782  0.9186
 7196TIP3   OH243002   6.441   3.275  15.662 -0.0940 -0.3181 -0.0861
 7196TIP3    H143003   6.505   3.238  15.601 -1.2001 -0.4515 -1.1832
 7196TIP3    H243004   6.358   3.270  15.616 -1.1279 -1.3409  1.8192
 7197TIP3   OH243005   0.696   1.744  15.630  0.2712  0.1049  0.1545
 7197TIP3    H143006   0.718   1.808  15.698  0.4594  0.0881  0.1091
 7197TIP3    H243007   0.674   1.665  15.678 -0.3923  0.3346  0.2288
 7198TIP3   OH243008   5.052   3.484   6.678 -0.3287  0.2980  0.4552
 7198TIP3    H143009   5.076   3.479   6.771 -0.7681 -0.6431  0.5243
 7198TIP3    H243010   5.001   3.564   6.671 -0.7537  0.0924  1.1390
 7199TIP3   OH243011   1.094   0.064  15.265  0.2395 -0.0359  0.1585
 7199TIP3    H143012   1.166   0.038  15.207 -0.1430 -1.0063  0.1068
 7199TIP3    H243013   1.068  -0.017  15.309 -0.5212  0.3970  0.5189
 7200TIP3   OH243014   5.268   1.332   1.369 -0.1418  0.5412  0.0301
 7200TIP3    H143015   5.333   1.359   1.304  0.0863 -0.3960 -0.1392
 7200TIP3    H243016   5.319   1.316   1.448 -0.2655  0.5398  0.1084
 7201TIP3   OH243017   6.724   5.638   1.271 -0.4428  0.2986 -0.4841
 7201TIP3    H143018   6.660   5.573   1.300  0.2415 -0.7525 -1.2812
 7201TIP3    H243019   6.809   5.602   1.298 -0.1370  1.3487 -0.0353
 7202TIP3   OH243020   0.732   0.731   3.264  0.5427  0.4168 -0.4956
 7202TIP3    H143021   0.766   0.783   3.337 -0.2247 -1.6906  1.4531
 7202TIP3    H243022   0.758   0.641   3.286 -2.2119 -0.6246 -1.3160
 7203TIP3   OH243023   0.603   2.280   2.501  0.2619  0.3859 -0.3858
 7203TIP3    H143024   0.618   2.319   2.587  0.1291 -0.0273 -0.1787
 7203TIP3    H243025   0.651   2.197   2.503 -0.7449 -0.1931 -0.2861
 7204TIP3   OH243026   4.583   1.785  12.868 -0.6708 -0.0795 -0.1211
 7204TIP3    H143027   4.631   1.817  12.944 -3.7543  1.2372  1.3549
 7204TIP3    H243028   4.565   1.693  12.887  1.6833 -0.7388 -0.9444
 7205TIP3   OH243029   1.402   5.494   0.944 -0.1096 -0.5508  0.2137
 7205TIP3    H143030   1.368   5.449   0.867  2.6138  0.5278 -1.6656
 7205TIP3    H243031   1.331   5.553   0.970 -1.9885 -2.6593  0.0632
 7206TIP3   OH243032   4.205   3.147  11.821 -0.3322  0.5630 -0.0846
 7206TIP3    H143033   4.186   3.224  11.767 -0.1679  0.6634  0.0023
 7206TIP3    H243034   4.254   3.089  11.763 -0.0508  0.7223 -0.0078
 7207TIP3   OH243035   6.522   3.171  11.604  0.4604  0.2726  0.2086
 7207TIP3    H143036   6.471   3.090  11.599  0.9719  0.0216 -1.2357
 7207TIP3    H243037   6.472   3.234  11.551  0.5868  0.6099  0.4910
 7208TIP3   OH243038   5.712   3.012  16.843  0.1147 -0.3195  0.5014
 7208TIP3    H143039   5.646   2.946  16.823  1.0878 -1.4219  0.8995
 7208TIP3    H243040   5.677   3.059  16.919 -0.6601 -0.2567  0.1086
 7209TIP3   OH243041   5.463   2.974   3.377 -0.3472 -0.3357 -0.2958
 7209TIP3    H143042   5.479   2.962   3.283  0.0636 -1.3510 -0.1104
 7209TIP3    H243043   5.549   2.995   3.413 -0.8754  2.1254 -0.4418
 7210TIP3   OH243044   3.514   1.574   5.719  0.4104  0.2724 -0.5777
 7210TIP3    H143045   3.496   1.578   5.813 -0.0521  0.1911 -0.6640
 7210TIP3    H243046   3.438   1.615   5.678  0.7438  0.5710 -0.9032
 7211TIP3   OH243047   0.185   1.907  16.561 -0.0173 -0.0838  0.2598
 7211TIP3    H143048   0.233   1.835  16.521  0.7035  0.7844 -0.4711
 7211TIP3    H243049   0.182   1.975  16.494  1.5937  1.5643  1.7760
 7212TIP3   OH243050   2.305   3.798   5.280 -0.1747  0.1938  0.2704
 7212TIP3    H143051   2.214   3.788   5.250 -0.9548  0.3591  2.4948
 7212TIP3    H243052   2.325   3.715   5.323  0.6864  0.2329 -0.0466
 7213TIP3   OH243053   5.290   1.502  12.063  0.2165  0.2194  0.0551
 7213TIP3    H143054   5.200   1.471  12.067  0.2917 -0.0760 -0.4870
 7213TIP3    H243055   5.333   1.444  12.000  0.8693  0.1554  0.5547
 7214TIP3   OH243056   0.937   2.805  16.279  0.0753  0.3516  0.1465
 7214TIP3    H143057   0.883   2.782  16.203  1.7185 -3.1701 -0.0950
 7214TIP3    H243058   1.014   2.847  16.241 -0.6400  1.7107  0.1711
 7215TIP3   OH243059   5.399   3.824   6.077 -0.8507  0.0843  0.0663
 7215TIP3    H143060   5.465   3.877   6.032 -0.2379 -0.1439  0.6886
 7215TIP3    H243061   5.349   3.782   6.007 -3.3868  3.8862 -0.5944
 7216TIP3   OH243062   5.509   2.970   4.354 -0.1196 -0.6435 -0.3094
 7216TIP3    H143063   5.434   2.930   4.397 -0.2989 -1.3488 -1.2584
 7216TIP3    H243064   5.487   3.063   4.346 -0.3745 -0.6372  0.4925
 7217TIP3   OH243065   2.034   2.759   5.441 -0.6427  0.4574  0.0955
 7217TIP3    H143066   2.101   2.729   5.503 -0.3126 -1.9411 -1.3662
 7217TIP3    H243067   1.952   2.729   5.479 -0.5839  0.3973  0.1749
 7218TIP3   OH243068   1.744   2.048   5.285 -0.3915 -0.3028  0.4040
 7218TIP3    H143069   1.767   2.130   5.242 -1.8335 -0.4969 -0.8011
 7218TIP3    H243070   1.804   1.983   5.247 -1.0606 -0.3017 -0.7056
 7219TIP3   OH243071   3.317   0.873  13.920 -0.1165 -0.1502  0.1557
 7219TIP3    H143072   3.284   0.958  13.947  2.0013  1.0798 -1.0348
 7219TIP3    H243073   3.366   0.890  13.840 -0.7936 -2.7107 -0.8542
 7220TIP3   OH243074   0.470   2.911   1.431 -0.1799 -0.1961 -0.0421
 7220TIP3    H143075   0.485   2.891   1.524  0.1692 -0.2278 -0.1029
 7220TIP3    H243076   0.489   3.004   1.423  0.7484 -0.3930 -0.2679
 7221TIP3   OH243077   3.196   0.213   0.920 -0.0570 -0.3602 -0.2221
 7221TIP3    H143078   3.229   0.190   1.007  0.2292 -0.6422 -0.4037
 7221TIP3    H243079   3.266   0.266   0.881 -0.5111  0.4219  0.0095
 7222TIP3   OH243080   2.999   6.629   6.368  0.5684 -0.3259 -0.6236
 7222TIP3    H143081   3.037   6.708   6.405  0.5301 -0.5063 -0.1961
 7222TIP3    H243082   3.057   6.607   6.295  0.5376  0.1324 -0.7894
 7223TIP3   OH243083   6.330   5.132  15.747 -0.6501  0.1760  0.2234
 7223TIP3    H143084   6.327   5.076  15.670 -1.6089 -0.9795  1.0779
 7223TIP3    H243085   6.289   5.214  15.719  0.5352  0.3756 -0.9677
 7224TIP3   OH243086   5.188   0.610   4.388 -0.4488  0.1761  0.4855
 7224TIP3    H143087   5.276   0.603   4.425 -0.1148  0.5842 -0.2093
 7224TIP3    H243088   5.142   0.533   4.420  1.0825 -1.6669 -1.5798
 7225TIP3   OH243089   4.200   3.376   5.041 -0.1934  0.7505 -0.0232
 7225TIP3    H143090   4.242   3.402   5.123 -0.7526  0.7284  0.2718
 7225TIP3    H243091   4.258   3.310   5.004 -0.6953 -0.3308  1.0945
 7226TIP3   OH243092   0.549   4.039  12.813 -0.4077 -0.0155  0.1286
 7226TIP3    H143093   0.454   4.040  12.803 -0.5867  0.6247  1.6270
 7226TIP3    H243094   0.575   4.131  12.801 -0.4058  0.4186  3.0702
 7227TIP3   OH243095   4.673   5.890   5.504  0.0768  0.0164  0.7340
 7227TIP3    H143096   4.598   5.836   5.528 -0.2891  0.7950  1.3384
 7227TIP3    H243097   4.725   5.834   5.446 -2.3884  0.4541 -2.0026
 7228TIP3   OH243098   2.360   0.873  14.384  0.0199  0.2893 -0.6421
 7228TIP3    H143099   2.399   0.957  14.359  1.6580  0.3600  1.9019
 7228TIP3    H243100   2.384   0.863  14.477 -3.3182 -1.2397  0.1077
 7229TIP3   OH243101   5.316   5.321  16.409  0.0391  0.3438  0.0410
 7229TIP3    H143102   5.357   5.234  16.409  1.5425  1.0317  0.3561
 7229TIP3    H243103   5.247   5.315  16.344 -0.6323 -1.4404  0.8975
 7230TIP3   OH243104   6.086   3.126   1.669  0.3686 -0.1121  0.1743
 7230TIP3    H143105   6.092   3.039   1.631 -1.5557 -1.2126  2.2916
 7230TIP3    H243106   6.031   3.115   1.747 -0.1169  3.0181  0.3465
 7231TIP3   OH243107   4.748   2.647   2.369 -0.2666 -0.0485 -0.4235
 7231TIP3    H143108   4.826   2.697   2.344 -2.3017  3.0628 -0.8553
 7231TIP3    H243109   4.751   2.644   2.465 -0.5313  1.6747 -0.3434
 7232TIP3   OH243110   3.880   2.156   4.326  0.1169  0.1312  0.1164
 7232TIP3    H143111   3.874   2.242   4.286 -1.2626 -0.4236 -0.9105
 7232TIP3    H243112   3.834   2.165   4.410 -0.9098  0.1414 -0.4413
 7233TIP3   OH243113   3.932   5.953   0.894 -0.4064 -0.3575 -0.1980
 7233TIP3    H143114   3.863   5.888   0.882 -0.3110 -0.3332 -0.9272
 7233TIP3    H243115   3.966   5.969   0.806 -0.6012  0.8631 -0.0664
 7234TIP3   OH243116   6.419   1.925   4.817 -0.2029  0.1693 -0.3514
 7234TIP3    H143117   6.489   1.918   4.752  1.2172  3.0881  0.7930
 7234TIP3    H243118   6.360   1.992   4.782 -1.2660 -0.6726 -0.2226
 7235TIP3   OH243119   2.056   2.205  17.142 -0.8335  0.7327  0.0148
 7235TIP3    H143120   2.119   2.199  17.214 -0.8293  0.1292 -0.0305
 7235TIP3    H243121   2.109   2.201  17.063 -1.0394 -1.5858 -0.0471
 7236TIP3   OH243122   4.207   2.172   2.374  0.4178 -0.1736  0.5779
 7236TIP3    H143123   4.201   2.139   2.464  1.0325 -2.3952 -0.1758
 7236TIP3    H243124   4.263   2.109   2.329 -0.2379  0.6926 -1.4932
 7237TIP3   OH243125   2.782   6.342  11.901 -0.0645  0.1932  0.2751
 7237TIP3    H143126   2.735   6.259  11.893 -0.4304  0.2133  2.1734
 7237TIP3    H243127   2.835   6.332  11.980  1.2678  1.1017 -0.4846
 7238TIP3   OH243128   5.133   2.080  12.329 -0.0262 -0.1805  0.1190
 7238TIP3    H143129   5.095   2.116  12.248  0.8275  0.0450 -0.1917
 7238TIP3    H243130   5.129   1.985  12.317  0.0048 -0.1491 -0.1448
 7239TIP3   OH243131   4.897   5.715   4.762 -0.6028  0.1752 -0.3304
 7239TIP3    H143132   4.979   5.687   4.722 -0.0370  0.2391  0.7642
 7239TIP3    H243133   4.874   5.644   4.822 -0.6879  0.7291  0.2979
 7240TIP3   OH243134   6.109   1.618  14.487  0.2484  0.5448 -0.1826
 7240TIP3    H143135   6.059   1.571  14.554 -0.3828  0.8353 -0.4443
 7240TIP3    H243136   6.078   1.708  14.493 -0.5589  0.3628 -1.5633
 7241TIP3   OH243137   6.311   2.114  15.396 -0.0957 -0.4302  0.0189
 7241TIP3    H143138   6.301   2.134  15.303  1.4767  2.4396  0.4301
 7241TIP3    H243139   6.221   2.104  15.427 -0.6198 -2.0925 -1.9100
 7242TIP3   OH243140   2.412   4.897   6.172 -0.2704  0.3388  0.0393
 7242TIP3    H143141   2.444   4.841   6.101 -1.3232  1.1734 -1.1318
 7242TIP3    H243142   2.454   4.863   6.251  1.3522 -0.2615 -1.0623
 7243TIP3   OH243143   1.104   5.821   0.678  0.1354  0.3529  0.2168
 7243TIP3    H143144   1.050   5.839   0.602 -0.0892 -0.2235  0.2392
 7243TIP3    H243145   1.060   5.865   0.751 -0.6313 -0.5934  0.3465
 7244TIP3   OH243146   3.786   3.323   0.693  0.3129  0.6112 -0.0453
 7244TIP3    H143147   3.862   3.380   0.689  0.9183 -0.0413  1.6402
 7244TIP3    H243148   3.731   3.360   0.762  0.3340 -0.3756  0.5119
 7245TIP3   OH243149   5.489   3.039   1.360 -0.7479  0.1574 -0.3295
 7245TIP3    H143150   5.518   2.949   1.355  1.4803  0.8015  0.5282
 7245TIP3    H243151   5.472   3.065   1.269  0.8226 -0.4084 -0.7855
 7246TIP3   OH243152   2.721   1.693  10.852 -1.1159 -0.3427  0.3155
 7246TIP3    H143153   2.638   1.688  10.805 -0.5101  0.0243 -0.8129
 7246TIP3    H243154   2.756   1.604  10.847 -2.2208 -0.9050  2.2569
 7247TIP3   OH243155   0.440   4.044   3.766  0.0806 -0.4643 -0.6868
 7247TIP3    H143156   0.510   4.093   3.809 -0.9168 -0.1243  0.5685
 7247TIP3    H243157   0.438   3.960   3.813  0.2128 -0.7987 -1.2798
 7248TIP3   OH243158   0.073   6.535  14.283 -0.0620  0.0599 -0.1639
 7248TIP3    H143159   0.054   6.616  14.236  1.5451  0.0146 -0.9186
 7248TIP3    H243160   0.158   6.506  14.248  0.8372 -0.3441  2.2453
 7249TIP3   OH243161   0.615   2.791   0.269 -0.3132 -0.3610 -0.2906
 7249TIP3    H143162   0.689   2.810   0.212  0.1207  1.4033  0.8383
 7249TIP3    H243163   0.552   2.745   0.212  1.8356 -2.3866 -1.1010
 7250TIP3   OH243164   3.765   4.336   3.285 -0.2019 -0.2309  0.2103
 7250TIP3    H143165   3.805   4.256   3.250 -0.7770  0.4096 -1.9366
 7250TIP3    H243166   3.839   4.396   3.298  0.0297 -0.5293  0.2789
 7251TIP3   OH243167   2.521   3.830  11.912 -0.4246  0.1640 -0.1998
 7251TIP3    H143168   2.520   3.832  11.816  1.8635  0.6908 -0.2387
 7251TIP3    H243169   2.564   3.912  11.937  0.8961 -0.9465  1.2188
 7252TIP3   OH243170   2.571   2.155  12.801 -0.6582  0.2760 -0.0997
 7252TIP3    H143171   2.634   2.172  12.871  1.7803  1.1009 -2.4261
 7252TIP3    H243172   2.620   2.169  12.720 -3.3537 -0.8419 -2.0073
 7253TIP3   OH243173   1.792   1.185  17.063  0.1629 -0.4876  0.3740
 7253TIP3    H143174   1.831   1.259  17.016  0.0443  0.1338  1.2380
 7253TIP3    H243175   1.864   1.123  17.075  0.2247 -0.5945 -0.5022
 7254TIP3   OH243176   3.411   1.647   1.955 -0.1145 -0.6340 -0.3403
 7254TIP3    H143177   3.368   1.618   1.876 -0.2785 -1.0956 -0.0830
 7254TIP3    H243178   3.443   1.735   1.934  0.0962 -0.8673 -1.0093
 7255TIP3   OH243179   1.377   0.876  16.929 -0.7028 -0.4848 -0.0465
 7255TIP3    H143180   1.442   0.887  16.998  0.1540  0.6205 -0.9965
 7255TIP3    H243181   1.307   0.936  16.952  1.6236  3.4236 -2.4623
 7256TIP3   OH243182   2.106   1.432  15.765  0.2018  0.2853  0.0414
 7256TIP3    H143183   2.027   1.394  15.803 -0.1735 -0.4519 -1.4409
 7256TIP3    H243184   2.173   1.423  15.833 -0.5983 -0.4730  0.7359
 7257TIP3   OH243185   5.897   4.187  15.807 -0.2528 -0.4988 -0.5819
 7257TIP3    H143186   5.850   4.261  15.847 -1.5509 -0.7903 -1.5279
 7257TIP3    H243187   5.980   4.183  15.854  0.1110  1.9745 -0.9577
 7258TIP3   OH243188   4.605   0.813   1.493 -0.4247 -0.3888 -0.1977
 7258TIP3    H143189   4.557   0.887   1.458  0.0479  0.3575  0.6963
 7258TIP3    H243190   4.538   0.747   1.511 -0.8203 -0.2742 -1.2170
 7259TIP3   OH243191   2.711   0.821   0.611 -0.1599 -0.1640 -0.3883
 7259TIP3    H143192   2.682   0.824   0.702 -2.0299 -1.4137 -0.9080
 7259TIP3    H243193   2.806   0.809   0.616 -0.7966 -5.7205  1.4469
 7260TIP3   OH243194   5.756   1.825   6.277  0.2700 -0.2598 -0.0021
 7260TIP3    H143195   5.848   1.812   6.256  0.2773  0.5947 -0.4954
 7260TIP3    H243196   5.709   1.803   6.196 -0.0073 -1.1999  0.3974
 7261TIP3   OH243197   4.594   0.526  12.525 -0.0205  0.6414  0.0054
 7261TIP3    H143198   4.636   0.444  12.553  0.5664  1.5868  1.9762
 7261TIP3    H243199   4.590   0.519  12.430  1.0184 -1.2100  0.0677
 7262TIP3   OH243200   1.445   1.077  15.510 -0.3655  0.5835 -0.2055
 7262TIP3    H143201   1.388   1.146  15.477  2.0353  1.8669 -1.8713
 7262TIP3    H243202   1.524   1.123  15.539  0.3340 -1.2355  0.8584
 7263TIP3   OH243203   1.479   0.989  11.382 -0.2988  0.4122  1.0045
 7263TIP3    H143204   1.402   0.947  11.342  1.1857  0.5487 -2.0928
 7263TIP3    H243205   1.483   1.076  11.341  2.6793 -0.3557 -0.4771
 7264TIP3   OH243206   0.644   0.105   5.334 -0.4909 -0.2225  0.3946
 7264TIP3    H143207   0.720   0.050   5.318 -0.6940 -0.9750  1.9337
 7264TIP3    H243208   0.571   0.058   5.294 -0.3519 -0.1124  0.0097
 7265TIP3   OH243209   0.583   2.367  16.732  0.2753 -0.5780  0.5051
 7265TIP3    H143210   0.564   2.411  16.815  2.1626  3.5761 -1.1489
 7265TIP3    H243211   0.498   2.336  16.701 -1.0499  1.5313  1.9627
 7266TIP3   OH243212   5.946   1.813  16.264  0.1084 -0.4661  0.7242
 7266TIP3    H143213   6.038   1.789  16.256 -0.2149 -2.0701  1.4805
 7266TIP3    H243214   5.944   1.885  16.327  1.2248  2.4521 -2.4297
 7267TIP3   OH243215   1.577   3.378   6.046 -0.0949  0.2518  0.5642
 7267TIP3    H143216   1.573   3.299   6.100  2.7643 -0.2154  0.2036
 7267TIP3    H243217   1.650   3.428   6.083  0.5122  0.9388 -1.5059
 7268TIP3   OH243218   2.259   6.140  13.507  0.5582  0.3265  0.1145
 7268TIP3    H143219   2.223   6.164  13.592  1.0597  2.2679 -0.1888
 7268TIP3    H243220   2.193   6.168  13.444 -0.1831 -1.8592 -0.1147
 7269TIP3   OH243221   5.141   1.243   1.632  0.1456 -0.0705 -0.2528
 7269TIP3    H143222   5.144   1.155   1.595 -1.2932 -0.6114  0.8811
 7269TIP3    H243223   5.060   1.281   1.599  0.0645  0.3186  0.3762
 7270TIP3   OH243224   3.632   0.050  15.313  0.2651  0.2872 -0.2655
 7270TIP3    H143225   3.626   0.144  15.294  2.0427  0.5467  0.4276
 7270TIP3    H243226   3.568   0.010  15.253  0.6312  1.7743 -1.6923
 7271TIP3   OH243227   5.895   3.615   5.977 -0.7361 -0.1941  0.2889
 7271TIP3    H143228   5.824   3.628   5.914  1.1215  1.5160 -1.5499
 7271TIP3    H243229   5.859   3.647   6.060 -1.6805  2.0045 -0.9053
 7272TIP3   OH243230   0.676   2.389   5.134 -0.3704 -0.1079  0.2676
 7272TIP3    H143231   0.743   2.323   5.153 -1.2617 -0.4038  2.5329
 7272TIP3    H243232   0.721   2.472   5.144 -0.1794 -0.3171  1.1680
 7273TIP3   OH243233   4.729   2.471  13.887 -0.0854  0.6049  0.4676
 7273TIP3    H143234   4.776   2.550  13.861  1.2628  0.3529  1.9995
 7273TIP3    H243235   4.798   2.407  13.905 -1.1359 -0.7619 -0.2526
 7274TIP3   OH243236   4.651   5.039   3.900 -0.8637  0.3423  0.2335
 7274TIP3    H143237   4.649   5.134   3.897 -0.2165  0.3800  0.7939
 7274TIP3    H243238   4.745   5.017   3.895 -0.9900 -0.2556  0.4100
 7275TIP3   OH243239   2.767   3.944   6.640 -0.2121  0.4173 -0.0558
 7275TIP3    H143240   2.812   4.010   6.588  0.2683 -1.4023 -2.0166
 7275TIP3    H243241   2.827   3.925   6.712  0.9957 -0.0301 -1.1520
 7276TIP3   OH243242   3.202   0.623   4.687  0.0216  0.2744  0.2468
 7276TIP3    H143243   3.295   0.600   4.690  0.0809  0.1708 -1.9854
 7276TIP3    H243244   3.200   0.713   4.654 -0.6904  0.0573 -0.3125
 7277TIP3   OH243245   0.615   4.495   5.126 -0.0820 -0.5485 -0.0454
 7277TIP3    H143246   0.663   4.495   5.209 -0.6985 -2.2611  0.3323
 7277TIP3    H243247   0.657   4.563   5.074  3.0774 -2.3146  0.1007
 7278TIP3   OH243248   3.551   2.332   1.636  0.8156 -0.6465 -0.3840
 7278TIP3    H143249   3.476   2.345   1.695  0.6088  0.5489 -0.8761
 7278TIP3    H243250   3.585   2.245   1.657 -0.2291 -0.8697  0.3966
 7279TIP3   OH243251   0.219   1.002   4.999  0.1616  0.1797  0.0834
 7279TIP3    H143252   0.292   0.940   4.998  0.1484  0.1719 -0.4478
 7279TIP3    H243253   0.169   0.979   5.077 -0.5182 -1.2765 -0.7558
 7280TIP3   OH243254   1.733   0.184  13.325  0.3253  0.1649  0.2608
 7280TIP3    H143255   1.670   0.224  13.266  1.4421  0.6276 -0.6262
 7280TIP3    H243256   1.700   0.095  13.338 -0.0778  0.1462 -0.8442
 7281TIP3   OH243257   2.525   3.291  12.097  0.1648  0.2618 -0.5966
 7281TIP3    H143258   2.594   3.335  12.145 -1.9141  0.9232  1.8601
 7281TIP3    H243259   2.523   3.202  12.133  0.0253  0.1125 -0.9686
 7282TIP3   OH243260   1.500   3.352   2.025 -0.0275  0.2482  0.1723
 7282TIP3    H143261   1.430   3.406   2.063  0.6177  0.4411  1.1101
 7282TIP3    H243262   1.573   3.413   2.016  0.2536 -0.1343 -0.1042
 7283TIP3   OH243263   6.708   5.163   2.766  0.6541  0.1142 -0.2492
 7283TIP3    H143264   6.623   5.150   2.806  1.5210 -2.3885  0.8485
 7283TIP3    H243265   6.743   5.242   2.808 -0.2150 -0.0752  0.8231
 7284TIP3   OH243266   6.442   5.186   2.930  0.2892 -0.4896 -0.0869
 7284TIP3    H143267   6.387   5.251   2.887 -0.2437 -0.1721  1.0790
 7284TIP3    H243268   6.397   5.103   2.916  0.5552 -0.5171 -0.8611
 7285TIP3   OH243269   3.198   4.550   5.303  0.4555 -0.3804  0.2089
 7285TIP3    H143270   3.232   4.636   5.276  2.1292 -0.9345  0.4908
 7285TIP3    H243271   3.103   4.562   5.306  0.6672  1.5051  0.3682
 7286TIP3   OH243272   0.001   5.459   3.359 -0.2050  0.3576 -0.2548
 7286TIP3    H143273  -0.020   5.366   3.356  0.3182  0.2736 -1.4333
 7286TIP3    H243274   0.003   5.480   3.453  1.0006 -1.1068  0.0652
 7287TIP3   OH243275   6.114   2.565   0.345  0.7701  0.1271  0.4721
 7287TIP3    H143276   6.028   2.559   0.386  2.0427 -1.2906  3.0353
 7287TIP3    H243277   6.107   2.508   0.268 -0.3838 -0.5372  1.0443
 7288TIP3   OH243278   6.596   4.293  11.906  0.5493  0.1538 -0.5876
 7288TIP3    H143279   6.573   4.288  11.813 -0.0518 -1.0225 -0.3979
 7288TIP3    H243280   6.538   4.360  11.942 -0.0850 -0.2607 -0.8297
 7289TIP3   OH243281   0.727   3.942  14.391 -0.1925  0.4882 -0.7325
 7289TIP3    H143282   0.798   3.992  14.352  0.4340 -0.0109 -0.2363
 7289TIP3    H243283   0.679   4.005  14.444 -0.0238  0.7878 -0.9355
 7290TIP3   OH243284   5.266   5.287   5.085 -0.3350 -0.1511  0.6679
 7290TIP3    H143285   5.256   5.233   5.164  2.7683  1.9407  2.6243
 7290TIP3    H243286   5.333   5.241   5.034  0.4633  0.4828  1.1286
 7291TIP3   OH243287   0.896   0.458   2.991 -0.4701 -0.3148 -0.2816
 7291TIP3    H143288   0.985   0.426   2.977 -1.3309 -1.4422 -3.6480
 7291TIP3    H243289   0.855   0.390   3.044  0.1477 -0.6945 -0.2802
 7292TIP3   OH243290   6.629   1.861  11.897  0.3649  0.0091 -0.5189
 7292TIP3    H143291   6.660   1.938  11.944 -1.4494 -1.1912  2.8617
 7292TIP3    H243292   6.681   1.858  11.817  1.9984  3.4577  0.3348
 7293TIP3   OH243293   4.671   0.368   5.185  0.6621 -0.2091  0.3629
 7293TIP3    H143294   4.711   0.450   5.156  0.3049  0.7361  2.4581
 7293TIP3    H243295   4.596   0.356   5.126  1.4002  0.3550 -0.7076
 7294TIP3   OH243296   1.541   2.190  13.988  0.4670  0.6322 -0.6708
 7294TIP3    H143297   1.459   2.201  13.940 -0.6156 -3.1235  0.1352
 7294TIP3    H243298   1.572   2.102  13.964  0.7993 -0.6856  3.9975
 7295TIP3   OH243299   5.572   1.259   0.500  0.2600  0.3255  0.0680
 7295TIP3    H143300   5.495   1.306   0.466  0.6590 -0.2534 -1.6963
 7295TIP3    H243301   5.597   1.200   0.428  0.4978 -1.7075  1.7783
 7296TIP3   OH243302   3.388   3.615  11.414  0.6484 -0.2994  0.1476
 7296TIP3    H143303   3.356   3.525  11.401  0.1502 -0.0468 -0.4009
 7296TIP3    H243304   3.460   3.606  11.476 -0.4261 -0.9092  1.3416
 7297TIP3   OH243305   1.136   4.667  17.124  0.0695  0.2423 -0.0028
 7297TIP3    H143306   1.167   4.733  17.185  0.9327 -0.6617  0.5582
 7297TIP3    H243307   1.216   4.629  17.087 -0.4318  0.3077 -1.1884
 7298TIP3   OH243308   4.547   0.396  10.474 -0.1327 -0.5603 -0.2372
 7298TIP3    H143309   4.518   0.321  10.422  1.9809 -1.0659 -0.7131
 7298TIP3    H243310   4.635   0.414  10.443  0.0613  0.9853  1.1575
 7299TIP3   OH243311   3.640   1.969   4.031  0.2228  0.2870  0.1280
 7299TIP3    H143312   3.596   2.025   4.095  0.3900  0.3710  0.1698
 7299TIP3    H243313   3.699   2.028   3.984  0.8009  0.0457  0.5416
 7300TIP3   OH243314   5.548   2.307   1.720  0.8346 -0.1272  0.0977
 7300TIP3    H143315   5.502   2.318   1.637 -0.0549 -1.8437  0.3496
 7300TIP3    H243316   5.631   2.266   1.697  0.1877 -1.4919  0.1318
 7301TIP3   OH243317   1.838   1.849   2.218  0.2137  0.2679 -0.6774
 7301TIP3    H143318   1.852   1.827   2.310 -3.3300 -0.1796 -0.1958
 7301TIP3    H243319   1.816   1.942   2.219  1.1463  0.5077 -1.2226
 7302TIP3   OH243320   2.332   2.986   6.339  0.4448  0.0653 -0.0408
 7302TIP3    H143321   2.291   2.936   6.410  1.6403  0.8587  1.2535
 7302TIP3    H243322   2.426   2.976   6.354  0.7923 -2.6091 -3.6028
 7303TIP3   OH243323   4.751   0.398   2.356  0.2080  0.3088  0.1049
 7303TIP3    H143324   4.832   0.431   2.395 -0.3447  0.7481  0.9017
 7303TIP3    H243325   4.710   0.475   2.316  0.0558  0.1401 -0.0643
 7304TIP3   OH243326   1.756   3.341  14.245  0.1842  0.5114 -0.0328
 7304TIP3    H143327   1.750   3.430  14.280  0.9161  0.8252 -0.6651
 7304TIP3    H243328   1.843   3.338  14.204  1.4236 -1.4753  2.6088
 7305TIP3   OH243329   1.748   0.477   5.456 -0.4238 -0.1617 -0.3737
 7305TIP3    H143330   1.699   0.448   5.533  0.6512 -0.3763  0.2480
 7305TIP3    H243331   1.707   0.432   5.382 -1.6092  0.2174  0.0366
 7306TIP3   OH243332   3.939   4.159   3.518  0.0468  0.1864  0.4982
 7306TIP3    H143333   3.869   4.196   3.573 -0.8253  0.8498 -1.0123
 7306TIP3    H243334   3.970   4.083   3.567 -1.5049  0.0816  1.3732
 7307TIP3   OH243335   5.267   1.370   5.641  0.2677  0.3720  0.0663
 7307TIP3    H143336   5.179   1.403   5.659  0.9667  1.9115  0.8336
 7307TIP3    H243337   5.254   1.282   5.607 -1.6836  1.3226 -1.7652
 7308TIP3   OH243338   0.179   3.469  10.769  0.2648  0.1206 -0.7843
 7308TIP3    H143339   0.265   3.491  10.732  0.7488 -1.7493 -0.8657
 7308TIP3    H243340   0.116   3.509  10.709  1.0744 -0.2736 -1.9180
 7309TIP3   OH243341   4.165   1.271  14.400  0.1749  0.1427  0.0220
 7309TIP3    H143342   4.187   1.224  14.480  0.8129  0.6068  0.1266
 7309TIP3    H243343   4.108   1.342  14.429 -0.4591 -0.3239 -0.0790
 7310TIP3   OH243344   0.202   0.568   2.307 -0.2944 -0.1835 -0.3428
 7310TIP3    H143345   0.190   0.476   2.285 -0.0029 -0.4132  0.4280
 7310TIP3    H243346   0.291   0.573   2.342 -1.4164 -0.2153  2.6729
 7311TIP3   OH243347   2.259   3.656   0.571 -0.0154  0.5197  0.0461
 7311TIP3    H143348   2.224   3.726   0.515  2.0964  2.0646  0.6057
 7311TIP3    H243349   2.212   3.666   0.654  1.3712  2.3307  0.6574
 7312TIP3   OH243350   6.085   5.122   1.255  0.4104  0.0896  0.3389
 7312TIP3    H143351   6.016   5.174   1.297  1.2747  1.0667  0.5661
 7312TIP3    H243352   6.039   5.046   1.219 -0.6222  0.1502  1.4834
 7313TIP3   OH243353   3.712   3.889  12.394  0.2594  0.7130 -0.2740
 7313TIP3    H143354   3.696   3.826  12.465 -1.2786  2.3038  0.8190
 7313TIP3    H243355   3.797   3.927  12.415  0.1128  0.7038  0.3384
 7314TIP3   OH243356   6.605   3.368  16.842  0.7878 -0.4303  0.2211
 7314TIP3    H143357   6.596   3.373  16.937 -1.2611 -2.5906  0.1831
 7314TIP3    H243358   6.521   3.400  16.809  1.7918  1.0857 -0.9046
 7315TIP3   OH243359   6.484   3.197   2.433 -0.2430  0.1057 -0.3871
 7315TIP3    H143360   6.519   3.278   2.398 -0.3815  0.0588 -0.6308
 7315TIP3    H243361   6.458   3.219   2.523 -0.6974  0.4406 -0.6045
 7316TIP3   OH243362   3.933   5.782   4.005  0.1503  0.7979 -0.3263
 7316TIP3    H143363   3.960   5.691   3.990  0.4144  0.8177  0.0204
 7316TIP3    H243364   3.899   5.782   4.094 -2.2027  0.5007 -1.2027
 7317TIP3   OH243365   3.607   2.085  13.052 -0.9361  0.0615  0.3769
 7317TIP3    H143366   3.524   2.043  13.030 -0.4061  0.0763 -1.7444
 7317TIP3    H243367   3.673   2.016  13.042 -0.3249  0.8220 -1.0467
 7318TIP3   OH243368   6.356   2.350  16.391  0.3379 -0.2460 -0.0804
 7318TIP3    H143369   6.288   2.315  16.448  0.4378  1.7782  1.3469
 7318TIP3    H243370   6.438   2.321  16.431  0.3668 -1.0747 -0.7241
 7319TIP3   OH243371   5.617   0.638  12.694 -0.1931 -0.2688  0.2879
 7319TIP3    H143372   5.624   0.655  12.788  1.3222  1.7842 -0.1629
 7319TIP3    H243373   5.542   0.689  12.665  1.4275  1.8836 -0.2062
 7320TIP3   OH243374   4.147   4.683   4.437  0.0942 -0.0905 -0.5879
 7320TIP3    H143375   4.066   4.708   4.481 -0.5473 -1.1911 -1.1088
 7320TIP3    H243376   4.149   4.738   4.358  1.0198  1.5625  0.5549
 7321TIP3   OH243377   0.383   0.798  14.383  0.0153  0.3834  0.4131
 7321TIP3    H143378   0.329   0.858  14.434  0.7102 -0.0116  1.6657
 7321TIP3    H243379   0.471   0.807  14.422  0.9006  1.1874 -1.7232
 7322TIP3   OH243380   0.191   0.511   1.304 -0.0441  0.2943 -0.6199
 7322TIP3    H143381   0.263   0.520   1.241 -0.0739 -0.3804 -0.7503
 7322TIP3    H243382   0.225   0.550   1.384  0.7729 -0.7666 -0.4454
 7323TIP3   OH243383   0.201   5.748  13.913  0.2799  0.5212  0.2567
 7323TIP3    H143384   0.277   5.780  13.864  0.3299 -2.8285 -2.0373
 7323TIP3    H243385   0.238   5.707  13.991  0.6754  0.7937  0.2135
 7324TIP3   OH243386   1.842   0.397   4.350 -0.1460 -0.0563  0.0745
 7324TIP3    H143387   1.878   0.426   4.433 -0.0630 -1.1086  0.4200
 7324TIP3    H243388   1.841   0.301   4.357 -4.7270 -0.0492  0.7839
 7325TIP3   OH243389   0.212   4.902  16.544  0.1697  0.1925  0.1846
 7325TIP3    H143390   0.156   4.903  16.467 -0.7656 -2.0150  0.7859
 7325TIP3    H243391   0.291   4.855  16.516 -1.2915 -3.0568  1.2283
 7326TIP3   OH243392   4.798   0.647   4.674 -0.0618  0.0292  0.3968
 7326TIP3    H143393   4.851   0.676   4.599  0.4194  1.0212  1.1083
 7326TIP3    H243394   4.860   0.599   4.729 -0.3962 -0.6274  0.2027
 7327TIP3   OH243395   6.277   0.276   1.154 -0.2696 -0.3089  0.0554
 7327TIP3    H143396   6.227   0.217   1.211 -0.5889 -0.1666 -0.0770
 7327TIP3    H243397   6.287   0.227   1.072  0.7252 -0.7627  0.4446
 7328TIP3   OH243398   0.206   4.287   3.568 -0.2741  0.6019 -0.2028
 7328TIP3    H143399   0.248   4.342   3.634 -0.0819  0.4245 -0.1768
 7328TIP3    H243400   0.133   4.340   3.536  0.6208  1.3334 -1.0296
 7329TIP3   OH243401   0.701   2.738   2.926  0.2975 -0.4968  0.1598
 7329TIP3    H143402   0.686   2.671   2.859  2.2415 -0.7100 -0.0889
 7329TIP3    H243403   0.773   2.703   2.979  0.7687  1.0108  0.5383
 7330TIP3   OH243404   2.898   2.237   4.233  0.3167  0.2081 -0.6990
 7330TIP3    H143405   2.803   2.250   4.242  0.3985  0.2353  0.1693
 7330TIP3    H243406   2.906   2.157   4.181 -0.1738  1.7805 -3.3094
 7331TIP3   OH243407   1.542   1.248  13.364  0.2141 -0.0369  0.6447
 7331TIP3    H143408   1.525   1.320  13.303  1.8464  0.0778  0.2893
 7331TIP3    H243409   1.461   1.239  13.414 -0.0513  1.9809  0.6197
 7332TIP3   OH243410   3.741   6.756  10.489 -0.4531 -0.4763  0.6189
 7332TIP3    H143411   3.756   6.705  10.569 -0.8746  1.1716  1.7842
 7332TIP3    H243412   3.684   6.701  10.436 -1.8229 -0.7799  2.3430
 7333TIP3   OH243413   5.173   1.414  10.700  0.2073 -0.2952 -0.5432
 7333TIP3    H143414   5.145   1.378  10.615  0.2033  0.6616 -0.9478
 7333TIP3    H243415   5.258   1.372  10.716  0.0377 -0.7570 -0.8469
 7334TIP3   OH243416   1.981   2.078   1.050  0.2051 -0.2173 -0.2418
 7334TIP3    H143417   2.068   2.066   1.089  0.1238  1.0810  0.3721
 7334TIP3    H243418   1.921   2.078   1.124 -0.3152 -0.9632 -0.6552
 7335TIP3   OH243419   3.954   3.618  14.510  0.7940  0.8138 -0.1902
 7335TIP3    H143420   3.935   3.622  14.604 -0.8587  1.5615 -0.5370
 7335TIP3    H243421   4.035   3.567  14.504  1.2744  1.3184  1.6819
 7336TIP3   OH243422   5.340   3.764   5.584 -0.7876 -0.3384  0.4053
 7336TIP3    H143423   5.325   3.689   5.528  0.3761 -1.8419  2.0391
 7336TIP3    H243424   5.436   3.770   5.592 -0.7369  2.8754 -1.7318
 7337TIP3   OH243425   1.455   0.040  13.749 -0.3604  0.1390 -0.0923
 7337TIP3    H143426   1.518   0.056  13.679 -2.3489  2.2336 -1.4676
 7337TIP3    H243427   1.496   0.079  13.827 -0.0705  1.7058 -1.0156
 7338TIP3   OH243428   2.058   2.001   2.778 -0.2116  0.6159  0.2863
 7338TIP3    H143429   2.140   2.051   2.776 -0.3854  0.9134  0.5936
 7338TIP3    H243430   1.995   2.058   2.733 -0.7623  1.3084  1.9205
 7339TIP3   OH243431   1.764   1.190  12.599  0.1086 -0.4506 -0.1513
 7339TIP3    H143432   1.859   1.183  12.607  0.1468 -0.7742 -0.8927
 7339TIP3    H243433   1.747   1.196  12.505 -0.4000  2.5329  0.0852
 7340TIP3   OH243434   6.145   3.814  13.081 -0.0282 -0.1275  0.2130
 7340TIP3    H143435   6.074   3.873  13.055 -0.0630  0.1093  0.8505
 7340TIP3    H243436   6.211   3.871  13.120 -0.8484 -0.7074  2.4942
 7341TIP3   OH243437   0.887   3.396  15.992 -0.3943 -0.6245 -0.0126
 7341TIP3    H143438   0.928   3.314  15.967 -0.6936 -0.0961 -2.4638
 7341TIP3    H243439   0.956   3.462  15.982  0.1015 -0.6538  2.8095
 7342TIP3   OH243440   2.071   0.268  12.524  0.4403  0.2558  0.3931
 7342TIP3    H143441   2.060   0.173  12.521 -1.7952  0.5004 -0.5035
 7342TIP3    H243442   2.069   0.290  12.617  0.3931 -0.5234  0.5788
 7343TIP3   OH243443   2.102   4.094  15.131  0.8341  0.1685  0.3406
 7343TIP3    H143444   2.134   4.004  15.130  1.5450  0.4144  0.5934
 7343TIP3    H243445   2.035   4.096  15.063  1.3172 -0.3762 -0.1636
 7344TIP3   OH243446   3.860   0.739   4.447  0.2687 -0.1585 -0.3460
 7344TIP3    H143447   3.787   0.736   4.386 -0.3343  0.0745  0.3567
 7344TIP3    H243448   3.894   0.829   4.440 -0.2047  0.0580  0.1302
 7345TIP3   OH243449   5.358   6.446  10.537  0.3052 -0.0689  0.3615
 7345TIP3    H143450   5.305   6.387  10.590 -1.0155  2.2042  1.6483
 7345TIP3    H243451   5.423   6.481  10.597  0.7702  0.1544 -0.2649
 7346TIP3   OH243452   4.715   0.238   3.302  0.1054 -0.4308  0.2460
 7346TIP3    H143453   4.667   0.314   3.333  1.2574  1.0169 -1.4157
 7346TIP3    H243454   4.720   0.180   3.378 -1.3825  0.8361  1.3394
 7347TIP3   OH243455   4.686   1.653   4.081 -0.4591  0.1773  0.2349
 7347TIP3    H143456   4.668   1.710   4.006  4.0487  0.0547 -1.0739
 7347TIP3    H243457   4.698   1.714   4.154  0.3385  0.6685 -0.2926
 7348TIP3   OH243458   1.204   1.535  12.109  0.0281 -0.6101  0.6703
 7348TIP3    H143459   1.232   1.554  12.020  1.0476 -1.6360  0.7526
 7348TIP3    H243460   1.273   1.478  12.144  0.3033  0.7992  2.5412
 7349TIP3   OH243461   5.826   4.882  12.001  0.5752  0.3940 -0.0657
 7349TIP3    H143462   5.798   4.798  11.965 -1.0028  0.9158 -0.1025
 7349TIP3    H243463   5.745   4.920  12.037  1.8308  0.4912  2.7574
 7350TIP3   OH243464   5.415   2.053  15.679 -0.8180 -0.4322 -0.1119
 7350TIP3    H143465   5.377   1.966  15.684 -1.8259  0.0508  0.8399
 7350TIP3    H243466   5.341   2.113  15.692  0.0669  0.5327  0.6357
 7351TIP3   OH243467   0.412   3.149   4.711  0.3229 -0.2417 -0.3196
 7351TIP3    H143468   0.345   3.083   4.693  0.2496 -0.0703 -0.6719
 7351TIP3    H243469   0.376   3.200   4.783 -0.0352  0.0027 -0.6660
 7352TIP3   OH243470   0.995   4.806  11.621  0.7782  0.4760  0.0365
 7352TIP3    H143471   1.071   4.780  11.569  0.8454  1.9057 -0.5860
 7352TIP3    H243472   1.033   4.841  11.702  0.7994  1.6223 -0.4686
 7353TIP3   OH243473   1.870   5.644  16.389 -0.3509  0.2658  0.9726
 7353TIP3    H143474   1.927   5.600  16.452  0.3059  0.9548  0.8630
 7353TIP3    H243475   1.782   5.626  16.420 -0.0891 -0.8909  1.1000
 7354TIP3   OH243476   2.188   5.817   3.773 -0.1038 -0.3080  0.6574
 7354TIP3    H143477   2.257   5.818   3.707  0.4049 -1.6954  1.1497
 7354TIP3    H243478   2.107   5.811   3.722  0.1650  0.8048  0.0952
 7355TIP3   OH243479   5.831   3.980  16.558 -1.0885 -0.3726  0.3378
 7355TIP3    H143480   5.831   3.920  16.633 -0.1902 -0.0853  0.5730
 7355TIP3    H243481   5.905   4.039  16.574 -2.4399  1.3196  0.5250
 7356TIP3   OH243482   4.561   0.033   0.544 -1.0113  0.0351  0.8298
 7356TIP3    H143483   4.626  -0.014   0.491 -1.1408 -0.0015  0.7044
 7356TIP3    H243484   4.482  -0.021   0.539 -1.1762  0.2898  0.6465
 7357TIP3   OH243485   2.481   6.008   1.161 -0.2687 -0.4306  0.3855
 7357TIP3    H143486   2.522   5.958   1.232  0.1146 -0.1209  0.3837
 7357TIP3    H243487   2.525   5.977   1.082  1.2235  1.1716  0.5577
 7358TIP3   OH243488   3.212   1.296  16.757 -0.0929  0.3044  0.2656
 7358TIP3    H143489   3.305   1.319  16.762  0.3982 -1.7297  1.5229
 7358TIP3    H243490   3.177   1.322  16.842 -1.0234  2.3632 -0.7292
 7359TIP3   OH243491   6.518   3.497   3.766  0.3816  0.0708  0.0712
 7359TIP3    H143492   6.603   3.466   3.798  0.3636  1.0515  1.0907
 7359TIP3    H243493   6.456   3.466   3.832  0.1065  0.4674 -0.0026
 7360TIP3   OH243494   0.306   0.313  16.226 -0.4223 -1.1207  0.5680
 7360TIP3    H143495   0.322   0.402  16.258 -0.8755 -1.1640  0.9159
 7360TIP3    H243496   0.331   0.316  16.134  0.5868 -0.9110  0.8452
 7361TIP3   OH243497   2.788   6.482   1.006  0.1399  0.1341 -0.1389
 7361TIP3    H143498   2.713   6.464   0.949 -0.8066  1.7145  0.5704
 7361TIP3    H243499   2.815   6.570   0.982  1.4342 -0.2121  0.0170
 7362TIP3   OH243500   3.319   2.492  11.939  0.2056  0.1750 -0.4810
 7362TIP3    H143501   3.261   2.433  11.987  1.1498 -0.1341  0.3059
 7362TIP3    H243502   3.403   2.446  11.937  0.7769  1.2123 -0.4172
 7363TIP3   OH243503   4.093   3.072   4.206 -0.1742 -0.2457 -0.2849
 7363TIP3    H143504   4.063   2.989   4.169 -0.7714  0.7058 -1.9701
 7363TIP3    H243505   4.189   3.067   4.203 -0.2148 -0.5345 -1.1730
 7364TIP3   OH243506   1.097   4.464  11.506 -0.1542 -0.4260  0.2316
 7364TIP3    H143507   1.140   4.422  11.432 -0.7556  0.3296 -0.5521
 7364TIP3    H243508   1.150   4.542  11.524  0.3652 -0.9475  1.0230
 7365TIP3   OH243509   2.847   3.472   4.027 -0.0739 -0.6701 -0.2672
 7365TIP3    H143510   2.765   3.443   4.067 -0.0636 -1.2669 -0.6750
 7365TIP3    H243511   2.870   3.552   4.075 -0.5135 -0.9007  0.3364
 7366TIP3   OH243512   4.314   5.849  10.718  0.4217  0.0114  0.1484
 7366TIP3    H143513   4.256   5.819  10.648 -0.2979 -1.1381  1.2172
 7366TIP3    H243514   4.265   5.835  10.798  1.3032  1.1760  0.9075
 7367TIP3   OH243515   3.834   1.366  14.245 -0.4770 -0.0233  0.5615
 7367TIP3    H143516   3.865   1.276  14.233 -1.1568 -0.3236  1.0234
 7367TIP3    H243517   3.753   1.357  14.295 -1.0063  0.7904 -0.1305
 7368TIP3   OH243518   4.745   2.423   1.187 -0.2807 -0.0806 -0.0884
 7368TIP3    H143519   4.657   2.397   1.159 -1.8077  1.6040  2.8183
 7368TIP3    H243520   4.783   2.344   1.225 -0.8489 -0.6331 -0.6695
 7369TIP3   OH243521   2.570   5.208   2.413  0.3664 -0.0718  0.2781
 7369TIP3    H143522   2.495   5.211   2.473 -0.9831 -1.0179 -1.3360
 7369TIP3    H243523   2.627   5.279   2.444 -2.0596  1.9040  0.4218
 7370TIP3   OH243524   2.103   6.164   1.067  0.0468 -0.3152  0.0711
 7370TIP3    H143525   2.045   6.228   1.110 -0.2899 -0.2494 -0.4777
 7370TIP3    H243526   2.191   6.187   1.097 -0.0632  0.4719 -0.2102
 7371TIP3   OH243527   1.145   0.492  13.426  0.3311 -0.0383  0.3490
 7371TIP3    H143528   1.200   0.564  13.455  0.8207 -0.5808  0.7855
 7371TIP3    H243529   1.202   0.415  13.429 -0.1000 -0.3910 -0.4036
 7372TIP3   OH243530   1.661   3.978  13.574  0.1551 -0.2675 -0.2527
 7372TIP3    H143531   1.723   4.025  13.518 -0.0737  0.8363  0.3949
 7372TIP3    H243532   1.576   4.020  13.557 -0.3285 -1.4538 -0.7816
 7373TIP3   OH243533   1.127   0.671  11.562  0.0705 -0.3394 -0.1461
 7373TIP3    H143534   1.213   0.671  11.518 -0.6612 -0.6685 -1.6065
 7373TIP3    H243535   1.072   0.725  11.506 -1.2390 -1.8726 -0.3637
 7374TIP3   OH243536   4.157   2.591  12.952  0.0302  0.0385  0.2190
 7374TIP3    H143537   4.103   2.588  12.872  0.4223  1.6612 -0.1297
 7374TIP3    H243538   4.095   2.611  13.022  0.0692  1.1363 -0.0632
 7375TIP3   OH243539   3.486   2.725  16.041  0.0928 -0.2304  0.1633
 7375TIP3    H143540   3.519   2.804  16.082 -0.6539  0.3834 -0.3921
 7375TIP3    H243541   3.527   2.724  15.954 -1.3511  0.5612 -0.5454
 7376TIP3   OH243542   0.027   2.779  16.091 -0.0824 -0.0251 -0.4739
 7376TIP3    H143543   0.096   2.771  16.158 -0.3029  1.7009 -0.0071
 7376TIP3    H243544   0.074   2.791  16.009  0.2169  2.1314 -0.0278
 7377TIP3   OH243545   3.323   6.523  17.061  0.2891 -0.4074 -0.1632
 7377TIP3    H143546   3.418   6.531  17.067  0.2401  0.7312 -0.7020
 7377TIP3    H243547   3.290   6.581  17.129 -0.0285 -0.2442 -0.4559
 7378TIP3   OH243548   1.867   2.173   1.816 -0.2954 -0.7344 -0.1769
 7378TIP3    H143549   1.841   2.178   1.724  0.0520 -0.2276 -0.2471
 7378TIP3    H243550   1.786   2.187   1.864 -0.4601 -0.8958 -0.4031
 7379TIP3   OH243551   0.627   2.088   0.479 -0.2733  0.3104  0.1630
 7379TIP3    H143552   0.561   2.133   0.531 -1.4116  1.0912 -1.8878
 7379TIP3    H243553   0.611   1.995   0.495  0.0894  0.5452  2.0116
 7380TIP3   OH243554   0.613   1.207  15.603  0.1072 -0.8336 -0.3640
 7380TIP3    H143555   0.680   1.264  15.567 -1.2722  0.5403 -0.7703
 7380TIP3    H243556   0.603   1.236  15.694  0.7501 -1.6973 -0.0024
 7381TIP3   OH243557   6.653   1.854  13.624  0.2751 -0.2182  0.0911
 7381TIP3    H143558   6.672   1.935  13.577  0.9342 -0.7011 -0.4802
 7381TIP3    H243559   6.690   1.868  13.711  2.3542 -0.7173 -0.6651
 7382TIP3   OH243560   6.669   1.063  15.868 -0.5646  0.2888 -0.2345
 7382TIP3    H143561   6.643   1.146  15.828 -0.5763  0.3797 -0.0387
 7382TIP3    H243562   6.600   1.045  15.932 -0.0048  0.6612  0.4672
 7383TIP3   OH243563   4.434   1.412  15.830  0.8318  0.1008 -0.2658
 7383TIP3    H143564   4.424   1.334  15.776 -0.5332  0.0473  0.0449
 7383TIP3    H243565   4.528   1.415  15.851  0.8282 -1.6905  0.0877
 7384TIP3   OH243566   6.022   4.917  10.601  0.0169  0.2837  0.1245
 7384TIP3    H143567   6.046   4.835  10.556 -0.1256 -0.6965  1.8056
 7384TIP3    H243568   6.002   4.978  10.530  0.0699 -1.1566 -1.1571
 7385TIP3   OH243569   2.663   5.932  16.234 -0.0512 -0.9323 -0.3093
 7385TIP3    H143570   2.626   6.020  16.236 -1.3704 -1.4763 -0.3718
 7385TIP3    H243571   2.681   5.916  16.142 -1.5179 -1.4122 -0.5287
 7386TIP3   OH243572   0.355   0.151   0.711 -0.0751 -0.0158  0.4165
 7386TIP3    H143573   0.323   0.208   0.780 -0.4781 -0.5511  0.6685
 7386TIP3    H243574   0.307   0.179   0.633 -0.8765 -0.5659  0.7135
 7387TIP3   OH243575   2.761   3.552  16.279 -0.3761 -0.0839  0.2577
 7387TIP3    H143576   2.740   3.573  16.188 -3.7338 -0.5933  0.8431
 7387TIP3    H243577   2.813   3.472  16.273  0.4223  0.5190 -1.2599
 7388TIP3   OH243578   1.801   2.483  13.415  0.3052  0.0088 -0.2625
 7388TIP3    H143579   1.851   2.477  13.333  1.1338  0.3449  0.2162
 7388TIP3    H243580   1.864   2.512  13.480 -0.2882 -0.5220  0.5665
 7389TIP3   OH243581   0.701   4.666  16.366  0.8903 -0.5004  0.3079
 7389TIP3    H143582   0.745   4.644  16.284  0.5637 -0.8553  0.2233
 7389TIP3    H243583   0.769   4.703  16.422  1.2119 -0.6964  0.0401
 7390TIP3   OH243584   5.110   4.193  12.518  0.1244  0.8288 -0.7053
 7390TIP3    H143585   5.084   4.163  12.431  0.3204 -0.1510 -0.4376
 7390TIP3    H243586   5.084   4.121  12.576  1.2412  0.8765 -0.1339
 7391TIP3   OH243587   6.245   5.222  10.217 -0.9101  0.5895 -0.0526
 7391TIP3    H143588   6.225   5.130  10.201 -2.1723  1.2202 -2.2848
 7391TIP3    H243589   6.161   5.261  10.241 -0.2310  1.0210  1.6817
 7392TIP3   OH243590   5.324   5.135  11.372 -0.3412  0.0191 -0.2216
 7392TIP3    H143591   5.328   5.137  11.467  1.0043  1.7972 -0.3009
 7392TIP3    H243592   5.315   5.042  11.350  0.9972 -0.5520  1.5648
 7393TIP3   OH243593   5.020   6.498   5.128  0.1131 -0.1382  1.0443
 7393TIP3    H143594   5.031   6.590   5.152 -0.9755 -0.0206  1.1407
 7393TIP3    H243595   4.939   6.471   5.172 -0.4518 -0.6851 -0.2797
 7394TIP3   OH243596   2.427   1.323  12.131 -0.1965 -0.6998  0.0103
 7394TIP3    H143597   2.520   1.322  12.106 -0.2251 -1.0955 -0.0888
 7394TIP3    H243598   2.428   1.299  12.224 -0.0147  1.7308  0.6729
 7395TIP3   OH243599   4.284   2.799   1.033  0.0872 -0.4090 -0.2344
 7395TIP3    H143600   4.202   2.765   0.998 -0.7802  1.1504  0.2453
 7395TIP3    H243601   4.280   2.893   1.017  0.8613 -0.0304  1.6648
 7396TIP3   OH243602   0.488   3.659   6.024 -0.5134 -0.1083 -0.3181
 7396TIP3    H143603   0.404   3.615   6.015 -0.4272 -0.5317  0.9407
 7396TIP3    H243604   0.467   3.745   6.061 -0.1827 -1.1256  2.3116
 7397TIP3   OH243605   3.689   2.563   1.541  0.3867  0.7792  0.6837
 7397TIP3    H143606   3.716   2.600   1.625  0.8844  0.4470  0.6667
 7397TIP3    H243607   3.623   2.497   1.565  2.0766 -0.8204  0.9735
 7398TIP3   OH243608   4.960   4.281  13.502  0.1319 -0.7292 -0.2712
 7398TIP3    H143609   4.999   4.242  13.423  1.8621  0.1824  0.1216
 7398TIP3    H243610   4.910   4.209  13.541  0.1196 -1.4852 -1.6284
 7399TIP3   OH243611   3.842   4.773  13.613 -0.2332 -0.4233 -0.2554
 7399TIP3    H143612   3.895   4.744  13.687  0.3733  1.2613 -0.0151
 7399TIP3    H243613   3.850   4.703  13.549 -0.1742 -1.5699  0.9631
 7400TIP3   OH243614   6.749   6.778  16.440  0.3071 -0.6943 -0.1438
 7400TIP3    H143615   6.769   6.794  16.348  1.0148 -1.0692 -0.0571
 7400TIP3    H243616   6.830   6.797  16.487 -0.2791  0.2534  0.4957
 7401TIP3   OH243617   0.496   0.121  12.610  0.6005 -0.7633 -0.0972
 7401TIP3    H143618   0.581   0.092  12.643 -0.0844 -0.9206  1.6022
 7401TIP3    H243619   0.444   0.041  12.603 -0.1548 -0.4044  1.1769
 7402TIP3   OH243620   6.239   0.920  15.147  0.2393  0.1435 -0.4503
 7402TIP3    H143621   6.293   0.993  15.116  0.5245 -0.8370 -2.3389
 7402TIP3    H243622   6.299   0.846  15.152 -1.2030 -1.3419 -4.0582
 7403TIP3   OH243623   1.438   1.381  12.188 -0.0158 -0.4238 -0.9505
 7403TIP3    H143624   1.389   1.313  12.235  0.0183 -0.7465 -1.3806
 7403TIP3    H243625   1.482   1.430  12.257 -2.8012  1.3616 -0.3589
 7404TIP3   OH243626   4.834   4.385  12.163  0.1145  0.3763  0.3113
 7404TIP3    H143627   4.742   4.394  12.187 -0.1819 -1.7775  0.0867
 7404TIP3    H243628   4.880   4.382  12.247 -0.1973 -0.1871  0.4649
 7405TIP3   OH243629   2.004   0.420  13.764 -0.1841 -0.1523 -0.1421
 7405TIP3    H143630   2.055   0.484  13.813 -0.1633 -0.0275 -0.3287
 7405TIP3    H243631   2.061   0.343  13.760  0.1268  0.1034 -0.6453
 7406TIP3   OH243632   3.421   3.972  14.155 -0.3797  0.1646  0.9187
 7406TIP3    H143633   3.513   3.974  14.178 -0.2625 -0.9809  0.5839
 7406TIP3    H243634   3.418   3.927  14.070 -1.0729  1.8284  0.0196
 7407TIP3   OH243635   5.117   4.070   3.346 -0.2404  0.4383 -0.4041
 7407TIP3    H143636   5.206   4.042   3.368 -0.4307  0.3037  0.2045
 7407TIP3    H243637   5.101   4.146   3.402 -0.8030 -0.0291  0.0753
 7408TIP3   OH243638   6.101   1.336  15.174  0.3292  0.4464 -0.2972
 7408TIP3    H143639   6.092   1.418  15.224 -0.7813  0.5062 -0.5871
 7408TIP3    H243640   6.192   1.337  15.143 -0.3156  2.6747 -2.2182
 7409TIP3   OH243641   0.124   3.568   3.577  0.3148 -0.2186 -0.3666
 7409TIP3    H143642   0.067   3.570   3.500  0.0750  2.2019 -0.1672
 7409TIP3    H243643   0.100   3.647   3.627  1.2512 -1.1482  1.6080
 7410TIP3   OH243644   6.624   2.470  12.486 -0.0882 -0.0939 -0.5818
 7410TIP3    H143645   6.628   2.562  12.512 -0.4415  0.7058 -3.2231
 7410TIP3    H243646   6.701   2.456  12.432 -2.2005 -0.1592 -3.7047
 7411TIP3   OH243647   3.118   0.769  16.565 -0.2906 -0.1323  0.1905
 7411TIP3    H143648   3.100   0.861  16.585 -1.5075 -0.3592  0.1723
 7411TIP3    H243649   3.041   0.723  16.596 -0.2645 -0.9995 -1.0266
 7412TIP3   OH243650   6.178   5.383   3.836 -0.0897  0.2185  0.7150
 7412TIP3    H143651   6.085   5.377   3.815  0.1649 -1.5485  0.0293
 7412TIP3    H243652   6.181   5.437   3.915 -1.7290 -0.1216  1.0281
 7413TIP3   OH243653   2.804   5.845   3.300  0.1842 -0.4796 -0.4748
 7413TIP3    H143654   2.894   5.853   3.270  0.1628 -0.5368 -0.5558
 7413TIP3    H243655   2.771   5.935   3.301  0.1411 -0.4929 -0.7600
 7414TIP3   OH243656   0.457   0.838  17.135  0.0187 -0.0267  0.1921
 7414TIP3    H143657   0.364   0.850  17.155 -0.0420  1.3650 -0.9237
 7414TIP3    H243658   0.460   0.819  17.041  0.7835 -1.1729  0.4268
 7415TIP3   OH243659   2.473   3.631   4.330  0.1789 -0.2242 -0.4758
 7415TIP3    H143660   2.472   3.720   4.297 -2.6062 -0.0419 -0.0641
 7415TIP3    H243661   2.440   3.638   4.420  0.8127 -1.5523 -0.1229
 7416TIP3   OH243662   5.199   3.309   1.768  0.0154  0.0877  0.0309
 7416TIP3    H143663   5.184   3.220   1.737 -1.2560 -0.0879  1.0903
 7416TIP3    H243664   5.111   3.346   1.778  0.5229  1.3814 -0.1703
 7417TIP3   OH243665   4.440   4.181   2.957 -0.1236 -0.1162  0.5173
 7417TIP3    H143666   4.522   4.228   2.972 -1.2752  2.1402 -0.0160
 7417TIP3    H243667   4.388   4.240   2.902 -1.0864 -2.6345 -1.3785
 7418TIP3   OH243668   6.613   1.348  15.763 -0.3238  0.0192 -0.1027
 7418TIP3    H143669   6.607   1.321  15.671 -1.1584 -1.3184  0.3211
 7418TIP3    H243670   6.552   1.421  15.771 -1.9013 -1.2819 -0.1249
 7419TIP3   OH243671   2.839   1.236   1.326  0.3608 -0.5930  0.9732
 7419TIP3    H143672   2.906   1.274   1.268  0.5925  0.7278  2.0881
 7419TIP3    H243673   2.824   1.303   1.393 -2.6472 -0.5362  0.3203
 7420TIP3   OH243674   0.691   5.801  10.554 -0.2487  0.2893 -0.0009
 7420TIP3    H143675   0.685   5.882  10.605  1.1582  0.9570 -0.8494
 7420TIP3    H243676   0.785   5.787  10.543 -0.4912  1.0454 -3.7382
 7421TIP3   OH243677   2.500   1.474  11.107 -0.5516  0.5261 -0.3728
 7421TIP3    H143678   2.450   1.503  11.031 -0.1417  0.1974 -0.7750
 7421TIP3    H243679   2.549   1.397  11.076 -1.3425 -0.3760  0.5642
 7422TIP3   OH243680   0.345   0.202   4.790  0.0005 -0.2363 -0.6853
 7422TIP3    H143681   0.281   0.246   4.844 -0.5955 -0.6521 -1.0466
 7422TIP3    H243682   0.426   0.252   4.803  0.6211 -1.9740  2.7872
 7423TIP3   OH243683   2.824   4.495  12.478  0.3497 -0.2406 -0.3356
 7423TIP3    H143684   2.778   4.554  12.418 -1.4119 -1.9263 -0.7048
 7423TIP3    H243685   2.817   4.538  12.564  0.7351  0.9894 -0.9188
 7424TIP3   OH243686   2.362   2.123  14.256 -0.1523  0.2117 -0.1458
 7424TIP3    H143687   2.286   2.181  14.253  0.9369  1.6603 -1.1611
 7424TIP3    H243688   2.328   2.037  14.233 -2.0322  0.1499  2.6374
 7425TIP3   OH243689   6.074   3.301   6.675  0.2304 -0.0492 -0.3910
 7425TIP3    H143690   6.111   3.247   6.745 -1.1991 -1.5702 -0.7927
 7425TIP3    H243691   6.103   3.258   6.594  2.2015  1.9139 -0.7942
 7426TIP3   OH243692   3.430   0.972   2.665 -0.2914  0.5317  0.2469
 7426TIP3    H143693   3.413   0.924   2.746  1.2222  1.6685  1.2758
 7426TIP3    H243694   3.344   0.984   2.626 -1.0101 -0.3479  1.5128
 7427TIP3   OH243695   4.800   1.649  13.100  0.0926 -0.0705 -0.3018
 7427TIP3    H143696   4.765   1.595  13.172 -1.5075 -0.7188 -1.5303
 7427TIP3    H243697   4.739   1.723  13.095  1.4211  1.0821  0.3853
 7428TIP3   OH243698   6.466   1.543   1.577  0.6181 -0.1327  0.0229
 7428TIP3    H143699   6.447   1.461   1.531  0.2224 -0.0319  0.0048
 7428TIP3    H243700   6.436   1.529   1.667  0.7564 -0.0865  0.0775
 7429TIP3   OH243701   0.436   3.852   5.533  0.4143  0.1878  0.0050
 7429TIP3    H143702   0.456   3.928   5.479  1.8251 -1.5953 -2.0833
 7429TIP3    H243703   0.520   3.828   5.573 -0.4816  1.0719  2.4939
 7430TIP3   OH243704   0.653   3.438   1.193 -0.0151 -0.3994 -0.0302
 7430TIP3    H143705   0.643   3.515   1.249 -0.5867 -0.8751  0.5296
 7430TIP3    H243706   0.737   3.400   1.219 -1.4717 -2.0934  2.3648
 7431TIP3   OH243707   4.884   3.575   6.037 -0.0058  0.5760  0.6377
 7431TIP3    H143708   4.794   3.558   6.011 -0.1238  0.4056  1.1562
 7431TIP3    H243709   4.878   3.607   6.127  0.4085  1.0794  0.4905
 7432TIP3   OH243710   0.794   2.164   5.479 -0.3927  0.2723  0.2774
 7432TIP3    H143711   0.885   2.182   5.454 -0.8249 -0.1309 -1.6808
 7432TIP3    H243712   0.754   2.251   5.486 -0.0756  0.4203  0.2802
 7433TIP3   OH243713   5.686   3.021   0.734  0.9076  0.4350 -0.3095
 7433TIP3    H143714   5.590   3.028   0.741  0.9381 -0.1652  0.7675
 7433TIP3    H243715   5.709   3.082   0.664 -0.1752  1.2827  0.0491
 7434TIP3   OH243716   4.086   2.882   6.267 -0.1217  0.1378 -0.2891
 7434TIP3    H143717   4.046   2.876   6.354 -1.4594  0.9992 -0.8363
 7434TIP3    H243718   4.118   2.793   6.250 -0.3559 -0.1765  0.8346
 7435TIP3   OH243719   0.434   1.801  11.054 -0.3971  0.3003 -0.3795
 7435TIP3    H143720   0.350   1.807  11.008 -0.7451 -1.3645  0.0081
 7435TIP3    H243721   0.499   1.802  10.984 -0.9022 -1.6206 -0.9079
 7436TIP3   OH243722   2.093   3.359   5.672  0.3985 -0.6745  0.1118
 7436TIP3    H143723   2.153   3.286   5.686  1.1788  0.2454  1.6964
 7436TIP3    H243724   2.056   3.377   5.759  0.4415  1.0056 -0.2083
 7437TIP3   OH243725   5.608   2.475  11.662  0.0433  0.1925  0.2671
 7437TIP3    H143726   5.550   2.470  11.739 -1.9784  0.9390 -1.1544
 7437TIP3    H243727   5.608   2.567  11.639  0.3583 -0.0820 -0.8271
 7438TIP3   OH243728   0.734   5.474  14.745  0.6938  0.0074  0.7811
 7438TIP3    H143729   0.680   5.415  14.796  1.5509 -4.2862 -2.9555
 7438TIP3    H243730   0.672   5.530  14.699 -0.2524  0.1105  2.1811
 7439TIP3   OH243731   6.530   0.096   4.511  0.0938 -0.1458 -0.0563
 7439TIP3    H143732   6.499   0.135   4.430 -0.2975  0.7533  0.5158
 7439TIP3    H243733   6.514   0.002   4.501  0.1233 -0.0473 -1.0431
 7440TIP3   OH243734   0.307   3.408   5.162 -0.6826  0.0076 -0.2754
 7440TIP3    H143735   0.288   3.315   5.173 -2.2908  0.1996 -1.2622
 7440TIP3    H243736   0.238   3.440   5.103 -0.0872  1.7966 -0.0353
 7441TIP3   OH243737   3.397   0.388   0.905 -0.0295 -0.0006  0.5344
 7441TIP3    H143738   3.434   0.390   0.993 -1.1586  0.3417  1.0117
 7441TIP3    H243739   3.472   0.373   0.848  0.6156 -0.9946  1.6093
 7442TIP3   OH243740   2.912   3.212   2.177 -0.5176  0.0762  0.0099
 7442TIP3    H143741   2.947   3.224   2.089  1.8298 -1.7715  0.6590
 7442TIP3    H243742   2.861   3.131   2.172 -0.3558 -0.0476  0.3527
 7443TIP3   OH243743   6.142   3.490   4.177 -0.8006 -0.0303 -0.0008
 7443TIP3    H143744   6.182   3.439   4.248 -2.1331  0.1629  0.9159
 7443TIP3    H243745   6.183   3.577   4.184 -1.6901  0.3071  1.2278
 7444TIP3   OH243746   2.487   1.288  17.065  0.2327 -0.8543 -0.1851
 7444TIP3    H143747   2.496   1.382  17.081  1.3813 -1.0978  0.6543
 7444TIP3    H243748   2.434   1.257  17.138  1.2360 -1.1201  0.4451
 7445TIP3   OH243749   1.516   0.561  14.533 -0.1712  0.6688 -0.3112
 7445TIP3    H143750   1.471   0.484  14.499  1.0216 -0.2988  0.2529
 7445TIP3    H243751   1.598   0.527  14.569 -0.2456  2.0124  1.1887
 7446TIP3   OH243752   5.899   1.652  11.068  0.0816 -0.3628  0.4046
 7446TIP3    H143753   5.842   1.688  11.000 -0.6779 -0.4340  0.9911
 7446TIP3    H243754   5.942   1.728  11.106  1.9584 -0.4666 -1.4029
 7447TIP3   OH243755   0.126   2.837   2.469  0.2543 -0.2781  0.7550
 7447TIP3    H143756   0.164   2.924   2.469  1.1485 -0.6596  1.5159
 7447TIP3    H243757   0.096   2.824   2.560 -1.4821 -0.0695  0.2253
 7448TIP3   OH243758   2.229   2.941  11.363  0.2328 -0.2843  0.4297
 7448TIP3    H143759   2.259   3.032  11.358  0.1724 -0.0837  3.0372
 7448TIP3    H243760   2.261   2.901  11.282  0.5666  1.9606 -0.5881
 7449TIP3   OH243761   6.029   3.314  14.302  0.0335  0.1135  0.3196
 7449TIP3    H143762   6.058   3.265  14.379 -0.6761  0.2597  0.6824
 7449TIP3    H243763   5.967   3.378  14.336 -1.6415 -0.9749 -0.5972
 7450TIP3   OH243764   3.450   5.877  17.107 -0.4427 -0.1433  0.5269
 7450TIP3    H143765   3.460   5.909  17.197 -0.4945 -0.0691  0.5056
 7450TIP3    H243766   3.356   5.889  17.088 -0.1909  1.0468  0.0083
 7451TIP3   OH243767   3.558   2.882  12.503 -0.1966 -0.2061 -0.6470
 7451TIP3    H143768   3.610   2.812  12.463 -0.9524 -1.3429  0.3439
 7451TIP3    H243769   3.502   2.837  12.566 -0.9124  1.2630 -0.2287
 7452TIP3   OH243770   6.623   6.384  11.673  0.0155  0.4728  0.1820
 7452TIP3    H143771   6.568   6.330  11.616 -1.9848  0.8390  1.7209
 7452TIP3    H243772   6.585   6.471  11.668  1.8861  1.2813 -0.5234
 7453TIP3   OH243773   0.355   2.895  17.177  0.0003 -0.4463 -0.1129
 7453TIP3    H143774   0.392   2.814  17.212 -0.8364 -0.9243 -0.3279
 7453TIP3    H243775   0.261   2.880  17.177 -0.1399  0.4331 -0.3991
 7454TIP3   OH243776   4.561   1.283  13.777 -0.2817  0.3524 -0.5320
 7454TIP3    H143777   4.522   1.371  13.773  0.4805  0.7093 -0.2518
 7454TIP3    H243778   4.488   1.224  13.759 -1.0725  0.9854  0.5202
 7455TIP3   OH243779   4.321   5.560  10.498 -0.5252 -0.3305 -0.0888
 7455TIP3    H143780   4.338   5.578  10.406 -0.4018 -0.6404 -0.1263
 7455TIP3    H243781   4.227   5.540  10.502 -0.6111  0.0602 -0.0862
 7456TIP3   OH243782   1.627   1.969   5.510 -0.2503 -0.5006 -0.5582
 7456TIP3    H143783   1.673   2.017   5.578  0.1415 -2.2405  0.4309
 7456TIP3    H243784   1.658   2.008   5.428  0.9050  0.1728  0.1823
 7457TIP3   OH243785   2.084   0.120   3.801 -0.2038 -0.7470  0.0733
 7457TIP3    H143786   2.075   0.056   3.872 -0.3597 -1.5910 -0.6991
 7457TIP3    H243787   2.166   0.166   3.820 -1.7322  1.1560  2.4825
 7458TIP3   OH243788   6.471   3.760   6.067 -0.2707 -0.0677  0.2352
 7458TIP3    H143789   6.476   3.800   6.154 -0.2472  2.2414 -0.7791
 7458TIP3    H243790   6.378   3.762   6.045 -0.0245  1.5339 -0.7389
 7459TIP3   OH243791   1.755   5.531   5.694  0.1185 -0.0986  0.0408
 7459TIP3    H143792   1.722   5.551   5.781  1.0708  1.6275  0.0410
 7459TIP3    H243793   1.845   5.501   5.708  0.3699  0.4510 -0.3606
 7460TIP3   OH243794   1.591   4.998  15.445 -0.1249  0.0913 -0.3990
 7460TIP3    H143795   1.496   4.998  15.439 -0.0428  2.2506 -2.1493
 7460TIP3    H243796   1.615   5.090  15.459  1.7747 -0.1515 -1.7955
 7461TIP3   OH243797   5.109   1.009   1.503 -0.0944 -0.0623 -0.4786
 7461TIP3    H143798   5.168   1.020   1.428 -0.9796 -0.3583 -1.2424
 7461TIP3    H243799   5.043   0.946   1.471  2.0667 -3.8087  2.0360
 7462TIP3   OH243800   2.608   6.786   2.187  0.2423  0.4775  0.4986
 7462TIP3    H143801   2.684   6.800   2.243 -0.5839  3.1325  1.0037
 7462TIP3    H243802   2.535   6.826   2.235 -1.3970 -1.5468 -0.2206
 7463TIP3   OH243803   2.148   6.031  15.090  0.2467  0.1870  0.1582
 7463TIP3    H143804   2.166   6.124  15.080 -0.2835  0.2198 -0.4828
 7463TIP3    H243805   2.125   6.020  15.182  1.1056  0.5515  0.4267
 7464TIP3   OH243806   1.840   1.528  13.488  0.2146  0.0546  0.3726
 7464TIP3    H143807   1.815   1.587  13.417  0.7724  0.4658  0.5108
 7464TIP3    H243808   1.853   1.443  13.446 -0.5697  0.0327  0.1681
 7465TIP3   OH243809   2.756   1.730  15.790 -0.2424 -0.4829  0.0552
 7465TIP3    H143810   2.686   1.786  15.823 -0.4494  0.3855 -1.8254
 7465TIP3    H243811   2.831   1.790  15.780  0.0152 -0.8784 -0.3944
 7466TIP3   OH243812   0.187   6.630   0.476  0.4825  0.2696 -0.0938
 7466TIP3    H143813   0.189   6.693   0.404 -2.3705  0.3535 -0.1286
 7466TIP3    H243814   0.171   6.682   0.554 -0.1705 -0.2264  0.1099
 7467TIP3   OH243815   6.464   5.242  11.298  0.1034  0.4910  0.5926
 7467TIP3    H143816   6.470   5.155  11.257 -1.3779  0.4387  0.4422
 7467TIP3    H243817   6.461   5.303  11.225 -2.3779  0.4092  0.5581
 7468TIP3   OH243818   1.285   1.871   3.225 -0.5177  0.3935 -0.4794
 7468TIP3    H143819   1.242   1.796   3.183 -0.4490  1.2047 -2.0255
 7468TIP3    H243820   1.359   1.832   3.272 -0.0514 -0.4613 -1.8673
 7469TIP3   OH243821   4.757   5.432   3.515 -0.3954 -0.3324 -0.1205
 7469TIP3    H143822   4.726   5.347   3.483  0.3011 -0.3468 -0.7718
 7469TIP3    H243823   4.686   5.464   3.571 -1.0230 -0.9547 -0.5539
 7470TIP3   OH243824   4.715   1.491  16.124 -0.4499  0.0244 -0.1633
 7470TIP3    H143825   4.716   1.494  16.028 -1.0413 -0.2889 -0.1906
 7470TIP3    H243826   4.759   1.408  16.145 -2.3706 -1.0659 -0.2702
 7471TIP3   OH243827   0.130   1.258   3.367  0.2985 -0.1227 -0.5167
 7471TIP3    H143828   0.175   1.174   3.360  2.7682  1.1296 -0.2563
 7471TIP3    H243829   0.130   1.293   3.278 -0.8386 -0.4315 -0.6473
 7472TIP3   OH243830   3.370   6.242   0.192 -0.1468 -0.3130 -0.2711
 7472TIP3    H143831   3.326   6.270   0.272  0.6568 -1.1835  0.4792
 7472TIP3    H243832   3.402   6.324   0.153 -1.3863  0.2098 -0.2287
 7473TIP3   OH243833   3.218   2.368   2.088  0.0493  0.3812  0.1276
 7473TIP3    H143834   3.179   2.456   2.082 -0.1115  0.3410  0.5272
 7473TIP3    H243835   3.190   2.336   2.174 -1.8562 -0.9973 -0.9677
 7474TIP3   OH243836   2.735   2.272  15.168 -0.0588 -0.0354  0.6546
 7474TIP3    H143837   2.648   2.294  15.202 -0.1097  0.0755  0.4545
 7474TIP3    H243838   2.717   2.216  15.093  0.0888 -1.3272  1.5655
 7475TIP3   OH243839   1.277   5.011   1.171  0.4111  0.3075  0.4004
 7475TIP3    H143840   1.341   5.079   1.155 -0.1560  0.2628 -2.4452
 7475TIP3    H243841   1.196   5.045   1.132 -0.2306 -1.3351  0.2485
 7476TIP3   OH243842   2.317   4.385   6.615 -0.5711 -0.2785 -0.4247
 7476TIP3    H143843   2.399   4.370   6.569 -0.3456  0.7358 -0.3609
 7476TIP3    H243844   2.269   4.446   6.560 -1.4123 -1.0970 -0.6099
 7477TIP3   OH243845   1.044   6.276  14.475 -0.5220 -0.0243 -0.0859
 7477TIP3    H143846   1.027   6.370  14.466  0.9680  0.5018  2.2268
 7477TIP3    H243847   0.962   6.239  14.506 -1.1093  0.4999 -0.9948
 7478TIP3   OH243848   5.528   1.174   4.213 -0.2194  0.8617  0.0367
 7478TIP3    H143849   5.507   1.152   4.122 -2.7479  1.1464  0.4924
 7478TIP3    H243850   5.509   1.267   4.220 -1.4537  0.5539  1.1782
 7479TIP3   OH243851   5.486   1.529   6.144  0.0506 -0.7481 -0.1982
 7479TIP3    H143852   5.431   1.487   6.210  0.0767 -1.4110 -0.6005
 7479TIP3    H243853   5.474   1.623   6.159  0.2314 -0.9004  0.8950
 7480TIP3   OH243854   6.122   4.788  10.827  0.2275 -0.0087 -0.3097
 7480TIP3    H143855   6.094   4.822  10.742 -1.2060  0.1462  0.2156
 7480TIP3    H243856   6.044   4.792  10.882  1.0266 -0.5286  0.8934
 7481TIP3   OH243857   5.497   6.336   0.883 -0.2121  0.6310 -0.2412
 7481TIP3    H143858   5.520   6.341   0.790  0.0590 -1.6946 -0.3221
 7481TIP3    H243859   5.406   6.308   0.883 -1.0688  3.2437  0.1937
 7482TIP3   OH243860   3.453   4.448  12.917 -0.1034  0.2439  0.0749
 7482TIP3    H143861   3.535   4.491  12.941  0.9981 -0.8347 -1.6656
 7482TIP3    H243862   3.405   4.439  13.000  1.4019  1.1440  1.0565
 7483TIP3   OH243863   5.047   1.906   3.094 -0.3825  0.5137  0.8393
 7483TIP3    H143864   5.027   1.882   3.184  1.3705 -0.6905  0.9095
 7483TIP3    H243865   5.141   1.895   3.085 -0.4209  1.3135 -0.9448
 7484TIP3   OH243866   0.804   3.840   2.522  0.4074 -0.4672 -0.2295
 7484TIP3    H143867   0.789   3.888   2.604 -0.8511  0.5273 -1.0209
 7484TIP3    H243868   0.877   3.886   2.481  0.5763 -0.5255  0.0076
 7485TIP3   OH243869   4.826   0.482  12.818  0.0276 -0.7209  0.7977
 7485TIP3    H143870   4.736   0.507  12.839 -0.4955  1.8711 -3.8768
 7485TIP3    H243871   4.879   0.554  12.854 -0.1341 -0.2918  0.1833
 7486TIP3   OH243872   5.775   3.181  15.673 -0.5725  0.1415  0.4748
 7486TIP3    H143873   5.797   3.188  15.766  0.6280 -0.1433  0.2196
 7486TIP3    H243874   5.779   3.271  15.640  0.8328  0.0247  0.3005
 7487TIP3   OH243875   0.838   4.038   4.827  0.2985  0.0240  0.0838
 7487TIP3    H143876   0.773   3.986   4.780 -1.1392  1.6869  0.2069
 7487TIP3    H243877   0.912   4.044   4.766  0.1371 -1.3753 -0.2828
 7488TIP3   OH243878   0.830   6.698   5.305 -0.6328  0.1548 -0.8361
 7488TIP3    H143879   0.901   6.673   5.247  0.5913  0.9312  0.2815
 7488TIP3    H243880   0.772   6.622   5.306  0.4874 -0.7260 -1.3049
 7489TIP3   OH243881   3.736   3.902   5.174 -0.5791  0.0609 -0.2054
 7489TIP3    H143882   3.777   3.824   5.138  0.2632  0.6948 -0.6364
 7489TIP3    H243883   3.805   3.968   5.174 -1.6225  1.1856 -1.0502
 7490TIP3   OH243884   5.677   2.626   4.772  0.1190  0.2724  0.1075
 7490TIP3    H143885   5.624   2.593   4.700  0.2016 -0.7644  0.5191
 7490TIP3    H243886   5.768   2.617   4.742  0.0761  2.5427 -0.8130
 7491TIP3   OH243887   1.294   5.907   3.540  0.1892  0.0851 -0.0371
 7491TIP3    H143888   1.353   5.973   3.504 -0.7433  0.1921 -1.4085
 7491TIP3    H243889   1.210   5.924   3.497 -0.7129 -0.3925  1.4882
 7492TIP3   OH243890   1.086   3.265  15.387 -0.2475  0.9328  0.5858
 7492TIP3    H143891   1.050   3.350  15.415 -0.7381  0.9926 -0.2304
 7492TIP3    H243892   1.136   3.285  15.308 -0.2627  0.4740  0.4600
 7493TIP3   OH243893   3.061   0.144  13.931  0.4553  0.0023  0.1494
 7493TIP3    H143894   3.080   0.056  13.962  4.0843  0.0632 -1.6430
 7493TIP3    H243895   3.147   0.184  13.917 -1.0964  2.9446 -1.5394
 7494TIP3   OH243896   3.782   6.733  15.680  0.3326 -0.2605  0.0411
 7494TIP3    H143897   3.715   6.791  15.644  1.0427  0.7708  0.3763
 7494TIP3    H243898   3.864   6.768  15.646  0.9216  0.0578  1.7775
 7495TIP3   OH243899   6.062   1.393  12.052 -0.4850 -0.5762 -0.1951
 7495TIP3    H143900   6.043   1.461  12.116  2.2969  1.0289 -1.0139
 7495TIP3    H243901   6.038   1.432  11.968  2.2647 -0.0848 -0.7953
 7496TIP3   OH243902   2.357   3.630  12.645  0.1135  0.2184 -0.0073
 7496TIP3    H143903   2.427   3.685  12.610 -1.6228  2.4177 -0.1598
 7496TIP3    H243904   2.326   3.580  12.569 -0.3799  1.3531 -0.5583
 7497TIP3   OH243905   2.894   4.419   3.340  0.1137 -0.0045  0.2382
 7497TIP3    H143906   2.872   4.463   3.422  0.4755 -0.6485  0.6842
 7497TIP3    H243907   2.925   4.489   3.282  2.2388  0.1122  1.4690
 7498TIP3   OH243908   3.868   4.065  13.944 -0.5657 -0.4662  0.2385
 7498TIP3    H143909   3.893   3.973  13.951 -0.1281 -0.3450  0.2975
 7498TIP3    H243910   3.859   4.095  14.035  1.1590  0.0465  0.2615
 7499TIP3   OH243911   6.053   0.822   1.430  0.3792  0.4880  0.3558
 7499TIP3    H143912   6.081   0.898   1.379  2.3804  1.0279  2.1682
 7499TIP3    H243913   5.984   0.856   1.488  0.3318  0.6046  0.2302
 7500TIP3   OH243914   4.555   3.811   1.019  0.3700  0.1366  0.7308
 7500TIP3    H143915   4.470   3.793   1.057  0.8881 -0.7828  1.4630
 7500TIP3    H243916   4.599   3.866   1.084  0.8319 -0.4990  0.9606
 7501TIP3   OH243917   2.021   6.122  12.234 -0.7158 -0.0551 -0.3927
 7501TIP3    H143918   2.057   6.040  12.267 -1.1181  0.1578  0.5948
 7501TIP3    H243919   2.095   6.183  12.236 -0.8902  0.1262  0.7214
 7502TIP3   OH243920   4.321   6.025   4.468 -0.2260 -0.2359 -0.7363
 7502TIP3    H143921   4.359   6.064   4.547 -1.1070 -1.1299  0.1535
 7502TIP3    H243922   4.233   5.999   4.495 -0.7004 -0.1188 -2.1602
 7503TIP3   OH243923   2.807   5.208  16.771  0.7260  0.0164  0.4159
 7503TIP3    H143924   2.830   5.121  16.736  0.6888  0.6690 -1.3120
 7503TIP3    H243925   2.866   5.268  16.726 -0.3694  1.0596  0.3298
 7504TIP3   OH243926   3.777   1.800  11.946 -0.2459  0.1776 -0.0977
 7504TIP3    H143927   3.805   1.711  11.924  2.2296  0.4660  1.6905
 7504TIP3    H243928   3.737   1.833  11.865 -0.0200 -2.0806 -1.1763
 7505TIP3   OH243929   4.776   0.950   3.864  0.2263 -0.5481 -0.0962
 7505TIP3    H143930   4.821   0.940   3.948 -1.6812 -2.5130  0.7346
 7505TIP3    H243931   4.719   1.025   3.877  0.4853 -0.3813  0.0984
 7506TIP3   OH243932   3.902   4.287   1.206 -0.2734 -0.2585  0.3259
 7506TIP3    H143933   3.856   4.264   1.286  0.5483 -0.7059  0.6740
 7506TIP3    H243934   3.843   4.260   1.135  0.3941 -2.9245  0.7177
 7507TIP3   OH243935   3.105   1.912   5.965  0.1734 -0.0499  0.5353
 7507TIP3    H143936   3.200   1.905   5.960  0.1549  0.1309 -0.0956
 7507TIP3    H243937   3.074   1.882   5.880 -0.3119  0.2581  0.6001
 7508TIP3   OH243938   3.455   1.727  12.736 -0.1075 -0.7943 -0.5208
 7508TIP3    H143939   3.399   1.803  12.720  2.2260  1.0854 -0.0611
 7508TIP3    H243940   3.447   1.710  12.829 -0.4122 -0.9390 -0.5735
 7509TIP3   OH243941   4.903   0.171   3.119  0.0180 -0.2036  0.2029
 7509TIP3    H143942   4.820   0.195   3.159  0.2372 -0.1878  0.6516
 7509TIP3    H243943   4.964   0.239   3.146 -0.4718  1.3441 -2.4488
 7510TIP3   OH243944   3.549   4.138   0.561  0.0007 -0.0988 -0.3046
 7510TIP3    H143945   3.584   4.114   0.647 -2.2778  0.0647  0.6957
 7510TIP3    H243946   3.595   4.080   0.500  1.5346 -0.3167  1.0184
 7511TIP3   OH243947   0.746   1.606  14.969  0.1451  0.3860 -0.3550
 7511TIP3    H143948   0.651   1.593  14.959  0.0934 -0.3374  0.9719
 7511TIP3    H243949   0.780   1.518  14.985  0.7411  0.9373  1.4765
 7512TIP3   OH243950   4.282   6.667  12.767  0.5145  0.7049  0.2400
 7512TIP3    H143951   4.217   6.608  12.730  1.7179 -0.2667 -0.3628
 7512TIP3    H243952   4.271   6.749  12.718 -0.7195  0.7794  0.6285
 7513TIP3   OH243953   0.763   3.734  15.460  0.3911  0.0788 -0.2317
 7513TIP3    H143954   0.697   3.802  15.454  1.3642  1.0368 -0.2068
 7513TIP3    H243955   0.761   3.690  15.375 -0.8865 -0.4857  0.0764
 7514TIP3   OH243956   1.875   1.062  16.059 -0.1387 -0.0466 -0.1152
 7514TIP3    H143957   1.794   1.081  16.012 -0.5752  1.2289  1.1548
 7514TIP3    H243958   1.936   1.036  15.990 -0.9922  1.0851 -1.3223
 7515TIP3   OH243959   4.891   6.429  12.841  0.4372  0.0571  0.9968
 7515TIP3    H143960   4.872   6.382  12.759  0.3800  1.9393 -0.0985
 7515TIP3    H243961   4.848   6.377  12.909  1.5134 -2.2062 -0.0108
 7516TIP3   OH243962   2.966   6.154   3.026 -0.1559  0.1958 -0.6167
 7516TIP3    H143963   2.895   6.124   2.970 -0.2364 -0.2989 -0.2486
 7516TIP3    H243964   2.941   6.243   3.051 -0.5103  0.1185 -0.6998
 7517TIP3   OH243965   3.229   0.407  16.765  0.5736  0.2249 -0.3325
 7517TIP3    H143966   3.263   0.464  16.696  1.8051 -1.3883 -1.1020
 7517TIP3    H243967   3.299   0.343  16.780  0.0012  0.0450  1.8478
 7518TIP3   OH243968   0.742   4.334   0.400  0.1173 -0.2164  0.2189
 7518TIP3    H143969   0.693   4.381   0.467 -1.9760 -1.4648 -0.4155
 7518TIP3    H243970   0.801   4.400   0.363  0.5410  0.7442  2.5322
 7519TIP3   OH243971   6.687   2.051  15.740  0.3903  0.4396 -0.1403
 7519TIP3    H143972   6.631   1.981  15.775 -0.3586  1.0347 -0.1386
 7519TIP3    H243973   6.673   2.047  15.645 -1.0208  1.7264 -0.0060
 7520TIP3   OH243974   1.345   0.829   1.409  0.3629 -0.0015 -0.2559
 7520TIP3    H143975   1.387   0.745   1.428  0.3780  0.0467 -0.0693
 7520TIP3    H243976   1.409   0.876   1.356  0.8638  0.3653  0.6556
 7521TIP3   OH243977   3.035   6.097   3.398  0.0258 -0.3686 -0.3785
 7521TIP3    H143978   3.098   6.026   3.412 -1.1952 -1.4890 -0.5020
 7521TIP3    H243979   2.957   6.069   3.445  0.2536  1.9283  1.4217
 7522TIP3   OH243980   2.906   0.453  14.852 -0.7330 -0.2381 -0.4656
 7522TIP3    H143981   2.834   0.411  14.899  1.8409 -0.6189  3.4321
 7522TIP3    H243982   2.913   0.540  14.892  0.9650 -0.2269 -0.7352
 7523TIP3   OH243983   6.006   4.637  14.124 -0.4609  0.4384 -0.1327
 7523TIP3    H143984   5.954   4.574  14.175 -0.0131 -0.3151 -0.6031
 7523TIP3    H243985   5.952   4.716  14.122 -1.5185 -0.2931 -0.4871
 7524TIP3   OH243986   3.777   0.517   1.138  0.4424  0.5670 -0.3389
 7524TIP3    H143987   3.766   0.425   1.115 -1.1144 -0.1625  2.9154
 7524TIP3    H243988   3.856   0.519   1.191 -0.4504  0.7641  1.0272
 7525TIP3   OH243989   4.419   6.278   3.139 -0.3022 -0.4340  0.8509
 7525TIP3    H143990   4.469   6.207   3.178  0.3986 -0.4091  0.0345
 7525TIP3    H243991   4.481   6.352   3.136 -0.5181 -0.2719  0.2351
 7526TIP3   OH243992   6.254   4.691   3.034  0.5454  0.0663 -0.1738
 7526TIP3    H143993   6.287   4.776   3.004 -0.1557 -0.4373 -2.5193
 7526TIP3    H243994   6.208   4.710   3.116  1.7976  1.6581  0.1802
 7527TIP3   OH243995   6.023   4.965  13.835 -0.6507  0.3287  0.0748
 7527TIP3    H143996   6.088   4.944  13.902 -0.0968 -0.8230 -0.8317
 7527TIP3    H243997   5.943   4.982  13.885 -0.2923 -0.7364  1.0331
 7528TIP3   OH243998   2.764   5.092  11.064 -0.4065  0.4921  0.3604
 7528TIP3    H143999   2.851   5.130  11.072 -0.7033  1.3972 -0.5767
 7528TIP3    H244000   2.766   5.042  10.982 -0.9933  1.1331 -0.0490
 7529TIP3   OH244001   4.338   4.337  14.967 -0.4327  0.1390  0.0117
 7529TIP3    H144002   4.323   4.404  14.899 -3.1187 -1.4660 -1.0750
 7529TIP3    H244003   4.349   4.388  15.047 -1.4960  1.9693 -0.9425
 7530TIP3   OH244004   6.659   4.506   2.489  0.2444  0.4760  0.1891
 7530TIP3    H144005   6.647   4.468   2.576 -0.9061  0.6841  0.1168
 7530TIP3    H244006   6.594   4.463   2.434 -0.9283  2.3787  0.0449
 7531TIP3   OH244007   5.874   3.259   4.649 -0.0687 -0.2030  0.2447
 7531TIP3    H144008   5.911   3.179   4.685 -1.2107 -0.1597  1.5073
 7531TIP3    H244009   5.853   3.313   4.725 -0.9644  0.5577 -0.5264
 7532TIP3   OH244010   0.377   1.954  12.547  0.6065  0.8402 -0.3621
 7532TIP3    H144011   0.454   1.917  12.591 -0.4625 -1.5779 -0.4411
 7532TIP3    H244012   0.383   2.048  12.564  1.8946  0.3419  2.2758
 7533TIP3   OH244013   1.606   0.139   1.258 -0.1244 -0.0104 -0.2080
 7533TIP3    H144014   1.560   0.200   1.201  0.8307 -1.8149 -3.0227
 7533TIP3    H244015   1.653   0.194   1.321 -0.8463  2.0508 -1.4533
 7534TIP3   OH244016   1.686   2.409   5.874 -0.3490 -0.0381  0.1845
 7534TIP3    H144017   1.765   2.418   5.820 -0.1156  0.0676  0.5404
 7534TIP3    H244018   1.617   2.450   5.823  0.1537  1.3620  0.5896
 7535TIP3   OH244019   4.441   4.345   3.898 -0.1142 -0.1048  0.1105
 7535TIP3    H144020   4.527   4.335   3.938 -0.0366  1.4376  0.3758
 7535TIP3    H244021   4.394   4.405   3.957 -0.1659  1.7955 -1.7935
 7536TIP3   OH244022   0.494   1.613   1.289  0.0312 -0.0917 -0.2546
 7536TIP3    H144023   0.474   1.703   1.315  0.0529  0.1644 -1.1344
 7536TIP3    H244024   0.462   1.560   1.362  0.6657  0.6738  0.6032
 7537TIP3   OH244025   2.496   4.870  15.509 -0.0796 -0.3590 -0.0378
 7537TIP3    H144026   2.477   4.778  15.527 -0.5094 -0.1065  0.8194
 7537TIP3    H244027   2.523   4.871  15.417 -0.8191 -1.2327 -0.2767
 7538TIP3   OH244028   5.623   0.646   5.915  0.1132  0.5255 -0.1019
 7538TIP3    H144029   5.549   0.683   5.866 -2.3799  0.7672  3.6763
 7538TIP3    H244030   5.617   0.552   5.900 -0.9285  0.5539  0.0746
 7539TIP3   OH244031   6.595   1.221  15.461  0.8653  0.2645 -0.0502
 7539TIP3    H144032   6.675   1.249  15.506  1.0363 -0.5130  0.1395
 7539TIP3    H244033   6.580   1.288  15.394  0.4552  1.5886  1.3371
 7540TIP3   OH244034   6.651   1.899   3.896 -0.5857  0.5353  0.0154
 7540TIP3    H144035   6.587   1.960   3.933 -2.3313 -1.3425  0.1955
 7540TIP3    H244036   6.719   1.892   3.963 -1.6442  0.3604  1.0852
 7541TIP3   OH244037   5.759   4.381  12.592 -0.1168 -0.4816 -0.9315
 7541TIP3    H144038   5.690   4.430  12.637  0.5535 -0.2002 -0.1953
 7541TIP3    H244039   5.839   4.429  12.611  0.4426 -1.4347 -0.8251
 7542TIP3   OH244040   6.080   5.245  14.642  0.1116 -0.0717 -0.0904
 7542TIP3    H144041   6.027   5.307  14.692  2.4606  1.3093  0.7468
 7542TIP3    H244042   6.115   5.185  14.709  2.4478  1.1668 -0.1809
 7543TIP3   OH244043   4.919   6.067  14.786  0.5079 -0.3509  0.3716
 7543TIP3    H144044   4.995   6.017  14.814  1.7662  0.5471 -1.3129
 7543TIP3    H244045   4.908   6.044  14.693  0.1949  1.3114 -0.0226
 7544TIP3   OH244046   5.556   3.744   1.383  0.0373 -0.2725 -0.0599
 7544TIP3    H144047   5.598   3.716   1.302 -0.4455  1.1873 -0.8347
 7544TIP3    H244048   5.470   3.701   1.382 -1.6722  2.9518 -2.4126
 7545TIP3   OH244049   2.677   5.796   0.268  0.2773 -0.1190  0.0648
 7545TIP3    H144050   2.707   5.744   0.343 -1.1623 -0.8096  0.1945
 7545TIP3    H244051   2.732   5.768   0.195 -1.4772 -3.0032 -0.2257
 7546TIP3   OH244052   0.994   5.053  12.308  0.0600 -0.0428 -0.1973
 7546TIP3    H144053   0.930   5.027  12.373  1.1341 -1.2124  0.4268
 7546TIP3    H244054   0.969   5.142  12.283 -2.1495 -0.7164 -0.4378
 7547TIP3   OH244055   2.265   0.852   0.991  0.1958 -0.3083 -0.3416
 7547TIP3    H144056   2.278   0.843   0.896  0.2003 -0.0010 -0.3704
 7547TIP3    H244057   2.351   0.879   1.024  0.7573 -2.4729  0.0293
 7548TIP3   OH244058   1.586   3.885  10.771 -0.1254 -0.1989 -0.0845
 7548TIP3    H144059   1.613   3.861  10.859 -1.0386  0.6612  0.4473
 7548TIP3    H244060   1.639   3.961  10.749  0.7562 -0.9776 -0.6398
 7549TIP3   OH244061   1.018   5.824  16.802 -0.2325  0.4876  0.3860
 7549TIP3    H144062   1.084   5.755  16.797 -0.1435  0.5165  1.0953
 7549TIP3    H244063   0.935   5.778  16.814 -0.0956  0.5259  1.4988
 7550TIP3   OH244064   5.630   4.523  10.592  0.0187 -0.0837 -0.2060
 7550TIP3    H144065   5.710   4.504  10.640 -0.4315  0.3441  0.7226
 7550TIP3    H244066   5.570   4.452  10.616  0.0996 -0.3793 -0.8643
 7551TIP3   OH244067   2.486   5.185  11.522  0.6251 -0.6454 -0.1075
 7551TIP3    H144068   2.580   5.172  11.524  0.6899 -0.5645 -1.8248
 7551TIP3    H244069   2.474   5.280  11.522  0.4886 -0.6469  1.3111
 7552TIP3   OH244070   6.739   1.054  11.397 -0.0867  0.2525  0.8284
 7552TIP3    H144071   6.757   0.962  11.416  0.2632  0.2032  0.2781
 7552TIP3    H244072   6.744   1.059  11.301  1.6071  1.2112  0.9627
 7553TIP3   OH244073   2.818   1.615   4.133 -0.5513  0.0050  0.2973
 7553TIP3    H144074   2.847   1.700   4.168  2.0924 -0.9990  0.6821
 7553TIP3    H244075   2.779   1.570   4.208 -0.8675  0.4167  0.3794
 7554TIP3   OH244076   4.668   1.905  13.101 -0.2091 -0.6893  0.1577
 7554TIP3    H144077   4.584   1.920  13.145 -0.4800 -1.6313 -0.0169
 7554TIP3    H244078   4.724   1.976  13.131 -1.2797  0.3527 -0.2748
 7555TIP3   OH244079   4.786   2.745  16.854  0.3677 -0.4643  0.6543
 7555TIP3    H144080   4.718   2.806  16.826  0.3223 -1.0430 -0.5546
 7555TIP3    H244081   4.739   2.676  16.901  0.0864 -0.9173 -0.2667
 7556TIP3   OH244082   0.019   2.559  16.717 -0.0256 -0.3672  0.2648
 7556TIP3    H144083   0.104   2.600  16.701 -0.1824 -0.5954 -1.1984
 7556TIP3    H244084  -0.044   2.617  16.675 -0.5707 -0.3609  1.0806
 7557TIP3   OH244085   3.647   5.702   0.504 -0.4691  0.3741  0.5405
 7557TIP3    H144086   3.665   5.618   0.545 -0.7921  0.6878  1.3359
 7557TIP3    H244087   3.734   5.740   0.488 -0.2753 -0.7025 -1.0999
 7558TIP3   OH244088   0.124   1.874   5.176  0.1698  0.2713 -0.1235
 7558TIP3    H144089   0.202   1.930   5.177 -0.3589  1.0095  0.6765
 7558TIP3    H244090   0.139   1.809   5.244  1.4184 -1.4677 -2.0172
 7559TIP3   OH244091   2.645   3.543  12.685  0.2010  0.0002  0.1982
 7559TIP3    H144092   2.633   3.543  12.590  1.4270 -1.0338  0.0430
 7559TIP3    H244093   2.555   3.540  12.720 -0.3076  1.5882 -0.9005
 7560TIP3   OH244094   0.835   1.090   2.591 -0.0136 -0.5425  0.2050
 7560TIP3    H144095   0.789   1.052   2.666  0.3151  0.0037  0.6876
 7560TIP3    H244096   0.782   1.165   2.565  0.0001 -0.5877  0.0472
 7561TIP3   OH244097   2.909   3.838  13.245  0.1655 -0.4680 -0.1313
 7561TIP3    H144098   2.888   3.746  13.260 -0.5392 -0.1550  0.8126
 7561TIP3    H244099   2.981   3.836  13.181  0.5132 -1.6831  0.2872
 7562TIP3   OH244100   4.140   3.621   0.121 -0.3815  0.1285  0.1359
 7562TIP3    H144101   4.193   3.557   0.073 -1.0720 -1.5439  1.5397
 7562TIP3    H244102   4.063   3.571   0.149 -0.8471  1.5435  1.3968
 7563TIP3   OH244103   5.109   2.511   3.316 -0.2198 -0.0056  0.2537
 7563TIP3    H144104   5.087   2.533   3.407 -2.0700 -0.8453  0.0324
 7563TIP3    H244105   5.056   2.572   3.264  0.4031  0.0900 -0.2639
 7564TIP3   OH244106   5.495   5.197   0.455  0.0206 -0.0453  0.7178
 7564TIP3    H144107   5.404   5.182   0.482 -1.0524  0.5536 -2.3382
 7564TIP3    H244108   5.516   5.122   0.400  0.6349  0.8576 -0.3055
 7565TIP3   OH244109   5.244   4.373   5.283  0.2991  0.2273  0.5137
 7565TIP3    H144110   5.258   4.350   5.375  1.7413  0.9774  0.4953
 7565TIP3    H244111   5.328   4.410   5.254 -0.6814  1.6215 -0.6133
 7566TIP3   OH244112   0.956   2.322   1.657 -0.1127 -0.1414 -0.1791
 7566TIP3    H144113   0.877   2.374   1.670  0.0357  1.0672 -3.5496
 7566TIP3    H244114   1.027   2.385   1.661  0.3666 -0.6512 -0.5650
 7567TIP3   OH244115   6.532   4.424  16.368  0.1150 -0.0971 -0.0607
 7567TIP3    H144116   6.453   4.477  16.374 -0.4244 -0.9801  0.7520
 7567TIP3    H244117   6.600   4.485  16.338 -0.3101  1.2091  1.6056
 7568TIP3   OH244118   6.031   6.719   2.359  0.0655 -0.2827  0.3838
 7568TIP3    H144119   6.074   6.672   2.431 -0.7800  1.8234  2.3341
 7568TIP3    H244120   6.101   6.735   2.296  1.5171  0.4710  2.1315
 7569TIP3   OH244121   5.018   4.727   4.599  0.3815 -0.2180  0.0305
 7569TIP3    H144122   5.081   4.753   4.666  0.4133  0.2318 -0.1696
 7569TIP3    H244123   5.058   4.755   4.517  0.7886 -1.6129 -0.2714
 7570TIP3   OH244124   5.515   6.714   2.673  0.3127 -0.2319 -0.4836
 7570TIP3    H144125   5.507   6.704   2.768 -0.0094 -0.7523 -0.5597
 7570TIP3    H244126   5.493   6.627   2.638  2.3642 -0.6080 -0.9281
 7571TIP3   OH244127   1.673   5.818  16.210 -0.0742  0.1838 -0.1723
 7571TIP3    H144128   1.660   5.845  16.301 -0.3304 -0.2414 -0.0826
 7571TIP3    H244129   1.768   5.806  16.203  0.1123  1.7295 -0.3947
 7572TIP3   OH244130   2.263   2.340   1.556  0.4993 -0.0340  0.3935
 7572TIP3    H144131   2.347   2.323   1.599  0.1089  1.1627  1.6643
 7572TIP3    H244132   2.287   2.388   1.477  0.9666  0.8753  1.0817
 7573TIP3   OH244133   3.724   2.017   6.020  0.5923  0.4803 -0.1038
 7573TIP3    H144134   3.700   1.949   5.958 -0.2990  1.6896 -1.1004
 7573TIP3    H244135   3.665   2.004   6.095  0.8926 -0.2642  0.0028
 7574TIP3   OH244136   1.099   1.525   0.987  0.4605 -0.3240  0.1010
 7574TIP3    H144137   1.060   1.502   0.902 -0.7606  0.1565  0.5340
 7574TIP3    H244138   1.135   1.442   1.019 -0.1338 -0.7550 -0.3318
 7575TIP3   OH244139   5.801   2.115  11.525  0.0530  0.8120 -0.4785
 7575TIP3    H144140   5.852   2.186  11.488  0.5644  1.3049  1.1123
 7575TIP3    H244141   5.825   2.114  11.618 -1.6754  0.0695 -0.0054
 7576TIP3   OH244142   2.849   4.952  10.831 -0.1130 -0.4026  0.0239
 7576TIP3    H144143   2.876   5.015  10.765  0.0495 -1.7644 -1.2286
 7576TIP3    H244144   2.931   4.920  10.869 -0.2030  0.3136  0.8228
 7577TIP3   OH244145   6.761   5.825  13.227  0.4620 -0.5898  0.1861
 7577TIP3    H144146   6.824   5.833  13.156 -0.2319 -0.4403 -0.4167
 7577TIP3    H244147   6.773   5.735  13.260  2.0908 -0.0452  1.1408
 7578TIP3   OH244148   1.905   1.364  12.024 -0.5478 -0.2769  0.3122
 7578TIP3    H144149   1.855   1.312  11.961 -0.1616 -1.2221  0.7719
 7578TIP3    H244150   1.841   1.390  12.090 -0.9268  0.6016 -0.3778
 7579TIP3   OH244151   2.086   3.990   3.517 -0.8946  0.1461  0.4754
 7579TIP3    H144152   2.117   4.080   3.509 -0.6730  0.2205  2.0409
 7579TIP3    H244153   2.097   3.953   3.429 -0.7711  1.5657 -0.1189
 7580TIP3   OH244154   1.888   5.822  13.303 -0.5863  0.5366  0.9068
 7580TIP3    H144155   1.966   5.805  13.252 -1.0583 -2.7612  1.2127
 7580TIP3    H244156   1.851   5.902  13.264 -0.2955 -1.1838 -3.1396
 7581TIP3   OH244157   3.809   0.245   4.353 -0.6720  0.1867 -0.0109
 7581TIP3    H144158   3.753   0.191   4.409  0.6353 -2.7292 -1.4088
 7581TIP3    H244159   3.767   0.241   4.267  0.4749 -0.2181 -0.5658
 7582TIP3   OH244160   5.057   0.208   3.475 -0.1895 -0.1917 -0.0666
 7582TIP3    H144161   4.996   0.135   3.467 -0.2820 -0.1588  0.3149
 7582TIP3    H244162   5.144   0.166   3.474 -0.2156 -0.2404 -0.5670
 7583TIP3   OH244163   3.503   4.704   0.491 -0.6636  0.2111 -0.4119
 7583TIP3    H144164   3.448   4.649   0.435 -0.9219 -0.2172  0.2521
 7583TIP3    H244165   3.590   4.701   0.451 -0.2361 -2.1568  0.6090
 7584TIP3   OH244166   2.510   0.716   3.803 -0.0095 -0.0269  0.8111
 7584TIP3    H144167   2.498   0.698   3.710 -2.8456 -0.0280  1.1190
 7584TIP3    H244168   2.594   0.676   3.825  0.2651 -0.8253 -1.5381
 7585TIP3   OH244169   0.131   5.585  11.410  0.4712 -0.2124 -0.3901
 7585TIP3    H144170   0.086   5.625  11.335  0.9732  0.4327 -0.3536
 7585TIP3    H244171   0.179   5.512  11.372 -0.4274 -0.7835 -0.4639
 7586TIP3   OH244172   2.955   0.252  15.464 -0.6170 -0.1082  0.4770
 7586TIP3    H144173   3.020   0.307  15.420 -0.8727 -0.9983 -1.0162
 7586TIP3    H244174   2.955   0.285  15.555 -0.2105  1.8426 -0.1905
 7587TIP3   OH244175   4.883   2.262  16.208 -0.6614 -0.4128 -0.2699
 7587TIP3    H144176   4.906   2.200  16.138  1.2359  1.5350 -1.4456
 7587TIP3    H244177   4.967   2.294  16.240 -1.5361 -0.8990  2.6101
 7588TIP3   OH244178   4.326   0.804   2.582  0.2798  0.3084  0.1687
 7588TIP3    H144179   4.330   0.708   2.578 -0.6005  0.2140  1.3266
 7588TIP3    H244180   4.415   0.833   2.562  0.6456 -0.7634  0.2300
 7589TIP3   OH244181   6.513   6.309  12.909  0.0730  0.0130  0.6168
 7589TIP3    H144182   6.544   6.396  12.885 -0.4150 -0.8735 -3.6090
 7589TIP3    H244183   6.434   6.325  12.960 -1.3043  2.0708 -2.0396
 7590TIP3   OH244184   0.250   1.386  12.139 -0.3696  1.1239  0.5334
 7590TIP3    H144185   0.251   1.290  12.144 -1.6732  0.9999 -1.1173
 7590TIP3    H244186   0.249   1.406  12.046  0.0188  2.7598  0.8552
 7591TIP3   OH244187   1.562   5.070   5.257 -0.0933 -0.6011 -0.5314
 7591TIP3    H144188   1.558   5.028   5.343 -0.4074  0.5474  0.0224
 7591TIP3    H244189   1.573   4.997   5.195 -5.2116 -1.9832 -0.0289
 7592TIP3   OH244190   4.093   4.722  13.446 -0.4489 -0.1933  0.1446
 7592TIP3    H144191   4.155   4.658  13.412  0.7128  0.5890  0.7616
 7592TIP3    H244192   4.128   4.746  13.532 -1.4223  0.5147  0.3549
 7593TIP3   OH244193   3.820   5.012  14.542  0.2197  0.1251  0.2911
 7593TIP3    H144194   3.912   5.037  14.547  0.2838 -0.1314  0.4143
 7593TIP3    H244195   3.814   4.931  14.593  0.4803 -1.3648 -1.9638
 7594TIP3   OH244196   1.023   0.188   2.697  0.3428 -0.2392 -0.7049
 7594TIP3    H144197   0.968   0.237   2.758 -1.2480 -0.9590 -1.5310
 7594TIP3    H244198   0.995   0.097   2.705  1.5143 -0.6489 -1.0444
 7595TIP3   OH244199   2.638   3.777   6.446  0.1884 -0.0120 -0.2165
 7595TIP3    H144200   2.653   3.830   6.524 -1.4607 -1.0300  0.8105
 7595TIP3    H244201   2.725   3.767   6.407  0.4944  3.7675 -0.6814
 7596TIP3   OH244202   2.529   3.868   3.472 -0.1588  0.3386 -0.8434
 7596TIP3    H144203   2.571   3.787   3.502 -2.0177 -0.3105  0.1125
 7596TIP3    H244204   2.435   3.848   3.474 -0.5222  1.6432 -3.2127
 7597TIP3   OH244205   1.212   5.483  11.896  0.0070  0.0029  0.1823
 7597TIP3    H144206   1.161   5.429  11.955 -0.2848 -0.0899 -0.1539
 7597TIP3    H244207   1.245   5.422  11.829 -0.0639  0.1842 -0.0192
 7598TIP3   OH244208   0.511   1.575  11.289 -0.3696  0.0224  0.3510
 7598TIP3    H144209   0.503   1.618  11.204 -0.8815 -0.0688  0.3504
 7598TIP3    H244210   0.533   1.484  11.267 -0.9932 -0.1230  0.2911
 7599TIP3   OH244211   2.534   2.414   6.394 -0.1077 -0.0462  0.0200
 7599TIP3    H144212   2.548   2.354   6.467 -0.9720  0.2917  0.4651
 7599TIP3    H244213   2.537   2.357   6.316  1.6355 -0.2774  0.2468
 7600TIP3   OH244214   5.772   5.403   0.982 -0.3062  0.2965  0.2833
 7600TIP3    H144215   5.715   5.403   1.058  0.5733  2.4520  0.9652
 7600TIP3    H244216   5.855   5.440   1.013  0.3529  0.3956 -1.4979
 7601TIP3   OH244217   3.773   2.869   6.545  0.1660  0.0994  0.2760
 7601TIP3    H144218   3.858   2.828   6.529 -0.1865 -0.1137 -1.1632
 7601TIP3    H244219   3.715   2.829   6.480 -1.0602  0.1785  1.3026
 7602TIP3   OH244220   4.022   2.845   1.757  0.4929 -0.0245  0.0484
 7602TIP3    H144221   3.957   2.850   1.687  1.4590 -0.6737 -0.9258
 7602TIP3    H244222   4.031   2.751   1.774  1.1876  0.0579  0.1475
 7603TIP3   OH244223   2.101   0.980   4.846  0.3677 -0.0520 -0.0902
 7603TIP3    H144224   2.044   0.986   4.770  0.1981 -0.0871  0.0331
 7603TIP3    H244225   2.048   0.937   4.913  0.5289 -0.0593  0.0350
 7604TIP3   OH244226   5.174   1.115   5.078  0.3111  0.3005  0.1692
 7604TIP3    H144227   5.254   1.151   5.040 -0.6366  0.8204 -1.3785
 7604TIP3    H244228   5.122   1.191   5.102 -1.4057  0.0223 -2.4816
 7605TIP3   OH244229   4.508   3.643  13.163  0.6804  0.4099  0.2116
 7605TIP3    H144230   4.413   3.637  13.156  0.8288  0.5852 -2.6916
 7605TIP3    H244231   4.539   3.553  13.154  0.7777  0.2163  2.2088
 7606TIP3   OH244232   4.534   0.041  11.759 -0.2204 -0.7272 -0.9450
 7606TIP3    H144233   4.615   0.022  11.710  2.0903  2.4714  1.4221
 7606TIP3    H244234   4.504   0.124  11.723  0.0427  0.3180  1.2004
 7607TIP3   OH244235   3.520   2.352   5.657  0.0082  0.5648 -0.0854
 7607TIP3    H144236   3.507   2.445   5.638 -1.1307 -0.0089 -2.3463
 7607TIP3    H244237   3.448   2.330   5.717 -0.4516  0.8768 -0.5131
 7608TIP3   OH244238   1.117   5.516  12.270 -0.3109 -0.3604  0.4724
 7608TIP3    H144239   1.193   5.463  12.244  0.4297  0.4961  0.8941
 7608TIP3    H244240   1.044   5.454  12.266  0.1398 -0.8260 -1.4170
 7609TIP3   OH244241   5.070   1.888  11.279  0.2203  0.0384 -0.4060
 7609TIP3    H144242   5.010   1.860  11.210 -0.7712 -1.3808  0.9699
 7609TIP3    H244243   5.150   1.838  11.263  0.8926  1.6163 -1.9986
 7610TIP3   OH244244   5.802   0.924   0.169  0.8514  0.2477  0.1351
 7610TIP3    H144245   5.874   0.894   0.114 -0.1826  0.5586 -1.4089
 7610TIP3    H244246   5.787   0.853   0.230  0.3930 -1.1504 -1.5681
 7611TIP3   OH244247   6.075   4.162  17.184  0.2833 -0.5040 -0.1109
 7611TIP3    H144248   6.128   4.203  17.115  0.3517 -0.6861 -0.1669
 7611TIP3    H244249   6.021   4.233  17.218  0.9146 -0.2068  0.2875
 7612TIP3   OH244250   5.247   5.118   0.968 -0.0172 -0.3785 -0.8030
 7612TIP3    H144251   5.275   5.027   0.969 -0.7215 -0.6005  0.9451
 7612TIP3    H244252   5.206   5.132   1.054  1.2004  1.9373 -0.5592
 7613TIP3   OH244253   4.504   5.373   1.467  0.0315 -0.4218 -0.1436
 7613TIP3    H144254   4.554   5.295   1.490  0.7242  0.4620  1.4130
 7613TIP3    H244255   4.565   5.446   1.477 -0.3356  0.2634 -2.4950
 7614TIP3   OH244256   2.971   1.488   2.722 -0.1717 -0.1294 -0.7289
 7614TIP3    H144257   3.061   1.506   2.694 -0.0258  1.0084  0.4209
 7614TIP3    H244258   2.922   1.567   2.701  0.1856  1.2101  3.1278
 7615TIP3   OH244259   3.521   1.568  11.849  0.1618 -0.6198  0.4511
 7615TIP3    H144260   3.450   1.513  11.880 -0.7630 -0.5049 -1.3913
 7615TIP3    H244261   3.586   1.507  11.814 -1.4335 -0.5996 -2.7950
 7616TIP3   OH244262   4.917   2.928   0.121  0.0132 -0.5018 -0.3227
 7616TIP3    H144263   4.868   3.002   0.157  1.3930  1.1928 -1.8166
 7616TIP3    H244264   4.864   2.898   0.047 -0.5348 -1.0043  0.2683
 7617TIP3   OH244265   0.048   3.476  12.208 -0.1812  0.3088 -0.4392
 7617TIP3    H144266   0.004   3.533  12.271  1.2503 -0.5603  1.3989
 7617TIP3    H244267   0.134   3.517  12.195 -0.3229  0.2707 -1.5583
 7618TIP3   OH244268   3.922   3.902   1.340 -0.0607  0.1023  0.5145
 7618TIP3    H144269   4.013   3.911   1.314 -0.8315 -2.5547 -3.5927
 7618TIP3    H244270   3.921   3.828   1.401  0.2497 -1.8286 -1.7341
 7619TIP3   OH244271   0.461   5.889   5.420 -0.6802 -0.2057  0.0968
 7619TIP3    H144272   0.474   5.807   5.372 -0.2815  0.5938 -1.1835
 7619TIP3    H244273   0.403   5.940   5.365  1.9798  1.8418 -0.9388
 7620TIP3   OH244274   5.337   5.964   1.689 -0.2843  0.7220 -0.2072
 7620TIP3    H144275   5.267   5.908   1.723  0.0122  0.5204  0.0689
 7620TIP3    H244276   5.411   5.905   1.675 -0.0614  0.9949 -0.1871
 7621TIP3   OH244277   3.266   0.040  16.723 -0.7770 -0.2120  0.7109
 7621TIP3    H144278   3.226   0.105  16.665 -0.6206 -1.4360 -0.7890
 7621TIP3    H244279   3.278  -0.038  16.668 -1.5640 -1.7416  2.6388
 7622TIP3   OH244280   2.999   4.481  17.039 -0.5034 -0.6032 -0.1726
 7622TIP3    H144281   2.925   4.493  16.980 -1.0759  0.8041  0.8161
 7622TIP3    H244282   3.075   4.472  16.982 -1.1296  0.1277 -1.1211
 7623TIP3   OH244283   4.666   1.395  14.881  0.0704 -0.5234  0.1255
 7623TIP3    H144284   4.730   1.324  14.881 -2.2597 -2.7472  1.1615
 7623TIP3    H244285   4.593   1.360  14.830 -1.0345  1.2452  0.4556
 7624TIP3   OH244286   2.312   6.197   2.875 -0.3058 -0.1141 -0.4977
 7624TIP3    H144287   2.269   6.138   2.813  0.5710 -1.1560 -0.1210
 7624TIP3    H244288   2.250   6.269   2.886 -1.7407 -1.3566 -0.3295
 7625TIP3   OH244289   6.602   0.084  15.707 -0.2415 -0.3486  0.0427
 7625TIP3    H144290   6.529   0.111  15.762 -0.4517  0.1014 -0.4480
 7625TIP3    H244291   6.563   0.026  15.642 -0.4266  1.0133 -1.0904
 7626TIP3   OH244292   3.704   0.815   4.221  0.4348  0.0578 -0.1942
 7626TIP3    H144293   3.750   0.867   4.155 -1.2489 -1.8627 -2.9582
 7626TIP3    H244294   3.715   0.725   4.192 -2.5791 -0.6406  0.6799
 7627TIP3   OH244295   2.838   4.623   4.928  0.2937 -0.2113 -0.0377
 7627TIP3    H144296   2.766   4.560   4.933 -1.5850  1.8964  0.6280
 7627TIP3    H244297   2.891   4.593   4.854 -1.5717 -1.5402 -0.8895
 7628TIP3   OH244298   0.019   5.805   0.985  0.3737 -0.3837 -0.0494
 7628TIP3    H144299  -0.052   5.790   1.048  0.5817  0.7145  0.4586
 7628TIP3    H244300  -0.014   5.873   0.927  0.9809  0.0742  0.1382
 7629TIP3   OH244301   3.435   0.548  15.113 -0.0980  0.1307 -0.5249
 7629TIP3    H144302   3.348   0.521  15.084 -0.1070 -0.8557  0.3991
 7629TIP3    H244303   3.462   0.614  15.049 -0.4038 -1.4891 -2.3685
 7630TIP3   OH244304   5.738   4.732   1.820  1.0137  0.2651 -0.5294
 7630TIP3    H144305   5.756   4.811   1.770  1.7027 -0.3167 -1.2144
 7630TIP3    H244306   5.650   4.745   1.855  0.0753  0.2103 -2.7981
 7631TIP3   OH244307   5.466   6.027  14.034 -0.3616 -0.0275 -0.7420
 7631TIP3    H144308   5.528   6.099  14.024  0.0726 -0.2917  0.0274
 7631TIP3    H244309   5.405   6.057  14.101  0.6976 -0.9639  0.6750
 7632TIP3   OH244310   3.405   2.605  16.385  0.1672  0.1279  0.1665
 7632TIP3    H144311   3.446   2.677  16.338 -0.6471 -0.4812 -1.5281
 7632TIP3    H244312   3.398   2.535  16.320 -1.5178 -0.5439  1.0349
 7633TIP3   OH244313   1.436   5.022  11.919 -0.3510  0.1442  0.9324
 7633TIP3    H144314   1.474   4.936  11.938  0.8825  0.7146  1.0998
 7633TIP3    H244315   1.356   5.025  11.973  0.3391 -0.3285  2.0090
 7634TIP3   OH244316   4.791   4.094   3.863  0.1846 -0.4252  0.0363
 7634TIP3    H144317   4.825   4.108   3.951 -0.4444 -1.0053  0.3849
 7634TIP3    H244318   4.861   4.123   3.805 -0.5387  2.7967  0.6984
 7635TIP3   OH244319   5.358   4.310   3.457 -0.0217 -0.4074 -0.1815
 7635TIP3    H144320   5.443   4.341   3.488  0.3120 -0.7809 -0.7122
 7635TIP3    H244321   5.297   4.380   3.480  0.5997  0.3148 -0.7160
 7636TIP3   OH244322   0.347   4.368   5.366 -0.2303  0.0217 -0.1898
 7636TIP3    H144323   0.403   4.291   5.352  0.1855  0.3074 -0.1313
 7636TIP3    H244324   0.403   4.429   5.415 -1.2299 -0.4595  1.6201
 7637TIP3   OH244325   4.741   1.252  13.495 -0.4298 -0.2281  0.4008
 7637TIP3    H144326   4.698   1.299  13.567 -0.9784  0.0234 -0.0809
 7637TIP3    H244327   4.796   1.318  13.452 -0.0671 -0.3889  0.6210
 7638TIP3   OH244328   4.978   0.516  13.707 -0.2787 -0.2055 -0.4334
 7638TIP3    H144329   4.964   0.583  13.774  1.7116 -0.1476 -0.0491
 7638TIP3    H244330   4.971   0.433  13.754 -0.8880 -0.2242 -0.5528
 7639TIP3   OH244331   5.048   3.801   1.236  0.3232 -0.1625 -0.2902
 7639TIP3    H144332   5.087   3.880   1.199 -0.7566 -0.3398 -1.8577
 7639TIP3    H244333   5.122   3.754   1.275  0.8752  1.9117  1.2502
 7640TIP3   OH244334   2.456   0.344  14.446  0.1763 -0.3170 -0.4422
 7640TIP3    H144335   2.473   0.249  14.443  0.6371 -0.2708  0.4094
 7640TIP3    H244336   2.361   0.350  14.457  0.0832 -0.6680 -1.0144
 7641TIP3   OH244337   5.180   4.678   1.812  0.3438  0.5684 -0.8295
 7641TIP3    H144338   5.217   4.629   1.886 -2.3002  2.7781  2.0602
 7641TIP3    H244339   5.123   4.616   1.768  0.4237 -0.2198  0.1609
 7642TIP3   OH244340   1.544   6.088   1.660 -0.1869  0.0406  0.3796
 7642TIP3    H144341   1.586   6.069   1.576 -1.3841  1.9455 -0.6905
 7642TIP3    H244342   1.613   6.126   1.714 -0.3106  2.4736 -1.1141
 7643TIP3   OH244343   2.268   6.754   4.396  0.5348 -0.3949 -0.1314
 7643TIP3    H144344   2.266   6.676   4.341  2.4653 -0.6051  0.0582
 7643TIP3    H244345   2.305   6.822   4.339 -1.8573  0.6256 -0.5504
 7644TIP3   OH244346   6.724   3.868   0.300  0.1041  0.3256 -0.5491
 7644TIP3    H144347   6.660   3.923   0.256  0.8115  0.0747 -1.9099
 7644TIP3    H244348   6.791   3.851   0.234  0.0260 -1.9531 -0.0825
 7645TIP3   OH244349   2.555   5.614   5.146 -0.1957 -0.3538 -0.7096
 7645TIP3    H144350   2.594   5.533   5.112 -0.2490 -0.7447  0.1389
 7645TIP3    H244351   2.600   5.628   5.229  0.0894  0.7084 -1.0361
 7646TIP3   OH244352   4.918   4.627  15.648  0.2149 -0.5948 -0.2697
 7646TIP3    H144353   5.000   4.674  15.667  0.0319 -0.4540  0.2010
 7646TIP3    H244354   4.855   4.666  15.708  0.5368 -2.8483  1.6175
 7647TIP3   OH244355   4.339   1.406   0.028  0.0561 -0.1336 -0.7257
 7647TIP3    H144356   4.354   1.425  -0.065  0.3771 -0.9577 -0.8401
 7647TIP3    H244357   4.245   1.420   0.040  0.2412  1.3051 -0.8623
 7648TIP3   OH244358   2.806   3.851  13.971  0.4241 -0.5281  0.4332
 7648TIP3    H144359   2.843   3.918  14.029  0.3642  1.7246 -2.0684
 7648TIP3    H244360   2.713   3.850  13.991  0.2155  1.0676 -0.4107
 7649TIP3   OH244361   2.998   3.489   0.036  0.2987 -0.2169  0.0901
 7649TIP3    H144362   3.053   3.415   0.012 -0.8665 -1.1004  0.0982
 7649TIP3    H244363   2.917   3.449   0.070 -0.5773  1.0499 -0.4731
 7650TIP3   OH244364   0.270   0.130   6.132 -0.8616 -0.2629 -0.1453
 7650TIP3    H144365   0.197   0.069   6.140  0.6759 -2.1428 -0.0362
 7650TIP3    H244366   0.284   0.163   6.221 -2.5694  1.3312 -0.4401
 7651TIP3   OH244367   4.515   3.425   0.168 -0.1107  0.4800 -0.1958
 7651TIP3    H144368   4.528   3.519   0.181 -1.1303  0.6312 -0.2334
 7651TIP3    H244369   4.555   3.385   0.245  1.1774  0.8753 -0.6343
 7652TIP3   OH244370   2.719   4.745   4.356  0.6994  0.2292  0.0905
 7652TIP3    H144371   2.813   4.757   4.369  0.7982 -1.2760  0.9386
 7652TIP3    H244372   2.709   4.728   4.263  1.3704 -0.3601  0.1215
 7653TIP3   OH244373   1.226   5.455  11.101 -0.0996 -0.1799  0.5244
 7653TIP3    H144374   1.312   5.477  11.065 -0.8814  1.0359 -0.6101
 7653TIP3    H244375   1.168   5.451  11.025 -0.9310 -1.6171  1.2143
 7654TIP3   OH244376   5.390   1.881  12.001 -0.8600  0.1179 -0.1866
 7654TIP3    H144377   5.395   1.818  11.929  0.3588  1.1564 -1.0542
 7654TIP3    H244378   5.368   1.964  11.958  1.7179  1.1451  0.3677
 7655TIP3   OH244379   2.972   4.870   5.286 -0.2965  0.6338  0.8801
 7655TIP3    H144380   3.054   4.870   5.335 -0.4409  0.3773  1.1277
 7655TIP3    H244381   2.984   4.936   5.219  0.0176  0.7778  1.0770
 7656TIP3   OH244382   5.064   0.338   1.578 -0.1812  0.5001 -1.0956
 7656TIP3    H144383   4.997   0.395   1.540 -1.0047  0.6832  0.5970
 7656TIP3    H244384   5.015   0.267   1.618  0.4857  1.6318  1.8519
 7657TIP3   OH244385   2.830   5.199   5.948 -0.1209  0.0224 -0.5269
 7657TIP3    H144386   2.804   5.197   5.856  0.1087  0.0342 -0.5942
 7657TIP3    H244387   2.787   5.123   5.987  0.6338 -0.6060 -0.8870
 7658TIP3   OH244388   4.642   3.562  15.525 -0.4065 -0.2603  0.0484
 7658TIP3    H144389   4.714   3.567  15.589 -0.3679 -1.1768  0.0929
 7658TIP3    H244390   4.569   3.606  15.567  0.3878  1.4950 -0.3682
 7659TIP3   OH244391   6.348   0.509  10.634  0.1138  0.0466  0.6294
 7659TIP3    H144392   6.307   0.543  10.554 -1.3111 -0.4502  1.1292
 7659TIP3    H244393   6.435   0.550  10.636  1.0400 -1.6448 -2.3346
 7660TIP3   OH244394   4.737   4.544  11.838 -0.5935 -0.0580  0.3146
 7660TIP3    H144395   4.748   4.620  11.781 -0.8359  1.2529  1.9721
 7660TIP3    H244396   4.777   4.570  11.921 -0.0707 -2.0023  0.6975
 7661TIP3   OH244397   0.210   1.035   0.028  0.2616 -0.2443 -0.4322
 7661TIP3    H144398   0.248   1.104  -0.026 -0.3718 -0.6837 -1.4429
 7661TIP3    H244399   0.128   1.073   0.061 -0.4050 -0.7475 -1.5137
 7662TIP3   OH244400   6.728   5.247   1.103  0.1506  0.0945 -0.3049
 7662TIP3    H144401   6.730   5.281   1.014 -3.4254  0.3979 -0.3511
 7662TIP3    H244402   6.710   5.153   1.091  1.0651 -0.1294  0.0691
 7663TIP3   OH244403   2.267   5.279  12.965 -0.0305  0.2785 -0.0422
 7663TIP3    H144404   2.232   5.190  12.972  0.1628  0.2372  0.3925
 7663TIP3    H244405   2.362   5.268  12.979  0.1766  0.3734 -1.3004
 7664TIP3   OH244406   4.142   0.405  14.374 -0.0900 -0.2512 -0.3508
 7664TIP3    H144407   4.053   0.374  14.392 -0.4227 -1.0530 -3.1536
 7664TIP3    H244408   4.130   0.476  14.310  1.4149 -2.2806 -2.9739
 7665TIP3   OH244409   3.305   0.229  10.746 -0.0673  0.1195  0.0863
 7665TIP3    H144410   3.286   0.308  10.797 -0.3722  0.2925 -0.2877
 7665TIP3    H244411   3.220   0.196  10.719  0.1599  1.2487 -2.1203
 7666TIP3   OH244412   4.119   0.614  12.972  0.2449 -0.3933 -0.5451
 7666TIP3    H144413   4.165   0.656  12.899  0.2759  0.7388  0.1126
 7666TIP3    H244414   4.120   0.680  13.042 -1.6837 -0.6447 -0.2591
 7667TIP3   OH244415   2.166   1.189  15.394 -0.4938  0.2751 -0.2473
 7667TIP3    H144416   2.182   1.096  15.381  0.2221  0.5679 -1.4686
 7667TIP3    H244417   2.108   1.214  15.322 -2.2541  0.3746  1.1559
 7668TIP3   OH244418   5.106   5.564  15.277  1.1305  0.5464 -0.2816
 7668TIP3    H144419   5.063   5.602  15.200  0.5493 -0.9145 -0.6938
 7668TIP3    H244420   5.114   5.471  15.256  1.9365  0.3198  0.9922
 7669TIP3   OH244421   3.699   6.010   0.646  0.0752 -0.2074  0.2919
 7669TIP3    H144422   3.774   6.069   0.638  0.5839 -0.8204  0.4765
 7669TIP3    H244423   3.735   5.931   0.686 -0.5272 -0.7719 -0.2666
 7670TIP3   OH244424   3.115   5.096  16.912 -0.3943 -0.2731  0.0187
 7670TIP3    H144425   3.130   5.066  16.822 -2.7294 -1.5203  0.0033
 7670TIP3    H244426   3.075   5.020  16.956  1.0543  0.1861  2.2221
 7671TIP3   OH244427   3.630   3.096   2.702 -0.4680  0.1603  0.0373
 7671TIP3    H144428   3.605   3.074   2.791  2.3610 -0.9169  0.6137
 7671TIP3    H244429   3.590   3.029   2.647  1.9600 -2.1694  1.0398
 7672TIP3   OH244430   4.293   3.902   4.845  0.1015 -0.3842  0.6934
 7672TIP3    H144431   4.372   3.849   4.856  0.1025 -0.4309  0.4786
 7672TIP3    H244432   4.235   3.847   4.792  1.6140  1.3079 -2.9118
 7673TIP3   OH244433   2.380   5.139  14.258  0.3461  0.5323  0.2245
 7673TIP3    H144434   2.408   5.121  14.348  0.4910 -0.0650  0.0568
 7673TIP3    H244435   2.428   5.077  14.204  0.9424  1.4885 -0.3652
 7674TIP3   OH244436   5.445   0.717   5.042  0.5127  0.1418  0.0604
 7674TIP3    H144437   5.372   0.750   5.093  1.5559  1.1055  0.9777
 7674TIP3    H244438   5.483   0.795   5.001  3.5177  0.3176  2.9211
 7675TIP3   OH244439   1.824   0.820   1.449  0.4962 -0.2238  0.0080
 7675TIP3    H144440   1.919   0.811   1.457  0.4257 -0.4949  0.5888
 7675TIP3    H244441   1.790   0.731   1.461  0.1376 -0.0477  0.3308
 7676TIP3   OH244442   0.345   3.679  14.074 -0.6158 -0.3246  0.4372
 7676TIP3    H144443   0.354   3.605  14.135  0.7648 -0.1275  0.4784
 7676TIP3    H244444   0.412   3.741  14.101 -0.5959  0.1725 -0.7172
 7677TIP3   OH244445   3.250   3.473   6.948  0.0381 -0.3607 -0.5729
 7677TIP3    H144446   3.330   3.507   6.907  1.0748 -1.1568  0.7255
 7677TIP3    H244447   3.267   3.380   6.960 -0.6750 -0.3540  0.6296
 7678TIP3   OH244448   4.746   5.466   2.561  0.3363 -0.2288  0.1708
 7678TIP3    H144449   4.781   5.377   2.552  0.5194 -0.3021  1.6396
 7678TIP3    H244450   4.661   5.462   2.516  0.6216 -0.9685 -0.3245
 7679TIP3   OH244451   5.178   4.450   1.622  0.1753 -0.1705  0.1672
 7679TIP3    H144452   5.111   4.419   1.683 -0.2621  0.3171 -0.0643
 7679TIP3    H244453   5.234   4.373   1.608 -0.3176 -0.5769  0.3833
 7680TIP3   OH244454   0.430   5.434  15.148  0.2019 -0.4646 -0.4014
 7680TIP3    H144455   0.369   5.479  15.206 -0.1317  0.7369 -1.6456
 7680TIP3    H244456   0.512   5.483  15.157  0.2786 -0.5600 -0.5802
 7681TIP3   OH244457   3.337   2.985   2.190 -0.0436 -0.6514  0.4135
 7681TIP3    H144458   3.243   2.967   2.190  0.1782 -1.9151 -1.2175
 7681TIP3    H244459   3.358   3.007   2.099  1.0695  0.5748  0.9522
 7682TIP3   OH244460   0.522   1.942  13.254  0.0754 -0.3317  0.3568
 7682TIP3    H144461   0.588   1.887  13.213  1.0817  1.0687  0.0547
 7682TIP3    H244462   0.548   2.032  13.231 -1.6299  0.2670  0.6691
 7683TIP3   OH244463   4.666   1.293   2.623  0.2797 -0.2944  0.0481
 7683TIP3    H144464   4.573   1.270   2.628  0.2547 -0.1429  0.2826
 7683TIP3    H244465   4.690   1.317   2.713  0.5406 -0.3146 -0.0149
 7684TIP3   OH244466   5.714   0.910  13.088 -0.3989 -0.9208  0.1757
 7684TIP3    H144467   5.787   0.924  13.147 -1.3918  0.1348  1.1847
 7684TIP3    H244468   5.747   0.936  13.002  0.1831  0.2535  0.7415
 7685TIP3   OH244469   5.066   0.633  16.311  0.4004  0.2097 -0.6371
 7685TIP3    H144470   4.996   0.658  16.251  0.6593 -1.6986 -1.7736
 7685TIP3    H244471   5.137   0.603  16.254  0.5299 -1.9342  0.5929
 7686TIP3   OH244472   1.781   3.607  14.339 -0.4267  0.3376 -0.5765
 7686TIP3    H144473   1.864   3.640  14.303 -0.6094  1.2979 -0.1374
 7686TIP3    H244474   1.731   3.686  14.358 -1.4790 -0.2509 -0.9113
 7687TIP3   OH244475   5.026   1.009  16.069 -0.5521  0.1796 -0.1552
 7687TIP3    H144476   4.956   0.978  16.012  0.1068  0.4330 -1.1068
 7687TIP3    H244477   5.071   0.930  16.098  1.1394  0.2206 -2.5940
 7688TIP3   OH244478   5.528   2.864  16.243  0.2146  0.0033 -0.0108
 7688TIP3    H144479   5.593   2.922  16.281 -2.0800  1.4792  1.8166
 7688TIP3    H244480   5.474   2.836  16.318  0.5712 -3.6226 -0.9900
 7689TIP3   OH244481   1.363   6.479   1.818 -0.0939  0.2482  0.0027
 7689TIP3    H144482   1.429   6.413   1.798  0.2387  0.2194  1.1762
 7689TIP3    H244483   1.401   6.530   1.890 -0.6639  1.2479 -0.4035
 7690TIP3   OH244484   2.553   6.754   1.194  0.4855  0.0131  0.7965
 7690TIP3    H144485   2.602   6.765   1.276 -0.1548 -0.1046  1.1986
 7690TIP3    H244486   2.602   6.807   1.131 -0.0179  1.5659  1.6744
 7691TIP3   OH244487   4.204   3.657  13.796 -0.0983  0.0489 -0.6852
 7691TIP3    H144488   4.275   3.646  13.733  1.1031  1.4043  0.3718
 7691TIP3    H244489   4.139   3.711  13.751  0.0047 -0.3589 -1.3169
 7692TIP3   OH244490   4.979   1.513  13.526  0.1040 -0.7075 -0.6134
 7692TIP3    H144491   4.898   1.533  13.479  0.3955  0.3847 -0.6579
 7692TIP3    H244492   4.969   1.555  13.611  1.3814  1.0086 -1.2872
 7693TIP3   OH244493   6.246   5.997   5.355 -0.3665 -0.0389  0.8840
 7693TIP3    H144494   6.279   6.084   5.333  0.5685 -0.5226  0.3698
 7693TIP3    H244495   6.281   5.980   5.443  1.4059 -0.8776  0.0195
 7694TIP3   OH244496   6.749   5.626  12.887 -0.1034  0.4783  0.5741
 7694TIP3    H144497   6.705   5.694  12.938 -0.0459  1.1460 -0.2531
 7694TIP3    H244498   6.816   5.672  12.837 -0.4676 -0.0849 -0.4593
 7695TIP3   OH244499   0.268   6.497   6.295 -0.3228  0.0783 -0.7183
 7695TIP3    H144500   0.216   6.557   6.242  0.0480  0.3604 -0.7690
 7695TIP3    H244501   0.341   6.550   6.327  0.3372 -0.4888 -1.2520
 7696TIP3   OH244502   1.085   1.871  12.010 -0.3619  0.0835  0.2774
 7696TIP3    H144503   1.000   1.826  12.005 -1.0353  1.3414  0.4052
 7696TIP3    H244504   1.072   1.940  12.074  0.0477  1.7940 -1.4416
 7697TIP3   OH244505   2.913   4.849  16.628 -0.1959 -0.2266  0.3392
 7697TIP3    H144506   2.891   4.903  16.551 -1.9058 -1.2472  0.0907
 7697TIP3    H244507   2.958   4.773  16.591 -2.6275 -1.6198  0.1076
 7698TIP3   OH244508   2.530   3.981   4.631 -0.0612 -0.2079 -0.5191
 7698TIP3    H144509   2.507   3.902   4.681  2.2253 -1.3093 -1.1201
 7698TIP3    H244510   2.579   4.035   4.693  0.3576 -0.3169 -0.7491
 7699TIP3   OH244511   5.946   4.324  12.351  0.3771  0.3182 -0.1984
 7699TIP3    H144512   5.885   4.282  12.411  0.7571 -0.0715 -0.0860
 7699TIP3    H244513   5.973   4.255  12.291  0.0173  0.6964 -0.8114
 7700TIP3   OH244514   5.496   4.395   5.138 -0.2023  0.1643  0.6133
 7700TIP3    H144515   5.588   4.372   5.153  0.1040  1.2595  0.4155
 7700TIP3    H244516   5.498   4.462   5.070 -1.2317 -0.6866 -0.2876
 7701TIP3   OH244517   0.574   5.274  11.747  0.4322  0.4731 -0.6250
 7701TIP3    H144518   0.635   5.261  11.675 -0.8455 -0.7175 -1.5164
 7701TIP3    H244519   0.581   5.368  11.768 -0.6206  1.2825 -3.6098
 7702TIP3   OH244520   0.876   3.474   0.045  0.1174 -0.3990  0.2441
 7702TIP3    H144521   0.818   3.432  -0.019  0.2675 -1.2348  0.6415
 7702TIP3    H244522   0.921   3.543  -0.004  0.6566 -1.4096 -0.7046
 7703TIP3   OH244523   4.907   3.403  12.012 -0.2217 -0.3114 -0.2331
 7703TIP3    H144524   4.986   3.455  12.028  0.1650 -0.9526 -0.0157
 7703TIP3    H244525   4.882   3.370  12.098 -0.7780 -0.0447 -0.2896
 7704TIP3   OH244526   6.115   5.986  10.360 -0.1156  0.0441 -0.2711
 7704TIP3    H144527   6.152   5.927  10.426  1.2994  0.8212 -0.3683
 7704TIP3    H244528   6.162   6.068  10.371 -1.2713  0.8136 -0.9247
 7705TIP3   OH244529   0.351   5.585  14.788 -0.3075 -0.2654  0.5055
 7705TIP3    H144530   0.401   5.655  14.829 -0.0361 -0.2239  0.1077
 7705TIP3    H244531   0.301   5.545  14.860  3.1743 -2.8037  1.6306
 7706TIP3   OH244532   1.193   5.041  13.075 -0.4260  0.0838 -0.4754
 7706TIP3    H144533   1.257   5.072  13.140 -0.7112 -0.5351  0.1102
 7706TIP3    H244534   1.196   5.106  13.005  0.2409  0.5022 -0.0623
 7707TIP3   OH244535   6.464   3.693  16.558 -0.2339 -0.5022  0.2227
 7707TIP3    H144536   6.391   3.754  16.564 -0.3463 -0.5673 -0.4647
 7707TIP3    H244537   6.527   3.723  16.624  0.2129  1.0296 -0.8912
 7708TIP3   OH244538   0.525   3.122  15.194  0.1482  0.1741 -1.0867
 7708TIP3    H144539   0.536   3.216  15.208 -0.9945 -0.0050  1.1025
 7708TIP3    H244540   0.594   3.082  15.248 -0.5996 -0.3185 -0.4981
 7709TIP3   OH244541   5.422   3.336   0.593 -0.9440 -0.3422  0.4601
 7709TIP3    H144542   5.350   3.328   0.656 -2.7568  1.0753 -1.3659
 7709TIP3    H244543   5.394   3.285   0.518 -1.3899  2.5514 -1.4051
 7710TIP3   OH244544   3.786   0.972  10.562 -0.7812 -0.3597 -0.3623
 7710TIP3    H144545   3.849   0.929  10.504  1.8247  0.3090  1.8375
 7710TIP3    H244546   3.786   1.064  10.534  0.4244 -0.0512  0.5892
 7711TIP3   OH244547   5.386   2.476  13.754 -0.1320  0.5816 -0.1294
 7711TIP3    H144548   5.382   2.459  13.660 -0.9568  2.3768 -0.4472
 7711TIP3    H244549   5.347   2.563  13.764  0.6793  0.7483  1.7826
 7712TIP3   OH244550   6.322   1.545  10.903 -0.7829 -0.6984 -0.0972
 7712TIP3    H144551   6.233   1.526  10.930 -1.1231 -1.5515 -1.7149
 7712TIP3    H244552   6.369   1.463  10.916 -1.5636 -1.9417 -4.3582
 7713TIP3   OH244553   5.156   1.205   2.088 -0.1012 -0.0583 -0.1619
 7713TIP3    H144554   5.105   1.279   2.055  0.4142  0.1777 -0.4404
 7713TIP3    H244555   5.091   1.141   2.116 -0.5551 -0.1425 -1.3892
 7714TIP3   OH244556   1.031   6.712   1.327  0.3593  0.6639  0.1365
 7714TIP3    H144557   0.966   6.643   1.309 -0.4904  2.1171 -2.6268
 7714TIP3    H244558   1.107   6.665   1.361 -0.5672 -1.5286 -0.7262
 7715TIP3   OH244559   5.940   2.886   0.570 -0.1256 -0.3930  0.6894
 7715TIP3    H144560   5.883   2.826   0.521 -0.3037  0.8738 -0.7177
 7715TIP3    H244561   5.903   2.887   0.658  0.1402 -2.6676  0.8576
 7716TIP3   OH244562   5.789   6.596   5.467  0.1214  0.0522 -0.2623
 7716TIP3    H144563   5.800   6.501   5.462  2.0547  0.2292  0.1931
 7716TIP3    H244564   5.758   6.611   5.557 -0.6596 -0.1793 -0.4883
 7717TIP3   OH244565   1.121   6.107  13.217  0.3826  0.2453  0.2813
 7717TIP3    H144566   1.203   6.087  13.172 -0.2289 -1.3929 -0.1353
 7717TIP3    H244567   1.148   6.141  13.302  1.5206  1.7375 -0.6505
 7718TIP3   OH244568   6.554   2.234   3.044 -0.1951 -0.7339 -0.0677
 7718TIP3    H144569   6.632   2.276   3.082  0.8139 -0.6672 -2.1087
 7718TIP3    H244570   6.492   2.229   3.116  0.8946  1.2351  1.0591
 7719TIP3   OH244571   6.386   4.521   3.398 -0.1979  0.5955 -0.1133
 7719TIP3    H144572   6.392   4.507   3.492 -0.1337 -2.2374 -0.4861
 7719TIP3    H244573   6.294   4.544   3.383 -0.9220 -1.7996  0.3626
 7720TIP3   OH244574   6.107   5.372  14.414 -0.3052  0.1515  0.3547
 7720TIP3    H144575   6.123   5.353  14.507 -0.7399  0.3037  0.4621
 7720TIP3    H244576   6.114   5.467  14.408  0.1952  0.1039  0.1401
 7721TIP3   OH244577   0.324   5.499   1.746 -0.3416 -0.1456  0.5007
 7721TIP3    H144578   0.397   5.438   1.759  0.6708  0.9394 -0.0335
 7721TIP3    H244579   0.333   5.527   1.655 -2.3525 -1.1900 -0.0509
 7722TIP3   OH244580   4.647   2.102   2.864  0.1654  0.1019 -0.3805
 7722TIP3    H144581   4.632   2.055   2.946  0.5801 -1.6478 -1.2729
 7722TIP3    H244582   4.706   2.174   2.888 -0.8967  0.4808  1.1109
 7723TIP3   OH244583   4.050   3.067   3.912 -0.1737  0.3446  0.3534
 7723TIP3    H144584   3.987   3.121   3.959  1.6139  2.4671  0.4174
 7723TIP3    H244585   4.126   3.125   3.899  0.7454 -1.3013 -1.9950
 7724TIP3   OH244586   3.605   1.231   5.169 -0.4704  0.0986 -0.1167
 7724TIP3    H144587   3.609   1.150   5.219 -0.2350 -0.5209 -1.1266
 7724TIP3    H244588   3.671   1.287   5.210  0.5202 -0.8089 -0.4323
 7725TIP3   OH244589   0.175   4.253  12.157 -0.1476  0.1246  0.1662
 7725TIP3    H144590   0.106   4.286  12.214  0.3924 -1.7483  1.9487
 7725TIP3    H244591   0.132   4.186  12.104 -0.0604  0.0372  0.2057
 7726TIP3   OH244592   1.873   2.915  11.317 -0.8398  0.0747 -0.0537
 7726TIP3    H144593   1.930   2.839  11.304 -0.5595  0.1546  0.6852
 7726TIP3    H244594   1.812   2.912  11.244 -0.6000 -0.6628 -0.2279
 7727TIP3   OH244595   6.461   3.792   5.260  0.6730 -0.5912 -0.1171
 7727TIP3    H144596   6.531   3.792   5.325 -0.2547 -1.4889  0.9185
 7727TIP3    H244597   6.506   3.786   5.176  1.9366  1.7299  0.3516
 7728TIP3   OH244598   6.136   4.076   2.122  0.1526  0.1426 -0.7070
 7728TIP3    H144599   6.175   4.104   2.204 -1.2963  0.4822 -0.1241
 7728TIP3    H244600   6.161   3.984   2.114  0.0030  0.0179  0.2779
 7729TIP3   OH244601   0.540   0.692  15.914  0.3328 -0.1809 -0.3961
 7729TIP3    H144602   0.542   0.651  16.001 -0.3211  2.3415  0.8609
 7729TIP3    H244603   0.516   0.783  15.931  0.3443  0.3995 -3.2306
 7730TIP3   OH244604   3.867   5.301  15.361 -0.0206 -0.1319 -0.5206
 7730TIP3    H144605   3.927   5.228  15.373  0.3277  0.1657 -0.4274
 7730TIP3    H244606   3.845   5.330  15.449 -0.3395 -0.2661 -0.5523
 7731TIP3   OH244607   6.405   6.096  13.628 -0.1018  0.1669 -0.1383
 7731TIP3    H144608   6.313   6.116  13.648  0.4465  3.3608 -0.4980
 7731TIP3    H244609   6.411   6.105  13.533  0.3369 -1.2621 -0.2549
 7732TIP3   OH244610   2.160   6.478   4.654  0.4708  0.5887 -0.4322
 7732TIP3    H144611   2.243   6.523   4.636  0.1630  1.4178  0.2408
 7732TIP3    H244612   2.179   6.423   4.730  0.7257 -0.1118 -0.9937
 7733TIP3   OH244613   6.684   4.794  14.439 -0.2396 -0.4605  0.5078
 7733TIP3    H144614   6.700   4.712  14.392 -0.7213 -0.4553  0.3321
 7733TIP3    H244615   6.596   4.820  14.412  1.0463  1.7398 -1.8855
 7734TIP3   OH244616   0.303   4.967  13.084  0.2204  0.0562  0.1006
 7734TIP3    H144617   0.237   5.021  13.041  0.1122  0.3432  0.6326
 7734TIP3    H244618   0.311   5.003  13.172  0.0168 -0.9045  0.5205
 7735TIP3   OH244619   5.450   5.527  14.174  0.6498 -0.3464 -0.7747
 7735TIP3    H144620   5.490   5.612  14.151  0.8556 -0.7350 -1.9166
 7735TIP3    H244621   5.371   5.523  14.120  0.0924 -0.4320  0.0447
 7736TIP3   OH244622   4.571   0.178  17.166 -0.4608 -0.4197 -0.4180
 7736TIP3    H144623   4.480   0.190  17.139 -0.0134 -0.1002 -1.8444
 7736TIP3    H244624   4.570   0.099  17.221 -1.5736 -0.5039 -0.5554
 7737TIP3   OH244625   0.163   3.634   0.416 -0.4066 -0.7422 -0.0613
 7737TIP3    H144626   0.242   3.580   0.414  1.0691  1.3588 -1.2951
 7737TIP3    H244627   0.179   3.698   0.485 -1.9715 -1.6313  1.1443
 7738TIP3   OH244628   5.703   5.342  13.264  0.3967 -0.3328 -0.5355
 7738TIP3    H144629   5.755   5.419  13.287 -0.3209 -0.2276  0.8030
 7738TIP3    H244630   5.728   5.323  13.173  1.5833  0.6525 -0.4396
 7739TIP3   OH244631   1.341   6.076   3.916 -0.0359  0.3792 -0.1665
 7739TIP3    H144632   1.423   6.075   3.866 -0.5223 -0.8161 -0.9763
 7739TIP3    H244633   1.274   6.100   3.852 -0.3451  1.2068  0.4606
 7740TIP3   OH244634   1.850   0.628  14.199 -0.2445  0.3665  0.1078
 7740TIP3    H144635   1.881   0.555  14.146  0.6963  0.3929  0.6087
 7740TIP3    H244636   1.888   0.612  14.286 -1.1100  0.7480  0.5676
 7741TIP3   OH244637   3.485   0.373  15.494  0.2799  0.5067 -0.2912
 7741TIP3    H144638   3.420   0.382  15.564 -0.3749  1.8417 -1.0527
 7741TIP3    H244639   3.537   0.453  15.500  1.5302 -0.3131 -0.0295
 7742TIP3   OH244640   4.621   0.485   1.576 -0.2578  0.4771  0.0321
 7742TIP3    H144641   4.554   0.553   1.563  0.1785  1.0085  0.5696
 7742TIP3    H244642   4.571   0.403   1.574 -1.0499  0.9089  1.2194
 7743TIP3   OH244643   4.335   5.324   0.829  0.2759  0.1785 -0.4915
 7743TIP3    H144644   4.390   5.383   0.881  0.1536  2.4627 -2.8746
 7743TIP3    H244645   4.394   5.255   0.800  0.7467 -0.1018  1.0918
 7744TIP3   OH244646   1.594   4.452   5.409 -0.8607  0.1731 -0.5467
 7744TIP3    H144647   1.565   4.412   5.491 -0.4101  0.2869 -0.3294
 7744TIP3    H244648   1.558   4.396   5.341 -1.4948  0.2522 -0.2759
 7745TIP3   OH244649   3.310   4.961   1.780  0.3994 -0.3770 -0.5909
 7745TIP3    H144650   3.370   4.949   1.854 -1.8539 -1.3218  1.1038
 7745TIP3    H244651   3.303   4.875   1.740 -1.1421 -0.6543  0.2507
 7746TIP3   OH244652   3.278   6.120   2.136 -0.2242 -0.0340 -0.0003
 7746TIP3    H144653   3.210   6.187   2.138 -1.8494 -1.6620  1.3301
 7746TIP3    H244654   3.261   6.071   2.056 -1.9707 -1.7466  1.3756
 7747TIP3   OH244655   0.469   5.553   5.641  0.1846 -0.3690 -0.0152
 7747TIP3    H144656   0.495   5.509   5.722 -1.9755 -0.6463  0.5600
 7747TIP3    H244657   0.386   5.596   5.663  1.0632  2.0395 -1.2336
 7748TIP3   OH244658   2.630   0.033  16.475 -0.3315 -0.1455 -0.2461
 7748TIP3    H144659   2.610   0.049  16.383  0.4124 -0.3336 -0.4449
 7748TIP3    H244660   2.546   0.042  16.520 -0.6322  0.2861 -0.8964
 7749TIP3   OH244661   0.112   5.605  16.976  0.1086 -0.1107 -0.4203
 7749TIP3    H144662   0.193   5.657  16.968 -0.4572  0.9037  0.3321
 7749TIP3    H244663   0.059   5.632  16.901 -0.2995  0.6193  0.1224
 7750TIP3   OH244664   1.071   2.226  10.964 -0.1077 -0.0586  1.0293
 7750TIP3    H144665   1.012   2.298  10.983  0.3609  0.8337 -0.8006
 7750TIP3    H244666   1.158   2.261  10.982  0.0572 -0.4340  0.9648
 7751TIP3   OH244667   3.155   0.787   5.733 -0.2016  0.8419 -0.7136
 7751TIP3    H144668   3.134   0.812   5.643 -0.0950 -0.5674 -1.1314
 7751TIP3    H244669   3.250   0.790   5.738 -0.1957  0.6704 -0.7191
 7752TIP3   OH244670   1.865   6.350   1.448  0.2228 -0.0228 -0.6086
 7752TIP3    H144671   1.868   6.398   1.366  2.2509  0.7194 -0.1279
 7752TIP3    H244672   1.810   6.404   1.505 -3.0355 -1.6169 -2.0773
 7753TIP3   OH244673   5.090   4.286  14.766  0.4947  0.2479 -0.9557
 7753TIP3    H144674   5.084   4.300  14.860  0.4718  0.1046 -0.9367
 7753TIP3    H244675   5.184   4.287  14.748  0.4942  0.3902 -0.9498
 7754TIP3   OH244676   4.126   4.882   0.843 -0.3019 -0.0641 -0.1095
 7754TIP3    H144677   4.086   4.814   0.897  0.4203 -1.1792 -0.9536
 7754TIP3    H244678   4.117   4.962   0.895  0.5183 -1.1378  1.7578
 7755TIP3   OH244679   6.209   4.617   0.489  0.4540  0.1942  0.3059
 7755TIP3    H144680   6.248   4.541   0.532 -0.1852 -0.4535 -0.2556
 7755TIP3    H244681   6.138   4.581   0.435 -1.0517  1.3744  1.4602
 7756TIP3   OH244682   6.179   2.298  14.658 -0.2324  0.0209 -0.3617
 7756TIP3    H144683   6.251   2.322  14.716  0.5703  1.3517 -1.8632
 7756TIP3    H244684   6.111   2.362  14.676 -0.2244  0.0519 -0.4401
 7757TIP3   OH244685   3.416   1.757   4.826 -0.5324  0.6342  0.3299
 7757TIP3    H144686   3.390   1.673   4.789 -2.2559  1.6047 -0.6921
 7757TIP3    H244687   3.363   1.822   4.780  1.5597  2.4052  0.3126
 7758TIP3   OH244688   3.847   6.531   0.982  0.0084 -0.0991 -0.3273
 7758TIP3    H144689   3.766   6.539   1.033 -0.7435  0.9173 -1.6232
 7758TIP3    H244690   3.821   6.481   0.904  0.6048  0.3077 -0.7934
 7759TIP3   OH244691   2.838   2.277   2.932 -0.4027  0.8178 -0.2801
 7759TIP3    H144692   2.889   2.265   3.012  0.3436 -2.5020 -1.1703
 7759TIP3    H244693   2.904   2.285   2.862 -1.0630  1.9191 -0.7904
 7760TIP3   OH244694   5.493   1.281   1.618 -0.3372 -0.0286 -0.5379
 7760TIP3    H144695   5.468   1.196   1.652 -0.1744  0.4942  0.9120
 7760TIP3    H244696   5.513   1.333   1.695 -1.5796  1.6858 -1.3295
 7761TIP3   OH244697   3.341   5.668   0.984  0.8090 -0.0286 -0.1142
 7761TIP3    H144698   3.349   5.722   0.906  0.3733 -2.0020 -1.5618
 7761TIP3    H244699   3.365   5.580   0.955 -0.9111 -1.1039  1.5971
 7762TIP3   OH244700   2.092   0.254  15.753 -0.3602  0.7207  0.4312
 7762TIP3    H144701   2.107   0.344  15.778  0.9334  0.4830  0.5223
 7762TIP3    H244702   2.137   0.202  15.819  1.7606  0.0668 -1.4562
 7763TIP3   OH244703   4.828   6.136   1.439 -0.1397  0.5331  0.2835
 7763TIP3    H144704   4.861   6.078   1.507  1.1295  0.5539 -0.2998
 7763TIP3    H244705   4.756   6.183   1.481 -0.6085 -0.8140  1.0238
 7764TIP3   OH244706   0.170   2.398  11.947 -0.6811  0.3639  0.0659
 7764TIP3    H144707   0.247   2.346  11.972 -0.0587  0.9013 -0.6927
 7764TIP3    H244708   0.109   2.388  12.020 -1.3639 -3.0034 -0.8569
 7765TIP3   OH244709   2.711   3.693  16.485  0.6357  0.5613  0.0050
 7765TIP3    H144710   2.783   3.659  16.536 -0.5944 -0.3154  1.1929
 7765TIP3    H244711   2.722   3.654  16.398  0.9300 -0.4774  0.5087
 7766TIP3   OH244712   6.680   6.506   5.723 -0.1731 -0.3783  0.0366
 7766TIP3    H144713   6.743   6.564   5.766  0.7466 -1.1375 -0.2483
 7766TIP3    H244714   6.595   6.546   5.739  0.3831  0.6629  0.4451
 7767TIP3   OH244715   6.457   0.910   3.875  0.2097  0.2656  0.1534
 7767TIP3    H144716   6.447   1.003   3.896  0.6847  0.9195 -2.4364
 7767TIP3    H244717   6.536   0.906   3.821  2.7471 -2.2344  3.7622
 7768TIP3   OH244718   6.762   0.652   3.096  0.7035  0.2660  0.0041
 7768TIP3    H144719   6.795   0.681   3.011  1.0224  0.9414  0.3403
 7768TIP3    H244720   6.818   0.699   3.159  0.2669  0.0146  0.5799
 7769TIP3   OH244721   2.889   1.827  11.898  0.5061 -0.1845 -0.2850
 7769TIP3    H144722   2.974   1.793  11.929  0.1065 -0.1426  0.8894
 7769TIP3    H244723   2.905   1.921  11.884  0.5291 -0.0817  0.4066
 7770TIP3   OH244724   3.778   1.998  14.928 -0.0398 -0.0221 -0.0147
 7770TIP3    H144725   3.825   2.081  14.922  0.8716 -0.5239 -0.0056
 7770TIP3    H244726   3.714   2.001  14.857 -0.8691  1.2060  0.7646
 7771TIP3   OH244727   4.401   6.224   3.578  0.0284  0.0470  0.0861
 7771TIP3    H144728   4.490   6.258   3.580  0.3414 -0.6965 -0.8297
 7771TIP3    H244729   4.409   6.134   3.611 -0.5273  0.2693  0.8574
 7772TIP3   OH244730   4.689   2.830  13.925 -0.3438  0.0161 -0.2492
 7772TIP3    H144731   4.756   2.896  13.913 -2.1710  2.0085  0.2397
 7772TIP3    H244732   4.715   2.783  14.004  0.1887  1.1176  0.2259
 7773TIP3   OH244733   1.777   0.276   4.648  0.8066 -0.0248 -0.1683
 7773TIP3    H144734   1.690   0.239   4.631 -0.5135  2.8507 -0.0827
 7773TIP3    H244735   1.837   0.223   4.596 -0.9663 -2.2273 -0.0419
 7774TIP3   OH244736   3.625   3.523  11.219  0.1718  0.0830 -0.2787
 7774TIP3    H144737   3.554   3.580  11.188  1.5301  1.3410 -1.1865
 7774TIP3    H244738   3.637   3.459  11.149  0.4164  0.3153 -0.4488
 7775TIP3   OH244739   6.408   0.717   0.292  0.0786  0.4767  0.2995
 7775TIP3    H144740   6.372   0.631   0.314  1.4645 -0.5185 -1.2051
 7775TIP3    H244741   6.361   0.778   0.348 -2.2157 -1.0570  0.0849
 7776TIP3   OH244742   1.030   0.871  16.716  0.0305  0.5971  0.0830
 7776TIP3    H144743   1.065   0.787  16.686 -0.8062  0.3933 -0.3541
 7776TIP3    H244744   0.944   0.878  16.673  0.8387  2.5054 -1.2827
 7777TIP3   OH244745   0.150   5.686  14.441  0.2850  0.5314  0.0049
 7777TIP3    H144746   0.117   5.682  14.351 -0.7273 -1.3110  0.4506
 7777TIP3    H244747   0.105   5.761  14.479  0.7140  1.3226 -1.0071
 7778TIP3   OH244748   4.300   6.316  12.432 -0.0781  0.2368 -0.1515
 7778TIP3    H144749   4.296   6.412  12.438  0.2630  0.2106  0.6573
 7778TIP3    H244750   4.384   6.298  12.390  0.6857  0.2592  1.3095
 7779TIP3   OH244751   6.357   2.976  12.293 -0.1215  0.0807 -0.0609
 7779TIP3    H144752   6.289   3.039  12.269 -0.5463  0.2278  1.4721
 7779TIP3    H244753   6.412   2.970  12.215 -0.6381  1.6078 -0.5715
 7780TIP3   OH244754   2.193   1.649  13.191 -0.1393 -0.3324  0.4383
 7780TIP3    H144755   2.181   1.641  13.096 -1.4180  0.2708  0.5439
 7780TIP3    H244756   2.174   1.562  13.225  0.4310 -0.5799  0.1383
 7781TIP3   OH244757   3.428   4.399   4.340  0.2083  0.0444 -0.5749
 7781TIP3    H144758   3.515   4.438   4.352  0.5542 -1.0209  0.5435
 7781TIP3    H244759   3.424   4.378   4.247  0.9491  0.5504 -0.7319
 7782TIP3   OH244760   3.480   5.941   5.663  0.2093  0.3125  0.2367
 7782TIP3    H144761   3.573   5.959   5.648  0.3292 -0.4625  0.0274
 7782TIP3    H244762   3.475   5.920   5.757  0.3569 -0.3206  0.1036
 7783TIP3   OH244763   2.388   4.829  16.206  0.1296 -0.2824  0.0895
 7783TIP3    H144764   2.470   4.878  16.204  0.9516 -1.6311  0.2678
 7783TIP3    H244765   2.323   4.891  16.238  1.4149  0.3217  1.5557
 7784TIP3   OH244766   3.697   6.354  13.200  0.0914 -0.3086  0.5111
 7784TIP3    H144767   3.787   6.367  13.172 -0.0727 -1.2570 -0.4766
 7784TIP3    H244768   3.661   6.442  13.208  1.0579  0.0732  0.8056
 7785TIP3   OH244769   5.797   0.079  16.403 -0.6464  0.4669  0.7451
 7785TIP3    H144770   5.881   0.040  16.380 -1.1913  0.1762 -0.7547
 7785TIP3    H244771   5.755   0.014  16.460  0.0628  0.5533  1.3802
 7786TIP3   OH244772   1.892   5.135   0.458 -0.1283 -0.1102  0.6636
 7786TIP3    H144773   1.855   5.198   0.396  2.2310  0.3624 -0.3319
 7786TIP3    H244774   1.934   5.069   0.404 -0.3825 -1.1751  1.7396
 7787TIP3   OH244775   6.499   1.571   2.154  0.3664  0.1715 -0.4975
 7787TIP3    H144776   6.519   1.536   2.241 -1.7174  2.1460  0.8394
 7787TIP3    H244777   6.429   1.635   2.169  0.0092  0.6105 -3.6266
 7788TIP3   OH244778   2.629   1.150   2.359 -0.1293 -0.8236 -0.2010
 7788TIP3    H144779   2.652   1.144   2.266  0.2244 -0.9547 -0.1086
 7788TIP3    H244780   2.667   1.233   2.388 -0.0042 -0.9127 -0.1094
 7789TIP3   OH244781   2.035   0.934  15.402  0.4723 -0.0313 -0.3694
 7789TIP3    H144782   1.974   0.996  15.362  0.9832  0.0036 -1.1070
 7789TIP3    H244783   2.021   0.852  15.355 -1.1066 -0.8460  1.4533
 7790TIP3   OH244784   4.835   2.208  14.081 -0.3606 -0.5188 -0.3896
 7790TIP3    H144785   4.861   2.179  13.994  1.2644 -1.0957  0.2644
 7790TIP3    H244786   4.809   2.128  14.127 -0.9303 -0.2574 -0.2509
 7791TIP3   OH244787   2.808   1.360  16.856 -0.0609  0.7433 -0.0061
 7791TIP3    H144788   2.742   1.412  16.810  0.2874  1.3284  0.1574
 7791TIP3    H244789   2.800   1.387  16.948 -0.1775  0.1911  0.1510
 7792TIP3   OH244790   0.295   0.049   2.714  0.2392  0.0594  0.1964
 7792TIP3    H144791   0.389   0.032   2.710  0.3220  0.4955  0.3002
 7792TIP3    H244792   0.254  -0.037   2.702  0.6485 -0.1097  0.0358
 7793TIP3   OH244793   4.965   1.323   4.856  0.3307  0.0237  0.2658
 7793TIP3    H144794   5.017   1.244   4.865 -0.4525 -0.8221 -2.0883
 7793TIP3    H244795   4.920   1.313   4.771 -0.1619  2.7453  0.1396
 7794TIP3   OH244796   5.198   4.254   3.871  0.0358  0.2433 -0.0482
 7794TIP3    H144797   5.186   4.322   3.937  2.3234  0.9444 -0.3011
 7794TIP3    H244798   5.231   4.179   3.920 -1.1602 -0.2424  0.0275
 7795TIP3   OH244799   4.705   3.323   3.599 -0.1652  0.3745 -0.5548
 7795TIP3    H144800   4.635   3.259   3.585  0.1108  0.1078 -0.6913
 7795TIP3    H244801   4.666   3.387   3.659 -0.0682 -0.4967  0.4398
 7796TIP3   OH244802   0.887   5.784   3.995  0.1056  1.1294 -0.6549
 7796TIP3    H144803   0.902   5.695   4.027 -3.1758  0.3085 -1.1817
 7796TIP3    H244804   0.855   5.833   4.071 -0.3630  1.2128 -0.9012
 7797TIP3   OH244805   4.341   6.486   1.288  0.0019 -0.0911 -0.5256
 7797TIP3    H144806   4.406   6.437   1.237 -1.6064 -0.8685 -1.8554
 7797TIP3    H244807   4.257   6.463   1.248 -0.9542  2.1978  0.1102
 7798TIP3   OH244808   1.017   2.165   3.924  0.4207 -0.5781  0.2673
 7798TIP3    H144809   1.029   2.258   3.941 -1.2744 -0.6034  1.7217
 7798TIP3    H244810   1.019   2.157   3.828 -0.4786  1.1041  0.0956
 7799TIP3   OH244811   5.397   1.786  13.658 -0.4923  0.2111  0.0288
 7799TIP3    H144812   5.320   1.842  13.646 -0.8169 -0.4481 -1.0370
 7799TIP3    H244813   5.399   1.730  13.580  0.2315 -0.7733  0.7297
 7800TIP3   OH244814   2.746   4.970   4.496  0.0905  0.1729 -0.2178
 7800TIP3    H144815   2.732   5.036   4.428 -0.2915 -0.8323 -1.1199
 7800TIP3    H244816   2.735   4.886   4.452 -0.3584 -0.4958  1.1253
 7801TIP3   OH244817   2.482   0.909   1.157 -0.3237  0.2240  0.4948
 7801TIP3    H144818   2.513   0.823   1.185  0.5932  0.7744  1.1711
 7801TIP3    H244819   2.450   0.951   1.236 -0.5615  0.6046  0.2008
 7802TIP3   OH244820   1.190   4.018  16.971 -0.6355 -0.3442 -0.4947
 7802TIP3    H144821   1.247   4.089  16.998 -0.5144 -0.6691  0.0982
 7802TIP3    H244822   1.228   3.987  16.888 -0.9394  0.5623 -0.9838
 7803TIP3   OH244823   6.388   4.433   5.716  0.5480 -0.4125  0.6548
 7803TIP3    H144824   6.451   4.362   5.705  2.1557  1.3785 -2.0814
 7803TIP3    H244825   6.416   4.476   5.797  1.1478 -1.2893  0.9288
 7804TIP3   OH244826   2.013   3.567  16.333  0.2914  0.4065  0.0511
 7804TIP3    H144827   2.084   3.632  16.336  0.3368  0.4190 -1.2701
 7804TIP3    H244828   2.058   3.483  16.339  0.1985  0.4827  2.3065
 7805TIP3   OH244829   2.322   2.040  11.222 -0.2557 -0.6073 -0.2174
 7805TIP3    H144830   2.393   2.039  11.286  0.8570 -0.1052 -1.4377
 7805TIP3    H244831   2.254   1.984  11.261 -0.4528  1.3475  2.3698
 7806TIP3   OH244832   2.598   5.695   4.502  0.2927 -0.1739  0.0735
 7806TIP3    H144833   2.563   5.703   4.591  0.7761  1.0638  0.1521
 7806TIP3    H244834   2.542   5.752   4.449 -0.0159 -0.9316 -0.4352
 7807TIP3   OH244835   2.600   4.698   5.551  0.2731  0.1397 -0.3116
 7807TIP3    H144836   2.567   4.748   5.626  2.0193  1.5359 -0.4481
 7807TIP3    H244837   2.685   4.738   5.530 -0.2296 -0.1063 -3.1165
 7808TIP3   OH244838   5.850   2.101  13.670 -0.1195  0.2738  0.1708
 7808TIP3    H144839   5.833   2.010  13.694  0.6858 -0.1842 -1.0102
 7808TIP3    H244840   5.941   2.116  13.694 -0.9212  1.5318  2.6891
 7809TIP3   OH244841   5.972   4.330   0.767  0.3634  0.1430  0.3148
 7809TIP3    H144842   5.878   4.323   0.751  0.6184 -1.0353 -0.6808
 7809TIP3    H244843   5.992   4.423   0.755 -0.4532  0.1898 -0.6449
 7810TIP3   OH244844   6.708   2.511   0.817  0.5906  0.3367  0.2043
 7810TIP3    H144845   6.641   2.572   0.785  1.0553  1.7612  1.8469
 7810TIP3    H244846   6.659   2.433   0.844 -0.0137 -0.0582 -1.9163
 7811TIP3   OH244847   5.451   2.351   4.901 -0.3308 -0.0669 -0.2973
 7811TIP3    H144848   5.398   2.395   4.835 -1.8874 -0.1574  0.8478
 7811TIP3    H244849   5.529   2.322   4.855  0.2080  2.9081 -1.3067
 7812TIP3   OH244850   1.688   3.838  12.883  0.9971  0.2274  0.4240
 7812TIP3    H144851   1.672   3.931  12.897  2.1220  0.3897  0.6563
 7812TIP3    H244852   1.778   3.833  12.852  1.0191 -0.7989  0.6232
 7813TIP3   OH244853   3.620   3.481   0.890  1.2285  0.3664 -0.2055
 7813TIP3    H144854   3.538   3.502   0.846  0.5994 -0.5076  0.5157
 7813TIP3    H244855   3.648   3.563   0.930 -0.0351  0.3585  0.7265
 7814TIP3   OH244856   6.055   1.860  15.756 -0.7166  0.1403 -0.0178
 7814TIP3    H144857   5.999   1.938  15.751 -1.2108 -0.1420  0.8973
 7814TIP3    H244858   6.020   1.810  15.830 -0.3944 -0.9454 -0.5816
 7815TIP3   OH244859   3.810   5.185  13.626  0.2080 -0.7143  0.5341
 7815TIP3    H144860   3.827   5.147  13.712  0.7435 -1.4284  0.1134
 7815TIP3    H244861   3.745   5.127  13.587  1.2107 -1.3504 -0.2096
 7816TIP3   OH244862   4.618   1.709   0.529 -0.7645  0.1150  0.2201
 7816TIP3    H144863   4.537   1.716   0.579 -0.8940 -0.9285  0.1716
 7816TIP3    H244864   4.627   1.615   0.510  0.5943  0.1820  0.4669
 7817TIP3   OH244865   4.594   5.515   1.856  0.4578  0.2555  0.3848
 7817TIP3    H144866   4.514   5.552   1.893  0.9979  0.7923  1.0423
 7817TIP3    H244867   4.618   5.444   1.916  2.5202  2.5142  2.3505
 7818TIP3   OH244868   4.874   5.263   2.801  0.0865  0.3239 -0.4780
 7818TIP3    H144869   4.909   5.351   2.811  0.6273  0.0421  0.1589
 7818TIP3    H244870   4.861   5.253   2.707 -1.0875  1.4987 -0.4517
 7819TIP3   OH244871   0.443   3.354   0.166 -0.3983 -0.1995 -0.4282
 7819TIP3    H144872   0.384   3.387   0.099 -0.2771  0.1698 -0.3607
 7819TIP3    H244873   0.499   3.430   0.187  0.5407 -0.7331 -0.9794
 7820TIP3   OH244874   1.681   0.075  11.224  0.1800  0.2471  0.1756
 7820TIP3    H144875   1.714   0.001  11.174  1.1843 -1.5114  3.3148
 7820TIP3    H244876   1.587   0.060  11.230  0.4882 -1.2672  1.5213
 7821TIP3   OH244877   0.204   5.962   4.695 -1.1682  0.4570  0.9228
 7821TIP3    H144878   0.275   5.920   4.745 -1.8496 -0.5281  1.0774
 7821TIP3    H244879   0.146   5.890   4.672 -2.1790  1.2790  0.8843
 7822TIP3   OH244880   4.091   4.881   4.735  0.1394 -0.0962 -0.0406
 7822TIP3    H144881   3.999   4.864   4.754  0.0643 -0.0301 -0.3441
 7822TIP3    H244882   4.139   4.818   4.789 -0.0627  0.2422  0.5356
 7823TIP3   OH244883   3.078   5.584  13.975  0.0944 -0.4936 -0.0213
 7823TIP3    H144884   3.120   5.525  14.037 -0.6367 -0.4653  0.5035
 7823TIP3    H244885   3.050   5.527  13.903 -0.5829 -0.7816  0.4719
 7824TIP3   OH244886   6.353   2.750   3.201 -0.3803  0.2209  0.0316
 7824TIP3    H144887   6.360   2.774   3.294 -1.5205 -0.6175  0.3456
 7824TIP3    H244888   6.335   2.656   3.201 -1.5660  0.4278 -0.9887
 7825TIP3   OH244889   0.555   1.440   4.418  0.5250 -0.0317 -0.3644
 7825TIP3    H144890   0.610   1.515   4.438  0.2678 -0.1822  0.9910
 7825TIP3    H244891   0.466   1.476   4.413  0.4621 -0.1626 -0.2022
 7826TIP3   OH244892   5.686   5.845  12.869 -0.6370 -0.2090 -0.1142
 7826TIP3    H144893   5.720   5.855  12.780  0.3390 -1.3094  0.1166
 7826TIP3    H244894   5.668   5.751  12.876 -1.7832  0.0517  0.4681
 7827TIP3   OH244895   3.258   3.515   4.597  0.5380 -0.1918  0.0532
 7827TIP3    H144896   3.199   3.585   4.570 -0.4030 -1.1272 -0.3366
 7827TIP3    H244897   3.310   3.553   4.668  0.0255  0.8902 -0.1500
 7828TIP3   OH244898   3.007   3.432   6.043 -0.0037  0.2591 -0.3796
 7828TIP3    H144899   2.935   3.376   6.071 -1.5098  1.6626 -1.3178
 7828TIP3    H244900   3.020   3.410   5.951  2.1114 -1.3715  0.2772
 7829TIP3   OH244901   0.612   1.969   4.440  0.2691  0.6473 -0.2071
 7829TIP3    H144902   0.702   2.000   4.452  0.4137  0.0383  0.2879
 7829TIP3    H244903   0.585   2.007   4.357  0.9918  0.8293 -0.3632
 7830TIP3   OH244904   4.950   0.099   6.243  0.4453 -0.4332  0.2626
 7830TIP3    H144905   4.990   0.070   6.325 -2.9554 -1.4641  1.6315
 7830TIP3    H244906   4.877   0.155   6.271 -0.8265 -0.9042 -2.0477
 7831TIP3   OH244907   0.235   6.387  13.582 -0.1562 -0.4650  0.1682
 7831TIP3    H144908   0.169   6.433  13.634 -1.3403 -0.1744 -1.5270
 7831TIP3    H244909   0.196   6.301  13.564 -0.1709 -0.2206 -1.0082
 7832TIP3   OH244910   4.855   0.959   4.816  0.2323 -0.2499 -0.1048
 7832TIP3    H144911   4.946   0.983   4.797  0.2657 -1.4650 -1.5593
 7832TIP3    H244912   4.845   0.872   4.779 -1.2650 -0.5254  0.9021
 7833TIP3   OH244913   0.540   2.050   5.327  0.2268 -0.3233 -0.4485
 7833TIP3    H144914   0.624   2.083   5.359 -0.6112  1.0453  0.4061
 7833TIP3    H244915   0.529   1.966   5.372  1.1871 -0.5859 -0.6779
 7834TIP3   OH244916   0.313   0.373  12.950  0.1106  0.2792 -0.4218
 7834TIP3    H144917   0.247   0.351  13.015 -0.9983  0.9405 -1.3190
 7834TIP3    H244918   0.294   0.464  12.926  0.8886  0.2356 -1.2199
 7835TIP3   OH244919   2.684   5.512  13.600  0.7523  0.3420  0.4235
 7835TIP3    H144920   2.624   5.456  13.552  0.6269  0.3850  0.5295
 7835TIP3    H244921   2.630   5.584  13.632  0.9621  0.6652  0.0551
 7836TIP3   OH244922   1.973   6.729   1.419  0.4227  0.1018 -0.6359
 7836TIP3    H144923   1.920   6.734   1.498  0.4925  0.4020 -0.6074
 7836TIP3    H244924   2.059   6.699   1.449 -0.0115 -1.3681 -0.8151
 7837TIP3   OH244925   1.675   1.220  14.067  0.0451 -0.1302 -0.1805
 7837TIP3    H144926   1.751   1.229  14.009  0.6943  0.6995  0.7753
 7837TIP3    H244927   1.608   1.177  14.013  0.8360  0.0795 -1.3469
 7838TIP3   OH244928   3.464   4.122   2.608 -0.1479  0.1439 -0.1124
 7838TIP3    H144929   3.527   4.143   2.676  0.2098  1.1274 -0.7414
 7838TIP3    H244930   3.512   4.131   2.526 -0.7202 -0.4898 -0.5260
 7839TIP3   OH244931   2.386   5.472  15.812 -0.0622  0.2846 -0.1080
 7839TIP3    H144932   2.378   5.451  15.905 -0.7203 -0.1230 -0.2556
 7839TIP3    H244933   2.322   5.542  15.798 -0.7859 -0.4533 -0.5034
 7840TIP3   OH244934   5.976   2.942  14.373  0.0711 -0.0697  0.0065
 7840TIP3    H144935   6.053   2.921  14.320 -0.4599 -2.1699  0.0499
 7840TIP3    H244936   5.902   2.931  14.313 -0.2317  1.7679  0.0183
 7841TIP3   OH244937   5.917   6.007   2.658 -0.7574  0.4189 -0.6900
 7841TIP3    H144938   5.955   6.020   2.571  0.2562  0.7719 -0.1986
 7841TIP3    H244939   5.985   6.037   2.719 -0.7343 -1.5841  0.2927
 7842TIP3   OH244940   2.537   1.922  15.281  0.0214 -0.2982 -0.4157
 7842TIP3    H144941   2.489   1.916  15.364  0.1910 -3.2938 -0.5130
 7842TIP3    H244942   2.623   1.958  15.306 -0.8429  1.3486  0.2958
 7843TIP3   OH244943   1.721   0.161  16.833  0.0371  0.3170  0.1789
 7843TIP3    H144944   1.705   0.243  16.787  3.3016  0.9102  0.0172
 7843TIP3    H244945   1.699   0.180  16.924 -0.2436  1.0481 -0.0379
 7844TIP3   OH244946   4.275   2.193  12.481 -0.6414 -0.0300  0.1962
 7844TIP3    H144947   4.313   2.163  12.564  0.3947  1.7023  0.3849
 7844TIP3    H244948   4.350   2.201  12.422 -1.0166  1.1645 -0.1371
 7845TIP3   OH244949   4.895   3.973   5.219 -0.6646  0.0690  0.0058
 7845TIP3    H144950   4.908   3.988   5.313  0.0639  1.2445 -0.2752
 7845TIP3    H244951   4.983   3.979   5.181 -0.9955 -0.0728 -0.7998
 7846TIP3   OH244952   4.342   3.698  14.347 -0.6841  0.4358 -0.2679
 7846TIP3    H144953   4.267   3.751  14.373  0.9300  2.7389 -0.1263
 7846TIP3    H244954   4.344   3.706  14.251 -0.9227 -0.0218 -0.3083
 7847TIP3   OH244955   0.015   0.633   4.826 -0.6361  0.2771  0.0944
 7847TIP3    H144956   0.005   0.676   4.741 -0.6306 -0.7316 -0.4264
 7847TIP3    H244957   0.102   0.659   4.856 -0.3609  0.0953 -0.5271
 7848TIP3   OH244958   4.615   5.045   2.580 -0.1160  0.0746  0.2014
 7848TIP3    H144959   4.591   4.972   2.523 -0.3271  0.0346  0.3404
 7848TIP3    H244960   4.660   5.005   2.654  1.4735  0.2586 -0.6522
 7849TIP3   OH244961   1.856   5.633   6.403 -0.1010  0.4182  0.6846
 7849TIP3    H144962   1.853   5.539   6.421  0.3686  0.2203 -0.2614
 7849TIP3    H244963   1.785   5.670   6.455 -1.1802 -0.6361 -0.0311
 7850TIP3   OH244964   5.906   0.553  15.571 -0.2704 -0.9738  0.0421
 7850TIP3    H144965   5.922   0.647  15.561  1.0413 -1.4649 -2.6809
 7850TIP3    H244966   5.975   0.524  15.631 -0.3697 -0.2894  0.4943
 7851TIP3   OH244967   5.541   6.459   5.606 -0.0501 -0.4513  0.5141
 7851TIP3    H144968   5.615   6.481   5.662 -0.2553  0.9082  0.2679
 7851TIP3    H244969   5.527   6.537   5.552 -1.6360 -0.6879  0.5399
 7852TIP3   OH244970   1.478   6.454  11.331  0.4430  0.0767  0.0721
 7852TIP3    H144971   1.468   6.546  11.308 -0.8818 -0.2698 -0.8011
 7852TIP3    H244972   1.566   6.447  11.366  0.5162  1.6940  0.2076
 7853TIP3   OH244973   4.958   0.636  16.572  0.0685  0.0045 -0.0873
 7853TIP3    H144974   4.976   0.610  16.481 -0.6749  0.3373 -0.3341
 7853TIP3    H244975   4.924   0.725  16.565  0.5330  0.2327  0.5717
 7854TIP3   OH244976   2.819   1.290   3.669 -0.9949  0.5647  0.2437
 7854TIP3    H144977   2.742   1.329   3.709 -1.3702  1.3782 -1.2336
 7854TIP3    H244978   2.851   1.357   3.609 -0.7199 -0.7981 -1.1541
 7855TIP3   OH244979   2.341   0.105   5.379 -0.4709  0.3892 -0.3655
 7855TIP3    H144980   2.328   0.199   5.367 -0.4057  0.7502  2.0168
 7855TIP3    H244981   2.406   0.081   5.313 -0.1046  2.1396 -0.6666
 7856TIP3   OH244982   2.340   0.490   2.177  0.2481  0.3748 -0.3094
 7856TIP3    H144983   2.429   0.456   2.169 -0.4029 -1.1174 -1.4151
 7856TIP3    H244984   2.322   0.531   2.093 -0.6063 -0.5576 -0.5884
 7857TIP3   OH244985   2.014   4.582   6.247  0.1618 -0.5089 -0.7473
 7857TIP3    H144986   1.952   4.635   6.297 -0.5054 -0.8154 -1.2403
 7857TIP3    H244987   1.964   4.551   6.171  1.2714  0.3120 -1.8404
 7858TIP3   OH244988   3.467   4.360   1.139  0.0918 -0.0700  0.2738
 7858TIP3    H144989   3.428   4.282   1.179 -1.0421 -0.3254 -1.2922
 7858TIP3    H244990   3.508   4.327   1.059  1.0042  0.6892  0.4174
 7859TIP3   OH244991   3.648   3.593   0.025 -0.5191  0.0117 -0.0614
 7859TIP3    H144992   3.615   3.667   0.077 -0.2294 -0.0056  0.1528
 7859TIP3    H244993   3.574   3.565  -0.028 -0.5504  0.6425 -0.3531
 7860TIP3   OH244994   1.441   0.048   0.040  0.1656 -0.0089  0.0837
 7860TIP3    H144995   1.413   0.048  -0.052  2.3805  0.7174 -0.6019
 7860TIP3    H244996   1.530   0.015   0.038  0.3975  0.4661  1.9316
 7861TIP3   OH244997   3.822   4.041   4.766 -0.3751  0.5906  1.1411
 7861TIP3    H144998   3.771   3.996   4.699 -0.3563  1.0933  0.7927
 7861TIP3    H244999   3.911   4.006   4.756 -0.1801  1.3156  0.3271
 7862TIP3   OH245000   4.377   3.275   4.365 -0.1990  0.1250 -0.0200
 7862TIP3    H145001   4.398   3.290   4.457 -0.2278  0.1525 -0.0175
 7862TIP3    H245002   4.377   3.362   4.326  0.7940  0.0307 -0.2512
 7863TIP3   OH245003   4.148   5.045  12.019  0.0592 -0.1004  0.3429
 7863TIP3    H145004   4.166   5.019  11.928  0.4704  1.5393 -0.0502
 7863TIP3    H245005   4.224   5.097  12.045 -0.5686  0.3661  1.2550
 7864TIP3   OH245006   5.317   2.311   6.405 -0.1377 -1.1528 -0.3562
 7864TIP3    H145007   5.222   2.324   6.408  0.2632  1.9164  0.2759
 7864TIP3    H245008   5.346   2.331   6.494  1.0133 -3.1212 -0.2647
 7865TIP3   OH245009   6.399   2.587   1.431  0.7058 -0.6926  0.2050
 7865TIP3    H145010   6.477   2.551   1.473  1.2049 -0.8452 -0.8512
 7865TIP3    H245011   6.415   2.682   1.428  0.4976 -0.6369  0.6932
 7866TIP3   OH245012   4.909   2.242   1.294 -0.4241 -0.5266 -0.0772
 7866TIP3    H145013   4.949   2.188   1.225  0.1590  1.5415 -1.4023
 7866TIP3    H245014   4.968   2.233   1.369  0.1355 -1.0301 -0.5716
 7867TIP3   OH245015   5.809   0.741   3.168 -0.6528  0.2701 -0.4153
 7867TIP3    H145016   5.900   0.771   3.161  0.0954 -1.9396 -0.5898
 7867TIP3    H245017   5.765   0.781   3.093  0.3114  0.8831 -0.6732
 7868TIP3   OH245018   2.183   4.681   3.166 -0.7858  0.0357  0.3949
 7868TIP3    H145019   2.137   4.744   3.112  0.4513 -1.1164 -2.0659
 7868TIP3    H245020   2.120   4.610   3.179 -1.1913  0.4563  0.7676
 7869TIP3   OH245021   4.304   5.961   5.051  0.2457  0.3160 -0.5855
 7869TIP3    H145022   4.280   6.046   5.088  0.8917  0.1963  0.1067
 7869TIP3    H245023   4.230   5.904   5.072  0.3054  0.4220 -0.0910
 7870TIP3   OH245024   0.692   6.627  11.733 -0.4051 -0.8239  0.1423
 7870TIP3    H145025   0.657   6.586  11.654 -0.7151  1.4063 -0.9309
 7870TIP3    H245026   0.786   6.609  11.729  0.0319  1.5586 -2.2435
 7871TIP3   OH245027   3.447   6.731  12.761  0.2247  0.1239  0.5527
 7871TIP3    H145028   3.490   6.815  12.744  0.3730 -0.0278  0.1761
 7871TIP3    H245029   3.409   6.741  12.848 -0.4352  0.8574  0.1866
 7872TIP3   OH245030   1.140   6.097   3.703  0.3360  0.2054 -0.6379
 7872TIP3    H145031   1.111   6.154   3.632 -0.1366 -0.3566 -0.8984
 7872TIP3    H245032   1.164   6.015   3.660  1.1605  0.2550 -0.2796
 7873TIP3   OH245033   4.089   6.084  15.130  0.9516 -0.1310  0.0446
 7873TIP3    H145034   4.130   6.057  15.212 -1.9304 -2.3091  0.8571
 7873TIP3    H245035   4.090   6.005  15.075 -2.9048 -0.6128  0.4853
 7874TIP3   OH245036   3.994   0.070   1.117  0.1944  0.7688 -0.5260
 7874TIP3    H145037   4.060   0.055   1.185 -1.6811 -1.1182  0.9603
 7874TIP3    H245038   4.044   0.082   1.036  2.4225  1.8460  0.9892
 7875TIP3   OH245039   0.493   1.894  15.753  0.0275  0.4220  0.4035
 7875TIP3    H145040   0.478   1.988  15.757  0.8109  0.7990 -3.2928
 7875TIP3    H245041   0.584   1.886  15.724 -0.1364 -1.4584  0.3332
 7876TIP3   OH245042   2.541   1.478   5.810 -0.4783  0.0137 -0.4003
 7876TIP3    H145043   2.487   1.497   5.733 -1.5420 -0.9700  0.0911
 7876TIP3    H245044   2.569   1.387   5.797  0.1132  0.1529 -0.0884
 7877TIP3   OH245045   2.154   0.136   4.608 -0.3223 -1.0032 -0.1528
 7877TIP3    H145046   2.144   0.230   4.593 -0.2279 -0.9095  0.3378
 7877TIP3    H245047   2.173   0.100   4.522  0.5930 -0.4419 -0.1924
 7878TIP3   OH245048   0.826   4.684  13.894 -0.1912 -0.2864  0.3621
 7878TIP3    H145049   0.854   4.669  13.804 -2.2126 -0.7841 -0.1992
 7878TIP3    H245050   0.784   4.770  13.892  3.1491  1.5024  1.6729
 7879TIP3   OH245051   1.617   1.012   1.581  0.2841  0.2524 -0.0922
 7879TIP3    H145052   1.606   1.106   1.598 -0.3856  0.2213 -0.3494
 7879TIP3    H245053   1.595   0.970   1.664 -2.0373  0.1620 -0.7188
 7880TIP3   OH245054   5.278   1.440   2.497 -0.1849  0.5239  0.1429
 7880TIP3    H145055   5.336   1.396   2.434 -0.4914 -1.5374  1.2464
 7880TIP3    H245056   5.206   1.475   2.444 -0.0847 -0.5787 -0.7334
 7881TIP3   OH245057   5.469   5.900  14.512  0.4368 -0.4670 -0.3327
 7881TIP3    H145058   5.420   5.824  14.482 -0.0593 -0.8334  1.3181
 7881TIP3    H245059   5.555   5.865  14.535  0.4810 -0.3815 -0.3717
 7882TIP3   OH245060   4.001   5.132  12.653  0.5012  0.0500  0.2634
 7882TIP3    H145061   3.912   5.096  12.651  0.6689 -0.3216 -0.5738
 7882TIP3    H245062   3.988   5.226  12.636  0.2817 -0.0319 -0.0272
 7883TIP3   OH245063   1.409   5.156   4.697  0.2556  0.2494 -0.1241
 7883TIP3    H145064   1.323   5.119   4.676 -0.0826  0.3728  1.0261
 7883TIP3    H245065   1.464   5.132   4.622 -1.0985  1.2780 -1.4733
 7884TIP3   OH245066   5.374   5.102  11.679 -0.2498  0.4884 -0.0167
 7884TIP3    H145067   5.300   5.055  11.718 -2.3294  2.1759 -1.7328
 7884TIP3    H245068   5.426   5.132  11.753 -0.8264 -1.4696  1.1981
 7885TIP3   OH245069   3.518   4.094  15.859 -0.3731 -0.0403  0.1705
 7885TIP3    H145070   3.591   4.145  15.895 -1.3013  0.4906  1.3601
 7885TIP3    H245071   3.530   4.097  15.764  0.9316  0.3655  0.3434
 7886TIP3   OH245072   3.061   3.698  16.874 -0.2660 -0.0493  0.0197
 7886TIP3    H145073   3.156   3.685  16.867 -0.2671 -0.5778  0.9004
 7886TIP3    H245074   3.048   3.790  16.855  0.2847 -0.2523 -1.4355
 7887TIP3   OH245075   1.366   3.503  11.204  0.1805 -0.3113 -0.5197
 7887TIP3    H145076   1.459   3.497  11.180  0.8124  1.0769  1.4424
 7887TIP3    H245077   1.350   3.596  11.215 -1.2611 -0.5932 -0.0948
 7888TIP3   OH245078   1.290   6.570   4.740  0.2410  0.0725  0.0838
 7888TIP3    H145079   1.365   6.554   4.796 -2.3278  0.6060  3.8362
 7888TIP3    H245080   1.296   6.662   4.717  0.1281  0.3615  1.2401
 7889TIP3   OH245081   0.559   0.885  12.823  0.2913 -0.3935 -0.0371
 7889TIP3    H145082   0.483   0.904  12.877 -0.4496  1.3446 -1.6480
 7889TIP3    H245083   0.585   0.970  12.787  2.1479 -1.1778 -0.6185
 7890TIP3   OH245084   0.662   5.420  12.051  0.1510  0.0046  0.1474
 7890TIP3    H145085   0.716   5.498  12.063  0.4180 -0.3105  0.9947
 7890TIP3    H245086   0.604   5.443  11.978 -1.4080  1.9176  1.9006
 7891TIP3   OH245087   4.548   2.610  14.082  0.2240  0.3761 -0.0442
 7891TIP3    H145088   4.631   2.563  14.070 -0.8596 -1.5118 -0.3098
 7891TIP3    H245089   4.506   2.565  14.155 -0.3653  1.6140  0.3817
 7892TIP3   OH245090   6.305   3.593   1.878 -0.2297 -0.2858  0.4747
 7892TIP3    H145091   6.308   3.551   1.792 -1.3947  0.5396  0.0154
 7892TIP3    H245092   6.211   3.595   1.900  0.0281 -0.1190  1.5737
 7893TIP3   OH245093   5.393   2.500  16.113  0.1237  0.1252  0.1640
 7893TIP3    H145094   5.306   2.464  16.132 -0.6358  1.1108 -1.3669
 7893TIP3    H245095   5.410   2.560  16.186 -1.7753  2.1585 -1.0162
 7894TIP3   OH245096   5.258   2.259  14.939  0.0256  0.0438 -0.0704
 7894TIP3    H145097   5.197   2.200  14.984  0.9884  0.0981  1.3134
 7894TIP3    H245098   5.319   2.287  15.007  0.1530  1.8930 -0.9373
 7895TIP3   OH245099   4.703   1.413  12.692 -0.1429 -0.0485  0.4058
 7895TIP3    H145100   4.739   1.500  12.677 -0.0668 -0.1013  0.2744
 7895TIP3    H245101   4.622   1.411  12.641 -0.1424 -0.0549  0.4034
 7896TIP3   OH245102   5.966   0.838  15.596 -0.2923 -0.3699 -0.1995
 7896TIP3    H145103   5.915   0.913  15.567 -0.4026  0.0619  1.0653
 7896TIP3    H245104   6.053   0.873  15.614  0.1395 -0.8831 -1.2441
 7897TIP3   OH245105   4.178   1.095  16.485 -0.1172 -0.2163 -0.6850
 7897TIP3    H145106   4.202   1.097  16.577 -0.4185 -0.0838 -0.6114
 7897TIP3    H245107   4.112   1.164  16.475 -1.7934 -1.7620 -0.5214
 7898TIP3   OH245108   5.083   0.773   4.618  0.1594  0.1329 -0.1804
 7898TIP3    H145109   5.151   0.706   4.614 -1.5399 -1.6841  0.1442
 7898TIP3    H245110   5.127   0.855   4.596  2.2932 -1.0993 -0.5738
 7899TIP3   OH245111   2.165   0.258  16.652 -0.0426  1.0100  0.6888
 7899TIP3    H145112   2.135   0.215  16.572 -3.1797  0.2594  2.2028
 7899TIP3    H245113   2.194   0.345  16.623  2.6685 -0.5969 -1.8045
 7900TIP3   OH245114   3.584   3.904  17.211  0.1088 -0.5236  0.2499
 7900TIP3    H145115   3.510   3.959  17.186  0.3920 -0.6773 -0.9350
 7900TIP3    H245116   3.577   3.828  17.154 -0.5752 -1.9851  2.2102
 7901TIP3   OH245117   1.646   5.830   3.582  0.1821 -0.1031  0.6130
 7901TIP3    H145118   1.594   5.750   3.589 -1.9680  1.1395 -0.6073
 7901TIP3    H245119   1.668   5.836   3.489  0.0613  0.8785  0.6448
 7902TIP3   OH245120   5.808   1.826  13.251  0.2554 -0.2315  0.2881
 7902TIP3    H145121   5.776   1.908  13.288 -0.6465 -0.7148  0.6102
 7902TIP3    H245122   5.793   1.761  13.320 -0.7700 -0.9988 -0.6304
 7903TIP3   OH245123   2.530   1.095  16.070 -0.1181  0.1693 -0.3377
 7903TIP3    H145124   2.546   1.002  16.058  1.4238  0.4169 -0.3665
 7903TIP3    H245125   2.506   1.104  16.162 -3.6164 -0.6523 -1.0798
 7904TIP3   OH245126   1.337   0.404   0.841 -0.1368  0.2270  0.4293
 7904TIP3    H145127   1.351   0.357   0.759  0.7510 -0.0683  0.7497
 7904TIP3    H245128   1.365   0.494   0.823  0.9273 -0.0548  0.6824
 7905TIP3   OH245129   0.144   2.962  14.687 -0.0552 -0.3641  0.2433
 7905TIP3    H145130   0.190   2.919  14.759  1.2417  0.9657  0.2311
 7905TIP3    H245131   0.170   3.054  14.694  0.5629 -0.3251 -2.2731
 7906TIP3   OH245132   2.914   4.126  13.046  0.7548  0.6127 -0.1151
 7906TIP3    H145133   2.887   4.042  13.084 -1.0698  0.8875 -0.8077
 7906TIP3    H245134   2.899   4.189  13.116 -0.2566  0.7431 -0.4495
 7907TIP3   OH245135   1.211   1.301   0.339 -0.2413  0.1371 -0.0078
 7907TIP3    H145136   1.168   1.233   0.287  1.0203 -0.2240 -0.5916
 7907TIP3    H245137   1.174   1.383   0.305  0.3209 -0.1169 -1.2554
 7908TIP3   OH245138   1.458   0.106  12.043 -0.4230  0.0835  0.5065
 7908TIP3    H145139   1.425   0.160  11.970 -1.7592 -0.0879  0.9762
 7908TIP3    H245140   1.547   0.082  12.016 -0.6688  0.5583 -0.7850
 7909TIP3   OH245141   0.680   0.812   0.393  0.4447  0.1620  0.2215
 7909TIP3    H145142   0.654   0.770   0.475  1.7763  0.3106  0.7395
 7909TIP3    H245143   0.628   0.893   0.390 -2.0447 -1.4306 -0.7343
 7910TIP3   OH245144   6.197   2.353   0.791  0.1649  0.1969 -0.0721
 7910TIP3    H145145   6.225   2.392   0.708  0.1959  0.7945  0.2121
 7910TIP3    H245146   6.259   2.389   0.856  0.3101 -0.4765  0.1657
 7911TIP3   OH245147   6.142   2.384  10.647 -0.1353 -0.2428 -0.1392
 7911TIP3    H145148   6.183   2.460  10.604 -1.5495  0.5097 -0.1804
 7911TIP3    H245149   6.052   2.412  10.663 -0.2219 -1.3353  1.3184
 7912TIP3   OH245150   5.756   6.343   1.494  0.3009  0.1201  0.0195
 7912TIP3    H145151   5.789   6.432   1.497  0.1039  0.1557  1.8876
 7912TIP3    H245152   5.835   6.288   1.491  0.4300  0.3298 -0.4518
 7913TIP3   OH245153   6.747   6.097   2.910  0.3798  0.4896  0.4942
 7913TIP3    H145154   6.754   6.036   2.983 -2.0913  0.5735  0.8545
 7913TIP3    H245155   6.770   6.182   2.948  0.9701  0.2384  0.7047
 7914TIP3   OH245156   0.642   4.822   4.256 -0.2967 -0.5842  0.1372
 7914TIP3    H145157   0.719   4.845   4.308 -1.3454  1.3608  0.8945
 7914TIP3    H245158   0.671   4.831   4.165  0.0885  1.2816  0.4040
 7915TIP3   OH245159   2.982   3.857  14.437  0.2902  0.2629  0.1022
 7915TIP3    H145160   3.072   3.830  14.457 -1.0363 -2.3490  2.8666
 7915TIP3    H245161   2.954   3.797  14.368  0.2853  0.3473  0.0305
 7916TIP3   OH245162   1.384   3.402   0.185 -0.1512 -0.2704  0.3948
 7916TIP3    H145163   1.320   3.352   0.237 -0.5253 -1.9600 -1.6476
 7916TIP3    H245164   1.468   3.385   0.228 -0.3867 -2.0290  0.2108
 7917TIP3   OH245165   3.790   6.069  15.365 -0.2425 -0.0365  0.4884
 7917TIP3    H145166   3.735   6.073  15.286  1.7763 -2.7642 -1.1611
 7917TIP3    H245167   3.788   6.158  15.400 -1.2220  1.2542 -2.6388
 7918TIP3   OH245168   3.463   2.602   3.023 -0.2932  0.3671 -0.0026
 7918TIP3    H145169   3.450   2.593   2.929  1.6068  0.7629 -0.3213
 7918TIP3    H245170   3.552   2.637   3.032 -1.0135  1.8039  1.8766
 7919TIP3   OH245171   6.052   5.957   3.665  0.2712  0.0568 -0.3514
 7919TIP3    H145172   6.052   5.889   3.597 -4.0609 -0.4642  0.0526
 7919TIP3    H245173   6.005   6.030   3.626 -0.2925  0.5932  1.3194
 7920TIP3   OH245174   2.792   1.853   3.975 -0.0354  0.2505  0.5433
 7920TIP3    H145175   2.733   1.803   4.032  0.7481 -1.5173 -0.1623
 7920TIP3    H245176   2.747   1.936   3.961 -2.3622 -1.0689 -0.0120
 7921TIP3   OH245177   0.730   3.860  16.642  0.0445  0.6230  0.0145
 7921TIP3    H145178   0.793   3.844  16.572 -0.2156  0.0871 -0.0981
 7921TIP3    H245179   0.678   3.935  16.611 -1.4892 -0.9532 -1.3597
 7922TIP3   OH245180   0.929   2.060  11.139  0.2005 -0.7307 -0.3900
 7922TIP3    H145181   0.891   1.999  11.076 -0.4918  0.0018 -0.6962
 7922TIP3    H245182   0.982   2.120  11.085 -1.1101  0.4450 -0.4036
 7923TIP3   OH245183   5.694   1.753   3.844  0.0270 -0.1697 -0.6604
 7923TIP3    H145184   5.777   1.782   3.805 -0.1868  2.1492  0.5375
 7923TIP3    H245185   5.711   1.750   3.938 -0.8720 -0.9335 -0.5186
 7924TIP3   OH245186   2.601   5.176  13.910 -0.1425  0.4723 -0.6568
 7924TIP3    H145187   2.534   5.228  13.867  0.1269  0.5560 -0.9766
 7924TIP3    H245188   2.660   5.239  13.949 -1.4877  0.3925  1.5792
 7925TIP3   OH245189   6.105   1.658  16.607 -0.2718  0.2837 -0.3294
 7925TIP3    H145190   6.153   1.587  16.650  0.8004  0.9527 -0.4016
 7925TIP3    H245191   6.165   1.692  16.542 -0.4126  1.8791  0.3495
 7926TIP3   OH245192   4.308   5.719   1.640 -0.2408  0.1030  0.2833
 7926TIP3    H145193   4.289   5.626   1.632 -1.0855  0.2600  0.4382
 7926TIP3    H245194   4.266   5.746   1.721 -0.8559  0.8248 -0.2605
 7927TIP3   OH245195   0.895   5.810  13.875  0.3358 -0.2403 -0.3328
 7927TIP3    H145196   0.915   5.896  13.913  0.3686 -0.1971 -0.4457
 7927TIP3    H245197   0.979   5.767  13.867  0.3235 -0.2676 -0.3098
 7928TIP3   OH245198   5.877   0.789  17.025 -0.2611 -0.0619 -0.2398
 7928TIP3    H145199   5.838   0.819  16.943  0.4352 -0.2017 -0.6232
 7928TIP3    H245200   5.802   0.767  17.081 -0.7548  1.4045 -0.3188
 7929TIP3   OH245201   4.141   3.281   1.339  0.0083 -0.4128 -0.0142
 7929TIP3    H145202   4.197   3.230   1.398  0.7103  1.8232  1.3155
 7929TIP3    H245203   4.201   3.312   1.271 -0.3261 -1.0058 -0.5765
 7930TIP3   OH245204   3.820   0.183   3.653  0.3993  0.3337 -0.2963
 7930TIP3    H145205   3.733   0.152   3.678  0.5315 -0.5882 -0.9628
 7930TIP3    H245206   3.815   0.278   3.662  0.1210  0.1226  2.1654
 7931TIP3   OH245207   4.349   5.735  14.213  0.3679  0.4651  0.3952
 7931TIP3    H145208   4.312   5.654  14.248  0.7038  0.5243  0.9007
 7931TIP3    H245209   4.275   5.796  14.212  0.3123  0.4124  0.8577
 7932TIP3   OH245210   5.987   3.337   2.970 -0.3159 -0.4066  0.3520
 7932TIP3    H145211   5.920   3.320   2.904  0.7394  0.9354 -1.0859
 7932TIP3    H245212   5.971   3.427   2.999  0.0031 -0.5609  1.0166
 7933TIP3   OH245213   5.858   1.093   5.206  0.2714  0.1030  0.0946
 7933TIP3    H145214   5.851   1.077   5.301 -0.6858  0.0248  0.0157
 7933TIP3    H245215   5.939   1.144   5.197  0.6821 -0.3939  0.8884
 7934TIP3   OH245216   6.113   1.834   3.648  0.4313  0.0988  0.2991
 7934TIP3    H145217   6.079   1.896   3.712  1.4602 -1.2027  2.1626
 7934TIP3    H245218   6.197   1.806   3.683  2.0857  0.9832 -2.7284
 7935TIP3   OH245219   6.701   2.283   5.382  0.0116 -0.2794  0.2435
 7935TIP3    H145220   6.655   2.353   5.429  1.2445  1.3760 -0.9450
 7935TIP3    H245221   6.787   2.278   5.422  0.5206  0.0615 -0.7816
 7936TIP3   OH245222   4.494   2.235  11.660 -0.0314 -0.2252  0.3211
 7936TIP3    H145223   4.477   2.325  11.689  0.7347  0.5618 -1.6008
 7936TIP3    H245224   4.585   2.235  11.632 -0.2200 -1.4153 -0.3443
 7937TIP3   OH245225   0.589   2.000   3.973  0.5925  0.3957 -0.2933
 7937TIP3    H145226   0.677   1.966   3.961  0.3642 -0.4973  0.5229
 7937TIP3    H245227   0.565   2.037   3.887  2.2216  1.7835 -0.1737
 7938TIP3   OH245228   5.010   0.244  10.881  0.6336 -0.1911  0.7286
 7938TIP3    H145229   5.059   0.205  10.808  1.6273  0.9272  0.7658
 7938TIP3    H245230   4.933   0.283  10.840  0.4018 -0.8906  0.4896
 7939TIP3   OH245231   5.317   2.881  16.064  0.0480 -0.3263  0.0783
 7939TIP3    H145232   5.390   2.915  16.115  0.1557 -0.1587 -0.1869
 7939TIP3    H245233   5.321   2.929  15.981  0.7001 -1.5890 -0.6347
 7940TIP3   OH245234   3.414   2.752  12.688  0.3550  0.0568  0.0270
 7940TIP3    H145235   3.426   2.714  12.775  0.3059 -1.6059 -0.6709
 7940TIP3    H245236   3.331   2.717  12.657 -1.1184  3.0063  0.4877
 7941TIP3   OH245237   1.681   6.738  14.549  0.2026  0.7644  0.0312
 7941TIP3    H145238   1.687   6.834  14.556 -0.9092  0.8083  0.6087
 7941TIP3    H245239   1.599   6.724  14.501  0.0089  0.0882  0.5627
 7942TIP3   OH245240   1.186   2.339  15.419  0.0066  0.5407 -0.1978
 7942TIP3    H145241   1.091   2.330  15.408 -0.1494  2.4233 -0.6508
 7942TIP3    H245242   1.199   2.346  15.514 -0.2437 -0.2165 -0.1039
 7943TIP3   OH245243   4.157   5.557   4.356 -0.2687 -0.6694  0.0080
 7943TIP3    H145244   4.160   5.464   4.337 -1.0689 -1.1385  2.0509
 7943TIP3    H245245   4.224   5.570   4.423 -0.2884  0.2003 -0.1341
 7944TIP3   OH245246   4.168   0.359  15.695  0.4233  0.1812 -0.1414
 7944TIP3    H145247   4.263   0.367  15.704  0.1534  2.6599  0.7986
 7944TIP3    H245248   4.150   0.269  15.723  2.4825 -0.3387 -0.3441
 7945TIP3   OH245249   0.510   1.930   6.340  0.1723  0.0080  0.0970
 7945TIP3    H145250   0.479   1.995   6.404  0.6694 -0.1719  0.5292
 7945TIP3    H245251   0.605   1.943   6.339  0.2582 -0.6352  0.0986
 7946TIP3   OH245252   6.580   5.975   2.741 -0.5201 -0.0019  0.1189
 7946TIP3    H145253   6.502   6.031   2.747 -0.7279 -0.2990  0.2208
 7946TIP3    H245254   6.632   5.998   2.818 -2.2525 -2.4137  2.1035
 7947TIP3   OH245255   4.137   4.858   0.200 -0.4286  0.3161 -0.3279
 7947TIP3    H145256   4.113   4.950   0.212  1.3193  0.6281  0.8151
 7947TIP3    H245257   4.117   4.841   0.108 -0.3617  1.9592 -0.6652
 7948TIP3   OH245258   5.528   1.169   0.838 -0.2835 -0.1892  0.4758
 7948TIP3    H145259   5.539   1.195   0.930 -0.7393  1.6244  0.0503
 7948TIP3    H245260   5.452   1.111   0.838  0.1447 -0.7514  1.3445
 7949TIP3   OH245261   1.252   5.737  14.604 -0.5152  0.2597  0.0142
 7949TIP3    H145262   1.239   5.774  14.517 -0.2871 -1.1915 -0.6458
 7949TIP3    H245263   1.345   5.718  14.609 -0.6567 -0.3522  0.3031
 7950TIP3   OH245264   5.853   4.805  13.697 -0.0824  0.0069  0.4027
 7950TIP3    H145265   5.930   4.838  13.742  1.1578 -0.0139 -1.6194
 7950TIP3    H245266   5.832   4.723  13.741  1.2527 -0.1376  0.7728
 7951TIP3   OH245267   1.488   5.458  16.492  0.4681  0.3928 -0.2086
 7951TIP3    H145268   1.414   5.445  16.433  1.3308 -0.9845 -1.0192
 7951TIP3    H245269   1.541   5.526  16.451  0.3493  0.4211 -0.3133
 7952TIP3   OH245270   0.165   4.148   4.704  0.4018 -0.2416  0.1556
 7952TIP3    H145271   0.235   4.212   4.712  0.9628 -0.9316  0.8621
 7952TIP3    H245272   0.197   4.071   4.751 -1.0263 -0.4011  0.9061
 7953TIP3   OH245273   4.765   5.712  14.065  0.2490 -0.2232  0.0149
 7953TIP3    H145274   4.750   5.806  14.059  2.0222  0.1190  0.5608
 7953TIP3    H245275   4.825   5.692  13.993  0.8920 -0.6930  0.6662
 7954TIP3   OH245276   0.562   2.091   4.787  0.1148 -0.2643  0.1997
 7954TIP3    H145277   0.633   2.029   4.768 -0.6416 -0.8453 -0.7534
 7954TIP3    H245278   0.590   2.173   4.746  0.1154 -0.5652 -0.4014
 7955TIP3   OH245279   0.360   3.820  12.136  0.2870 -0.0614 -0.4249
 7955TIP3    H145280   0.443   3.836  12.089 -0.2638 -1.5133 -1.9578
 7955TIP3    H245281   0.349   3.725  12.131 -0.1230 -0.1660  2.1536
 7956TIP3   OH245282   1.660   0.953  11.757 -0.3106 -0.0717  0.2477
 7956TIP3    H145283   1.712   0.890  11.808 -0.5544 -1.5299 -1.2763
 7956TIP3    H245284   1.702   1.037  11.774  0.4810 -0.7317  1.7195
 7957TIP3   OH245285   3.513   3.781  16.334 -0.7288  0.1258 -0.6764
 7957TIP3    H145286   3.571   3.823  16.271  2.1083  0.3543  1.9565
 7957TIP3    H245287   3.466   3.853  16.375  1.0767  0.4546  0.8963
 7958TIP3   OH245288   2.153   4.484   4.424  0.3610 -0.6852  0.1098
 7958TIP3    H145289   2.167   4.575   4.398  1.2815 -0.4190  1.5057
 7958TIP3    H245290   2.075   4.457   4.375 -0.2601  1.0250  0.1356
 7959TIP3   OH245291   3.034   1.815  16.513 -0.3460  0.0293 -0.4565
 7959TIP3    H145292   3.118   1.818  16.470 -0.5653  0.7978 -0.8285
 7959TIP3    H245293   3.041   1.741  16.574  1.0082  0.8521  0.3930
 7960TIP3   OH245294   3.213   6.636  13.445 -0.6837  0.1622  0.0832
 7960TIP3    H145295   3.228   6.572  13.515 -0.2342 -0.6706 -0.7694
 7960TIP3    H245296   3.264   6.603  13.371 -1.7020  0.6740 -0.8566
 7961TIP3   OH245297   5.988   2.018  14.059  0.5537 -0.0937 -0.7075
 7961TIP3    H145298   6.028   1.975  14.135  1.2362  1.6214 -0.0684
 7961TIP3    H245299   5.989   1.951  13.990 -0.7354 -1.8867  0.9884
 7962TIP3   OH245300   5.982   1.159  12.331 -0.2029 -0.5912 -0.1731
 7962TIP3    H145301   6.062   1.139  12.283 -0.8461 -1.9875 -0.6996
 7962TIP3    H245302   6.010   1.168  12.422  0.6872 -0.1287 -0.4910
 7963TIP3   OH245303   2.118   2.609   0.501 -0.5183  0.1770  0.0879
 7963TIP3    H145304   2.153   2.531   0.544  1.0912 -0.3045 -2.0545
 7963TIP3    H245305   2.023   2.604   0.517 -0.4365 -2.1889 -0.0183
 7964TIP3   OH245306   0.996   6.619  11.744 -0.2739 -0.0835 -0.1712
 7964TIP3    H145307   1.039   6.698  11.778  0.5013  0.4919 -2.4418
 7964TIP3    H245308   1.030   6.548  11.799  1.4615  0.7389 -0.1473
 7965TIP3   OH245309   5.397   6.257   3.282  0.0843 -0.1030 -0.3882
 7965TIP3    H145310   5.313   6.216   3.303 -0.6185  1.1266 -0.7669
 7965TIP3    H245311   5.374   6.339   3.239  1.4849  0.3253 -0.3491
 7966TIP3   OH245312   1.109   5.247   4.353  0.1464  0.1994  0.4459
 7966TIP3    H145313   1.072   5.333   4.373  0.8574  1.0892 -1.9039
 7966TIP3    H245314   1.166   5.227   4.428 -1.5876  0.8166  1.9699
 7967TIP3   OH245315   6.231   0.968   5.341  0.9022 -0.1099 -0.4639
 7967TIP3    H145316   6.184   1.044   5.376 -0.2335 -1.0940  0.2166
 7967TIP3    H245317   6.173   0.933   5.273  0.4100 -1.6150  0.7031
 7968TIP3   OH245318   0.012   2.274  11.050 -0.1583  0.3851  0.6146
 7968TIP3    H145319  -0.076   2.236  11.054  0.3784 -1.0019 -0.4933
 7968TIP3    H245320   0.069   2.206  11.084  0.4636  1.4292  1.6968
 7969TIP3   OH245321   2.427   0.180  13.525  0.3137 -0.9921 -0.0362
 7969TIP3    H145322   2.342   0.166  13.484 -0.6841 -0.7924  1.8751
 7969TIP3    H245323   2.480   0.106  13.498  0.1627 -0.1172 -2.8361
 7970TIP3   OH245324   2.940   5.582   2.839 -0.2259  0.2303  0.0797
 7970TIP3    H145325   2.888   5.620   2.768 -1.0658 -1.9054 -0.4783
 7970TIP3    H245326   2.914   5.490   2.842 -1.5116  0.6191  4.3209
 7971TIP3   OH245327   2.238   6.449   5.128  0.5104 -0.0693  0.4115
 7971TIP3    H145328   2.220   6.495   5.210 -2.2713 -1.6709  0.7574
 7971TIP3    H245329   2.171   6.381   5.123  1.5392 -0.9578 -2.4823
 7972TIP3   OH245330   0.028   4.389   1.592 -0.2880  0.1633  0.0365
 7972TIP3    H145331   0.030   4.460   1.656 -0.4005  0.2512 -0.0553
 7972TIP3    H245332   0.055   4.431   1.510  2.2817 -0.4662  0.5155
 7973TIP3   OH245333   4.378   4.061  14.176  0.1698 -0.3117 -0.5721
 7973TIP3    H145334   4.342   4.136  14.223  1.6846 -0.3723  0.7045
 7973TIP3    H245335   4.400   4.095  14.089 -1.2293  0.1624 -0.7532
 7974TIP3   OH245336   4.974   0.863   5.517 -0.7547  0.6236 -0.6146
 7974TIP3    H145337   4.915   0.843   5.590 -0.5544  0.0249 -0.6126
 7974TIP3    H245338   4.997   0.777   5.481 -1.3738  0.9488 -1.7990
 7975TIP3   OH245339   3.788   5.856   4.570  0.1886 -0.5292  0.4617
 7975TIP3    H145340   3.701   5.828   4.540  0.8405 -1.0443 -1.0361
 7975TIP3    H245341   3.827   5.900   4.494  1.1286 -0.0428  1.2064
 7976TIP3   OH245342   3.692   1.862   3.406 -0.3223  0.0162  0.2304
 7976TIP3    H145343   3.681   1.787   3.464  0.8224 -0.2320  0.1366
 7976TIP3    H245344   3.773   1.903   3.435 -0.2900  0.4896 -0.5259
 7977TIP3   OH245345   0.523   5.007   2.041  0.0980 -0.1767  0.4649
 7977TIP3    H145346   0.600   5.063   2.049 -0.9406  1.2207  1.0798
 7977TIP3    H245347   0.452   5.059   2.079 -1.3760 -0.9348 -1.1451
 7978TIP3   OH245348   2.928   0.262   3.599  0.2245 -0.0503 -0.0037
 7978TIP3    H145349   2.953   0.354   3.585  0.3967  0.1475  1.4780
 7978TIP3    H245350   2.909   0.229   3.512  0.9965  1.1602 -0.6536
 7979TIP3   OH245351   1.760   6.133  14.964 -0.4122 -0.3595 -0.3204
 7979TIP3    H145352   1.791   6.180  14.885 -1.3246 -0.4380 -0.7254
 7979TIP3    H245353   1.773   6.041  14.943 -0.5293 -0.3754 -0.3197
 7980TIP3   OH245354   2.513   2.140  13.636 -0.2460 -0.0214  0.1201
 7980TIP3    H145355   2.461   2.130  13.557  2.2647 -1.0548 -1.4716
 7980TIP3    H245356   2.553   2.227  13.628  0.6286 -0.4442 -0.1363
 7981TIP3   OH245357   3.019   5.178  15.899 -0.2480 -0.3329  0.1325
 7981TIP3    H145358   2.928   5.192  15.924 -0.5790 -2.6100  0.3225
 7981TIP3    H245359   3.015   5.105  15.838  1.5349 -0.9379  0.7291
 7982TIP3   OH245360   4.616   2.981  12.835  0.1676  0.0519 -0.0699
 7982TIP3    H145361   4.642   3.064  12.795 -0.3964  0.6688  0.8077
 7982TIP3    H245362   4.572   2.933  12.765  0.5877  0.4513 -0.6125
 7983TIP3   OH245363   3.229   1.141  11.409  0.4412 -0.3398 -0.0807
 7983TIP3    H145364   3.286   1.204  11.453  1.1597 -1.6137  0.8568
 7983TIP3    H245365   3.146   1.146  11.456  0.6243 -0.3755  0.2447
 7984TIP3   OH245366   5.897   1.720   0.678 -0.0172  0.3814  0.2010
 7984TIP3    H145367   5.824   1.765   0.636  0.0754  0.0765 -0.2924
 7984TIP3    H245368   5.968   1.784   0.678  0.0531  0.3055 -0.3221
 7985TIP3   OH245369   0.750   4.092  14.692 -0.1527  0.5353 -0.0577
 7985TIP3    H145370   0.668   4.100  14.644  0.3390 -2.2767 -1.4731
 7985TIP3    H245371   0.732   4.026  14.759  0.1600  1.9798  1.4978
 7986TIP3   OH245372   3.059   1.437   0.810  0.4686 -0.4824  1.1264
 7986TIP3    H145373   3.010   1.367   0.852 -0.3282 -0.1393  0.7740
 7986TIP3    H245374   3.062   1.507   0.875  1.0556 -0.7457  1.3882
 7987TIP3   OH245375   5.136   5.463  17.122  0.4691  0.3937 -0.3442
 7987TIP3    H145376   5.140   5.372  17.093 -1.3743 -0.8031  2.9130
 7987TIP3    H245377   5.176   5.463  17.209  0.0837  2.6319 -0.1194
 7988TIP3   OH245378   0.110   6.437  13.270  0.4044 -0.0033  0.5731
 7988TIP3    H145379   0.184   6.378  13.277  1.2759  1.0082  0.0171
 7988TIP3    H245380   0.056   6.418  13.347  1.5858 -0.2553  1.3424
 7989TIP3   OH245381   3.620   3.024  12.087  0.2195 -0.0108  0.5029
 7989TIP3    H145382   3.582   3.087  12.025  0.7551  1.4744  1.6525
 7989TIP3    H245383   3.714   3.041  12.082  0.5976 -2.2352 -0.7828
 7990TIP3   OH245384   3.214   2.427  14.046 -0.1582 -0.7235  0.3190
 7990TIP3    H145385   3.121   2.430  14.068  0.2653  0.2033  2.0337
 7990TIP3    H245386   3.227   2.503  13.990 -0.5008 -1.0650 -0.2315
 7991TIP3   OH245387   3.576   5.622   0.208 -0.2765  0.6465  0.2299
 7991TIP3    H145388   3.663   5.637   0.172 -0.2402  0.6535  0.3209
 7991TIP3    H245389   3.578   5.662   0.295  0.9883 -3.0570  1.9930
 7992TIP3   OH245390   6.348   5.659  14.709 -0.2472  0.0965 -0.4011
 7992TIP3    H145391   6.321   5.677  14.620  0.0542  4.7185  0.3412
 7992TIP3    H245392   6.267   5.657  14.760 -0.2037  0.1726 -0.3282
 7993TIP3   OH245393   3.655   0.873  11.936  0.2141 -0.4221 -0.0064
 7993TIP3    H145394   3.695   0.894  12.020  0.5226  0.2174 -0.3123
 7993TIP3    H245395   3.578   0.820  11.959  0.0014  0.1918  0.7058
 7994TIP3   OH245396   2.187   4.870   1.669  0.3385  0.0834 -0.1460
 7994TIP3    H145397   2.261   4.844   1.724 -0.5564 -0.3380  0.8884
 7994TIP3    H245398   2.110   4.857   1.725 -0.6937 -1.3579 -1.8497
 7995TIP3   OH245399   5.144   5.833   5.341  0.8317 -1.0304 -0.1989
 7995TIP3    H145400   5.134   5.872   5.254 -1.8293 -1.0134  0.0452
 7995TIP3    H245401   5.066   5.777   5.350  1.6543 -1.8984  1.7283
 7996TIP3   OH245402   2.688   2.515   0.150 -1.0207  0.6571  0.3340
 7996TIP3    H145403   2.645   2.476   0.226 -1.4361  0.9342  0.2413
 7996TIP3    H245404   2.764   2.562   0.187 -0.2944 -0.5526  0.4032
 7997TIP3   OH245405   3.340   4.051  12.149 -0.1002 -0.3277  0.1232
 7997TIP3    H145406   3.247   4.033  12.134  0.2640 -1.3301 -1.0268
 7997TIP3    H245407   3.368   3.982  12.209  0.9051 -2.7453 -2.9822
 7998TIP3   OH245408   6.083   2.765   2.435  0.4977 -0.1743  0.3104
 7998TIP3    H145409   6.161   2.756   2.381  1.4561  2.1116  1.2349
 7998TIP3    H245410   6.072   2.679   2.476  2.0114 -0.7744 -0.4975
 7999TIP3   OH245411   4.589   2.027  12.012  0.4309 -0.0824 -1.0335
 7999TIP3    H145412   4.546   1.999  12.093  0.1227  1.3651 -0.6861
 7999TIP3    H245413   4.674   1.984  12.014  1.0227  1.1309  0.8078
 8000TIP3   OH245414   6.316   2.357   5.660  0.0156 -0.4257 -0.6547
 8000TIP3    H145415   6.263   2.283   5.689 -3.8869  1.9003 -1.4078
 8000TIP3    H245416   6.304   2.359   5.565  0.3412  0.9388 -0.6769
 8001TIP3   OH245417   5.393   3.721   1.032  0.1450  0.1686 -0.8628
 8001TIP3    H145418   5.435   3.748   0.950 -0.1929 -1.8505 -1.7307
 8001TIP3    H245419   5.317   3.669   1.005  0.8074 -1.6942  0.7266
 8002TIP3   OH245420   4.030   0.829   2.349  0.3175 -0.6028 -0.6624
 8002TIP3    H145421   3.948   0.877   2.334 -0.8296 -2.7170 -1.3413
 8002TIP3    H245422   4.097   0.886   2.312 -0.9028  0.9144 -0.6047
 8003TIP3   OH245423   5.338   0.121   4.464  0.5126 -0.3574  0.1712
 8003TIP3    H145424   5.359   0.027   4.464  1.7539 -0.0919 -0.6931
 8003TIP3    H245425   5.245   0.124   4.441  1.1356 -1.2565 -2.6739
 8004TIP3   OH245426   2.619   1.227  15.236  0.4802  0.0690  0.0235
 8004TIP3    H145427   2.638   1.310  15.192  0.7110  0.5673  1.0427
 8004TIP3    H245428   2.561   1.251  15.308 -0.8408 -0.9024 -0.6842
 8005TIP3   OH245429   6.225   2.246  13.299 -0.2341  0.0449 -0.0521
 8005TIP3    H145430   6.278   2.298  13.358  0.2706 -0.8406  0.2792
 8005TIP3    H245431   6.169   2.310  13.254 -1.3780  0.6333  2.1215
 8006TIP3   OH245432   2.671   5.815  13.424 -0.5578  0.6430  0.0153
 8006TIP3    H145433   2.619   5.784  13.498 -3.1117  0.6860 -1.7043
 8006TIP3    H245434   2.655   5.751  13.355 -0.3636  2.0407 -1.3604
 8007TIP3   OH245435   1.266   1.606  15.831 -0.1350  0.1207 -0.5451
 8007TIP3    H145436   1.310   1.523  15.844 -2.3460 -1.1518 -0.8548
 8007TIP3    H245437   1.313   1.668  15.887 -0.0580 -1.8996  1.6982
 8008TIP3   OH245438   5.366   0.758   1.701 -0.6661 -0.6373  0.2957
 8008TIP3    H145439   5.275   0.727   1.704 -1.0748  0.1814 -2.0434
 8008TIP3    H245440   5.418   0.681   1.723 -1.8928 -1.3511  0.7971
 8009TIP3   OH245441   1.288   4.039  11.252  0.0012  0.6163 -0.0469
 8009TIP3    H145442   1.357   4.087  11.297 -1.6441  1.7472  1.3521
 8009TIP3    H245443   1.314   4.038  11.160  2.0342  0.7083  0.5092
 8010TIP3   OH245444   5.068   1.986   3.895 -0.5657 -0.0757 -0.7449
 8010TIP3    H145445   5.116   1.910   3.864 -1.2003  0.1279 -2.2482
 8010TIP3    H245446   5.025   1.957   3.976  1.1012 -0.5982 -0.0326
 8011TIP3   OH245447   2.157   2.302   1.840 -0.8961  0.3618 -0.2830
 8011TIP3    H145448   2.097   2.324   1.768 -1.0318 -0.6922 -0.4928
 8011TIP3    H245449   2.133   2.213   1.865 -0.0749  0.3017  0.3005
 8012TIP3   OH245450   1.834   0.602   2.401 -0.0028  0.3844  0.3923
 8012TIP3    H145451   1.830   0.530   2.464 -0.1206 -0.1802 -0.2503
 8012TIP3    H245452   1.922   0.638   2.411 -0.5214  1.2490  1.9156
 8013TIP3   OH245453   6.575   2.989  12.117 -0.1066 -0.1605  0.0491
 8013TIP3    H145454   6.653   3.042  12.098  0.5569 -0.2473  2.4111
 8013TIP3    H245455   6.601   2.900  12.095 -0.2324  0.0795 -1.0987
 8014TIP3   OH245456   5.019   5.634   1.499  0.0035  0.0325 -0.1533
 8014TIP3    H145457   5.057   5.657   1.583 -1.3143 -0.2534  0.5378
 8014TIP3    H245458   4.927   5.616   1.518 -0.6436  1.2948 -1.8640
 8015TIP3   OH245459   1.100   3.615  11.948 -0.1840  0.2494 -0.7277
 8015TIP3    H145460   1.052   3.646  11.871  0.1176 -2.3393 -2.0091
 8015TIP3    H245461   1.057   3.657  12.022 -1.1059  2.0198 -2.2304
 8016TIP3   OH245462   2.593   6.239  13.080 -0.1196  0.4754 -0.1274
 8016TIP3    H145463   2.499   6.238  13.098 -0.1715 -2.0847 -0.2356
 8016TIP3    H245464   2.628   6.169  13.136  1.7069  1.3328 -0.1700
 8017TIP3   OH245465   4.238   5.607   5.535  0.2160 -0.0722  0.7656
 8017TIP3    H145466   4.262   5.530   5.482  0.0737 -0.6507  1.5264
 8017TIP3    H245467   4.318   5.658   5.540 -0.0073  0.4598 -0.7792
 8018TIP3   OH245468   4.531   3.473  15.835  0.7639 -0.0176 -0.9207
 8018TIP3    H145469   4.462   3.524  15.793 -0.9563 -0.5219  1.2184
 8018TIP3    H245470   4.545   3.515  15.919  1.0190 -1.6512 -0.1230
 8019TIP3   OH245471   6.055   1.584  15.308 -0.2499 -0.3976  0.2345
 8019TIP3    H145472   6.093   1.670  15.324 -1.9027  0.6757 -1.4221
 8019TIP3    H245473   5.961   1.595  15.326 -0.3398 -2.1292  1.0004
 8020TIP3   OH245474   4.885   2.494   5.705  0.5395  0.1800  0.3523
 8020TIP3    H145475   4.937   2.415   5.720  1.7968  1.0347  0.6006
 8020TIP3    H245476   4.795   2.467   5.720  0.9401 -1.2510  0.2531
 8021TIP3   OH245477   0.798   1.579  13.177  0.0585  0.1639  0.1719
 8021TIP3    H145478   0.709   1.544  13.169  0.5075 -0.4291 -2.7598
 8021TIP3    H245479   0.855   1.503  13.160  1.1009  0.8982  0.3401
 8022TIP3   OH245480   0.738   6.236  11.548  0.1881  0.1595 -0.2938
 8022TIP3    H145481   0.727   6.165  11.611  1.7317  2.0241  2.1855
 8022TIP3    H245482   0.649   6.261  11.524 -0.4095 -1.1460  0.5180
 8023TIP3   OH245483   3.116   1.369  16.433  0.2374  0.6202 -0.2649
 8023TIP3    H145484   3.189   1.421  16.466  0.6571  0.6191 -1.1587
 8023TIP3    H245485   3.073   1.335  16.511  2.3483 -0.9474  0.2601
 8024TIP3   OH245486   0.382   2.580   5.336 -0.6643 -0.3529  0.0219
 8024TIP3    H145487   0.399   2.674   5.342 -0.2998 -0.4254  0.1612
 8024TIP3    H245488   0.432   2.542   5.409 -0.1167 -0.7438 -0.5464
 8025TIP3   OH245489   5.371   3.758  12.354  0.2100  0.2664  0.5269
 8025TIP3    H145490   5.392   3.775  12.262  2.2858 -1.2283  0.6879
 8025TIP3    H245491   5.445   3.795  12.403 -0.0379 -0.4559  1.4691
 8026TIP3   OH245492   0.664   0.486   0.036 -0.1567 -0.3491 -0.2777
 8026TIP3    H145493   0.706   0.465  -0.047  1.0819 -0.1208  0.2897
 8026TIP3    H245494   0.698   0.422   0.098 -0.2329  0.1688  0.3068
 8027TIP3   OH245495   0.176   6.633   5.151  0.0463 -0.4641  0.1378
 8027TIP3    H145496   0.184   6.663   5.060 -0.4055 -0.1818  0.1886
 8027TIP3    H245497   0.127   6.551   5.145 -0.3632 -0.2227  0.1636
 8028TIP3   OH245498   2.900   5.983   2.060 -0.1126 -0.2207  0.1855
 8028TIP3    H145499   2.960   6.053   2.084 -0.2889  0.3697 -1.0631
 8028TIP3    H245500   2.816   6.010   2.097 -0.1535  0.1745 -0.1887
 8029TIP3   OH245501   0.404   2.986   2.719 -0.1901 -0.0616 -0.4470
 8029TIP3    H145502   0.319   3.023   2.695 -2.5349 -2.2446  3.8470
 8029TIP3    H245503   0.441   3.049   2.781  0.3363 -0.1273 -0.6963
 8030TIP3   OH245504   0.827   0.075  16.306  0.3032  0.2062 -0.1052
 8030TIP3    H145505   0.794   0.149  16.357  0.1347 -1.3262  2.0922
 8030TIP3    H245506   0.873   0.115  16.232 -1.0816  2.4599  0.1978
 8031TIP3   OH245507   1.271   2.374  11.151 -0.0010 -0.2253  0.3357
 8031TIP3    H145508   1.327   2.353  11.077 -2.0415  0.0694 -1.3429
 8031TIP3    H245509   1.329   2.369  11.227  2.2308 -0.1016 -1.3048
 8032TIP3   OH245510   6.076   5.242  11.648  0.0106 -0.1441  0.0887
 8032TIP3    H145511   6.025   5.226  11.728  2.4863 -0.2180  1.7223
 8032TIP3    H245512   6.120   5.325  11.664  0.0636  0.1310 -1.4627
 8033TIP3   OH245513   0.902   3.098   2.147  0.0442 -0.5399 -0.2054
 8033TIP3    H145514   0.817   3.102   2.191  0.0085 -0.6215 -0.2672
 8033TIP3    H245515   0.966   3.110   2.216 -0.0385  0.1950 -0.2502
 8034TIP3   OH245516   1.520   1.494   5.212 -0.6723  0.5716 -0.1037
 8034TIP3    H145517   1.557   1.581   5.228 -0.5933  1.2682 -3.7663
 8034TIP3    H245518   1.591   1.434   5.235  0.7901  1.6710 -1.6098
 8035TIP3   OH245519   1.588   1.510  14.059 -0.2560 -0.3083 -0.2017
 8035TIP3    H145520   1.577   1.415  14.051 -0.1286 -0.4187  0.8198
 8035TIP3    H245521   1.676   1.527  14.024 -0.1462 -0.6196 -0.0856
 8036TIP3   OH245522   1.874   1.461  16.996 -0.0036 -0.2062 -0.1630
 8036TIP3    H145523   1.838   1.466  16.907  0.4787 -1.0146 -0.4143
 8036TIP3    H245524   1.798   1.453  17.053 -0.1964 -3.6255 -0.8157
 8037TIP3   OH245525   2.341   5.796  11.830 -0.2473 -0.1696  0.1434
 8037TIP3    H145526   2.388   5.713  11.843  1.0084  0.7852  1.9243
 8037TIP3    H245527   2.249   5.774  11.846 -0.0812 -1.4657 -0.5578
 8038TIP3   OH245528   2.140   1.294   0.549  1.2688 -0.6964  0.1984
 8038TIP3    H145529   2.223   1.263   0.512  2.0701  0.3440  1.0814
 8038TIP3    H245530   2.150   1.282   0.643  0.3434 -0.7301  0.2933
 8039TIP3   OH245531   1.647   0.078  13.571 -0.0442  0.2378  0.2767
 8039TIP3    H145532   1.636   0.138  13.497 -3.0009 -1.0791 -0.4321
 8039TIP3    H245533   1.736   0.093  13.601 -0.2787  4.0519 -0.6930
 8040TIP3   OH245534   2.301   5.887   2.134 -0.0988  0.2743 -0.1531
 8040TIP3    H145535   2.291   5.796   2.104 -0.7954  0.5352 -0.7378
 8040TIP3    H245536   2.394   5.895   2.155 -0.4329 -1.2183  2.0444
 8041TIP3   OH245537   2.257   0.032  15.908 -0.3537  0.1160  0.2384
 8041TIP3    H145538   2.327   0.097  15.921 -0.9893  0.6416  1.0948
 8041TIP3    H245539   2.298  -0.051  15.932  0.5133  0.1740 -1.0045
 8042TIP3   OH245540   1.376   2.657  16.956  0.7740 -0.3249  0.0211
 8042TIP3    H145541   1.435   2.595  16.999  1.0661 -0.4784 -0.6059
 8042TIP3    H245542   1.359   2.620  16.870 -2.8364 -1.9412  1.3250
 8043TIP3   OH245543   2.413   4.548   2.527 -0.2596  0.1331  0.4391
 8043TIP3    H145544   2.344   4.543   2.593  0.3677 -0.3214  1.0654
 8043TIP3    H245545   2.407   4.638   2.494 -1.1712  0.0866  0.4593
 8044TIP3   OH245546   5.227   4.670   0.543  0.3288  0.1150  0.4357
 8044TIP3    H145547   5.294   4.732   0.572 -1.7523  3.3015 -1.2166
 8044TIP3    H245548   5.222   4.684   0.448  1.3056 -4.2321 -0.3866
 8045TIP3   OH245549   6.736   3.351   3.121  0.0232  0.1528 -0.3441
 8045TIP3    H145550   6.820   3.308   3.111  0.3952  0.7170  0.2584
 8045TIP3    H245551   6.758   3.443   3.139 -0.7490  0.5896 -1.5478
 8046TIP3   OH245552   0.663   4.665   3.278 -0.2211 -0.1865  0.0205
 8046TIP3    H145553   0.736   4.614   3.244  0.7855  0.7256  0.7938
 8046TIP3    H245554   0.699   4.713   3.353 -1.8249 -0.4168  0.9802
 8047TIP3   OH245555   0.075   6.449  11.564  0.0541 -0.2432 -0.2155
 8047TIP3    H145556  -0.012   6.420  11.590  0.5521 -0.4536  1.2649
 8047TIP3    H245557   0.107   6.500  11.638  2.1888 -2.2849  0.3369
 8048TIP3   OH245558   4.952   2.127  16.518 -0.3244  0.1452 -0.3292
 8048TIP3    H145559   4.917   2.191  16.580 -0.2834  1.1579 -1.3199
 8048TIP3    H245560   5.035   2.099  16.557 -0.8571 -0.1055  0.6296
 8049TIP3   OH245561   6.389   0.194  11.974  0.2813 -0.3031  0.1877
 8049TIP3    H145562   6.361   0.193  12.065  1.4937 -0.0628  0.5681
 8049TIP3    H245563   6.391   0.102  11.948 -2.2489 -0.2560 -0.2956
 8050TIP3   OH245564   6.734   5.288  16.172  0.1200 -0.3537  0.2747
 8050TIP3    H145565   6.824   5.256  16.167 -0.3369 -2.0514  2.1503
 8050TIP3    H245566   6.684   5.229  16.116  0.2944  1.2472 -1.6395
 8051TIP3   OH245567   5.430   4.110   2.862 -0.1437 -0.0180 -0.5258
 8051TIP3    H145568   5.495   4.105   2.792  0.5172  0.0915  0.0750
 8051TIP3    H245569   5.440   4.028   2.910 -0.3343  0.0707 -0.3324
 8052TIP3   OH245570   4.402   1.344  15.428  0.2338  0.1407  0.0934
 8052TIP3    H145571   4.473   1.393  15.468 -0.3185  0.3561  0.8159
 8052TIP3    H245572   4.337   1.411  15.406 -0.3710 -0.2198  0.7691
 8053TIP3   OH245573   3.859   0.561   4.690 -0.0018 -0.3240  0.4353
 8053TIP3    H145574   3.852   0.625   4.620  0.8889 -0.5542  0.1150
 8053TIP3    H245575   3.771   0.527   4.702 -0.1633 -0.2475 -0.5475
 8054TIP3   OH245576   5.978   0.370  15.756 -0.3223 -0.1953 -0.5410
 8054TIP3    H145577   6.046   0.312  15.791  0.3882 -0.3893 -2.1944
 8054TIP3    H245578   5.955   0.426  15.830  1.5175 -0.2260  0.0980
 8055TIP3   OH245579   2.240   4.610  11.087  0.4199  0.0247  0.0716
 8055TIP3    H145580   2.278   4.535  11.039  0.5347 -0.4318  0.8711
 8055TIP3    H245581   2.198   4.662  11.019 -0.3992 -1.2158 -0.3956
 8056TIP3   OH245582   1.111   6.020   0.916 -0.4083 -0.3448 -0.5709
 8056TIP3    H145583   1.102   6.103   0.869  0.6293  1.8414  2.8289
 8056TIP3    H245584   1.033   6.014   0.970  0.3117 -0.6992  0.4561
 8057TIP3   OH245585   3.308   1.281   0.210  0.0149 -0.0042  0.1741
 8057TIP3    H145586   3.341   1.344   0.274 -0.9738  0.2505  0.4385
 8057TIP3    H245587   3.269   1.211   0.262 -1.2435  0.4487 -0.1564
 8058TIP3   OH245588   0.175   1.908   2.636 -0.2656 -0.1937 -0.4417
 8058TIP3    H145589   0.241   1.978   2.638 -0.8144  0.3399 -0.9198
 8058TIP3    H245590   0.161   1.885   2.728  0.9303 -0.6356 -0.3541
 8059TIP3   OH245591   0.039   2.158   3.866  0.4376  0.3790  0.0109
 8059TIP3    H145592   0.004   2.215   3.934 -0.5698  0.3577 -0.4831
 8059TIP3    H245593  -0.035   2.104   3.839  0.5801  1.0469 -1.7671
 8060TIP3   OH245594   4.214   6.296  14.250  0.1668 -0.4615 -0.2335
 8060TIP3    H145595   4.190   6.381  14.211 -1.5059 -1.9572 -2.6096
 8060TIP3    H245596   4.278   6.259  14.189  1.7390 -0.4734  1.3752
 8061TIP3   OH245597   0.354   0.612  12.129  0.4466 -0.1127  0.2892
 8061TIP3    H145598   0.431   0.558  12.111 -0.2597 -1.2767  0.6910
 8061TIP3    H245599   0.341   0.604  12.224 -0.5069 -0.3850  0.1395
 8062TIP3   OH245600   0.582   6.518   4.982  0.1437  0.6035  0.2181
 8062TIP3    H145601   0.634   6.454   5.031 -1.5020 -1.4264 -0.6297
 8062TIP3    H245602   0.593   6.492   4.890 -0.6489  1.4629 -0.1262
 8063TIP3   OH245603   0.954   5.558   3.120 -0.1037 -0.2276 -0.1252
 8063TIP3    H145604   0.975   5.585   3.210  1.0231 -0.6617 -0.2455
 8063TIP3    H245605   0.909   5.634   3.082  1.2675  0.7481  0.1628
 8064TIP3   OH245606   3.172   2.605   2.842  0.0547  0.2967 -0.7814
 8064TIP3    H145607   3.117   2.575   2.914 -0.0388 -1.2667 -1.4786
 8064TIP3    H245608   3.219   2.680   2.877  0.8098 -1.0816  1.2662
 8065TIP3   OH245609   1.613   2.793  11.754 -0.7881 -0.3360 -0.3549
 8065TIP3    H145610   1.580   2.753  11.674  1.9056  0.1077 -1.7378
 8065TIP3    H245611   1.707   2.774  11.754 -0.1818  2.3585  1.0892
 8066TIP3   OH245612   3.202   1.674  17.182 -0.9643  0.4176  0.0772
 8066TIP3    H145613   3.211   1.651  17.275  2.6795 -1.9835 -0.7470
 8066TIP3    H245614   3.250   1.756  17.173  0.2205 -0.2669  0.0254
 8067TIP3   OH245615   2.079   5.562   3.610  0.5425 -0.1564 -0.1988
 8067TIP3    H145616   2.019   5.488   3.616  0.0691  0.0128 -2.2906
 8067TIP3    H245617   2.156   5.535   3.659 -0.7956 -0.8240  1.5755
 8068TIP3   OH245618   4.770   1.986   4.484 -0.5106 -0.2025  0.0647
 8068TIP3    H145619   4.717   2.015   4.410  0.4766  1.7235  0.0769
 8068TIP3    H245620   4.821   2.063   4.509  2.7643 -2.1089 -0.3679
 8069TIP3   OH245621   2.693   6.625   4.694 -0.2028  0.0044  0.5618
 8069TIP3    H145622   2.603   6.646   4.670 -0.9070 -3.1992  0.2226
 8069TIP3    H245623   2.739   6.618   4.610  0.2901  1.1628  0.7177
 8070TIP3   OH245624   1.453   3.732  15.442  0.5016  0.0396 -0.6647
 8070TIP3    H145625   1.387   3.761  15.506  1.3429  0.7577 -0.1089
 8070TIP3    H245626   1.528   3.705  15.496  1.1905  0.5755 -1.3503
 8071TIP3   OH245627   1.392   6.622  13.976 -0.3727  0.0054 -0.2177
 8071TIP3    H145628   1.403   6.617  13.881  0.1604 -2.0246 -0.0737
 8071TIP3    H245629   1.481   6.618  14.011 -0.6148 -0.2460  0.3903
 8072TIP3   OH245630   1.010   5.558   5.286 -0.5160 -0.2692 -0.0278
 8072TIP3    H145631   1.069   5.632   5.297 -0.7531 -0.1044  0.1546
 8072TIP3    H245632   1.047   5.508   5.213 -0.3328  0.0068 -0.1247
 8073TIP3   OH245633   1.694   6.641  13.005  0.3624  0.2845 -0.4449
 8073TIP3    H145634   1.634   6.644  12.931  0.1258 -1.8239 -0.3554
 8073TIP3    H245635   1.642   6.672  13.080  0.1144  0.7973 -0.8256
 8074TIP3   OH245636   0.586   6.411   3.435 -0.2060 -0.1881  0.2247
 8074TIP3    H145637   0.514   6.351   3.415 -0.2211 -0.1901  0.2854
 8074TIP3    H245638   0.587   6.417   3.530 -0.2828  0.0056  0.2123
 8075TIP3   OH245639   3.407   2.301   5.062 -0.6424  0.6074  0.1954
 8075TIP3    H145640   3.430   2.378   5.011 -1.1338 -0.2805 -1.3932
 8075TIP3    H245641   3.475   2.297   5.130  0.1994  1.6268 -0.5584
 8076TIP3   OH245642   6.119   4.814  13.593  0.3419 -0.1456  0.3505
 8076TIP3    H145643   6.209   4.844  13.600 -0.4067  2.5546 -0.8551
 8076TIP3    H245644   6.073   4.860  13.663 -0.2707 -0.8655  0.4320
 8077TIP3   OH245645   2.373   3.052   2.155  0.5453 -0.5234  0.4927
 8077TIP3    H145646   2.344   3.133   2.113 -0.4468 -1.3233 -0.3719
 8077TIP3    H245647   2.448   3.079   2.208  0.4715  0.8924 -0.0904
 8078TIP3   OH245648   0.334   2.051  16.763  0.0730  0.2708 -0.1707
 8078TIP3    H145649   0.272   2.001  16.710  3.1829 -3.4912 -0.5166
 8078TIP3    H245650   0.368   2.117  16.703  1.2261 -1.9189 -2.0270
 8079TIP3   OH245651   2.887   2.177  13.382  0.4179 -0.8075 -0.2183
 8079TIP3    H145652   2.888   2.265  13.345  3.6366 -1.0648 -0.8818
 8079TIP3    H245653   2.928   2.186  13.468 -0.3684 -1.4693  0.2421
 8080TIP3   OH245654   5.397   4.032  16.964  0.6556  0.4300 -0.1909
 8080TIP3    H145655   5.349   4.073  16.892 -2.8135 -1.9673  0.6305
 8080TIP3    H245656   5.369   3.941  16.962  2.4508 -0.2349  2.6579
 8081TIP3   OH245657   3.671   0.701  13.569  0.1179 -0.2979 -0.6019
 8081TIP3    H145658   3.677   0.792  13.598  1.7386 -0.0154 -1.7720
 8081TIP3    H245659   3.648   0.652  13.648 -0.3636  1.0756  0.1222
 8082TIP3   OH245660   2.328   0.760  15.862 -0.4177 -0.1058 -0.1315
 8082TIP3    H145661   2.309   0.793  15.950 -1.2367 -0.3895 -0.1936
 8082TIP3    H245662   2.321   0.837  15.805 -0.9602 -0.1226 -0.0918
 8083TIP3   OH245663   2.666   2.097   3.982 -0.0037 -0.1795  0.2758
 8083TIP3    H145664   2.656   2.161   3.912  0.2260  0.7265  1.0628
 8083TIP3    H245665   2.658   2.148   4.063 -0.6048 -1.2624  0.9156
 8084TIP3   OH245666   4.748   0.778  12.379  0.0421 -0.1501 -0.3821
 8084TIP3    H145667   4.811   0.713  12.348 -1.3843 -0.7087 -2.1984
 8084TIP3    H245668   4.781   0.861  12.345 -1.0975 -0.6618 -2.7996
 8085TIP3   OH245669   3.458   1.821  12.360  0.5577 -0.2233  1.1268
 8085TIP3    H145670   3.369   1.822  12.395  0.2078 -0.1486  0.2439
 8085TIP3    H245671   3.448   1.796  12.268  1.5273 -1.0407  1.2327
 8086TIP3   OH245672   4.853   5.370  16.308  0.1780 -0.3635 -0.0422
 8086TIP3    H145673   4.793   5.300  16.336  0.6166 -1.0972 -0.9069
 8086TIP3    H245674   4.797   5.445  16.291 -0.7119 -1.5770 -2.6195
 8087TIP3   OH245675   4.704   6.645   1.458  0.0680 -0.2242  0.2816
 8087TIP3    H145676   4.617   6.672   1.429 -0.2542 -0.9258  0.6008
 8087TIP3    H245677   4.747   6.727   1.484 -1.2614 -0.1069  2.1899
 8088TIP3   OH245678   2.173   2.387   3.460 -0.3338  0.0319  0.5321
 8088TIP3    H145679   2.089   2.396   3.415 -0.5386  0.9368  1.0774
 8088TIP3    H245680   2.202   2.298   3.440 -1.1295 -0.0768 -0.1572
 8089TIP3   OH245681   5.235   3.788   3.937  0.4214  0.5003 -0.1591
 8089TIP3    H145682   5.294   3.713   3.935  0.3379  0.4535 -1.1252
 8089TIP3    H245683   5.147   3.749   3.939  0.4128  0.5704  0.8798
 8090TIP3   OH245684   5.104   5.905   3.232 -0.0244 -0.0525  0.5243
 8090TIP3    H145685   5.105   5.977   3.294 -1.4956  0.7926 -0.4160
 8090TIP3    H245686   5.016   5.869   3.238  0.0903 -0.5114 -0.4459
 8091TIP3   OH245687   6.558   0.072  11.427 -0.0449  0.5694  0.2542
 8091TIP3    H145688   6.562   0.165  11.448  1.5227  0.0804  2.1360
 8091TIP3    H245689   6.607   0.064  11.345  1.2794  1.1507  0.9790
 8092TIP3   OH245690   3.035   0.817  13.139  0.0118 -0.5141 -0.0472
 8092TIP3    H145691   3.042   0.892  13.198 -1.2802 -1.1683  0.9800
 8092TIP3    H245692   3.037   0.741  13.197 -1.0116 -1.1834 -0.8626
 8093TIP3   OH245693   2.761   0.465   0.557  0.3048 -0.1663  0.2327
 8093TIP3    H145694   2.753   0.529   0.628  1.1240  0.9835 -0.6878
 8093TIP3    H245695   2.751   0.516   0.477 -0.7860 -1.4819 -0.4873
 8094TIP3   OH245696   5.082   4.507   1.373 -0.6854  0.4127 -0.0753
 8094TIP3    H145697   5.124   4.478   1.454  1.8485 -0.5013 -1.6496
 8094TIP3    H245698   5.155   4.533   1.316 -2.2326 -1.2616 -2.9326
 8095TIP3   OH245699   6.374   5.002   5.205 -0.2359 -0.0829  0.0251
 8095TIP3    H145700   6.346   4.963   5.288 -0.9413  0.5417  0.0799
 8095TIP3    H245701   6.468   5.016   5.215 -0.2119 -0.5723  0.4887
 8096TIP3   OH245702   2.917   2.743  16.941 -0.0793  0.4213  0.2554
 8096TIP3    H145703   2.892   2.819  16.994 -1.8017 -0.1692  0.3083
 8096TIP3    H245704   2.945   2.677  17.005 -0.2364  0.4088  0.3110
 8097TIP3   OH245705   1.353   5.412  12.129 -0.0190 -0.0255  0.1455
 8097TIP3    H145706   1.393   5.349  12.070 -0.9029  0.2314 -0.7453
 8097TIP3    H245707   1.342   5.491  12.076 -1.4557 -0.0066  0.4260
 8098TIP3   OH245708   4.659   6.713  11.108 -0.7535  0.6119 -0.0373
 8098TIP3    H145709   4.598   6.648  11.077 -0.3219  0.3069 -0.2496
 8098TIP3    H245710   4.653   6.785  11.045 -0.8424  0.5534 -0.0951
 8099TIP3   OH245711   1.557   3.118   5.581 -0.0909 -0.0198  0.2769
 8099TIP3    H145712   1.471   3.146   5.613 -1.2123 -1.6754 -1.2129
 8099TIP3    H245713   1.567   3.162   5.496  0.4574  0.0117  0.3530
 8100TIP3   OH245714   5.225   0.033  11.787  0.0073 -0.5155  0.5034
 8100TIP3    H145715   5.152   0.091  11.767 -0.7207 -1.6422 -0.1275
 8100TIP3    H245716   5.257   0.063  11.872 -1.0724  0.0961  0.7017
 8101TIP3   OH245717   5.575   2.236  11.247  0.0952  0.4794  0.1933
 8101TIP3    H145718   5.553   2.273  11.333 -1.1778 -0.3711  0.2494
 8101TIP3    H245719   5.526   2.288  11.185 -0.4619 -0.1045  0.1420
 8102TIP3   OH245720   4.026   3.319  17.161 -0.3125  0.2872  0.3377
 8102TIP3    H145721   4.114   3.357  17.166  0.2497 -0.9621  0.3046
 8102TIP3    H245722   4.006   3.320  17.067 -0.4906  0.8983  0.3778
 8103TIP3   OH245723   6.264   5.355   2.841 -0.5236  0.0518 -0.3413
 8103TIP3    H145724   6.169   5.361   2.839 -0.5623 -0.4464 -0.1830
 8103TIP3    H245725   6.295   5.445   2.842 -0.9976  0.2114 -0.3046
 8104TIP3   OH245726   5.129   1.022  13.443 -0.4931  0.3546  0.0919
 8104TIP3    H145727   5.199   0.969  13.480  1.0203  0.6301 -2.2577
 8104TIP3    H245728   5.093   1.071  13.517  0.6099 -1.1218  1.6237
 8105TIP3   OH245729   1.635   2.813  16.876  0.3058 -0.3884  0.4457
 8105TIP3    H145730   1.626   2.734  16.824 -0.5165  0.4275 -0.6652
 8105TIP3    H245731   1.584   2.796  16.956  0.7429 -1.2531  0.5392
 8106TIP3   OH245732   1.265   2.504  14.652 -0.1356 -1.0294  0.1240
 8106TIP3    H145733   1.170   2.503  14.642 -0.2876  0.0757  1.3544
 8106TIP3    H245734   1.295   2.430  14.600 -1.8400 -2.8282  1.6172
 8107TIP3   OH245735   3.012   3.093   5.069 -0.3116  0.0666  0.5869
 8107TIP3    H145736   2.986   3.003   5.092 -1.2974 -0.2630 -1.6761
 8107TIP3    H245737   3.095   3.082   5.022 -0.5278  0.3197  0.1434
 8108TIP3   OH245738   4.160   4.336  16.844 -0.1519 -0.3312 -0.1207
 8108TIP3    H145739   4.214   4.402  16.801  0.2594 -0.8489 -0.3969
 8108TIP3    H245740   4.098   4.387  16.897  1.9564  0.2493  1.8499
 8109TIP3   OH245741   3.774   0.773  12.587 -0.7675  0.6364 -0.0352
 8109TIP3    H145742   3.716   0.848  12.575 -2.7149 -1.1268 -1.8952
 8109TIP3    H245743   3.724   0.711  12.640 -0.5645 -0.8168 -1.4774
 8110TIP3   OH245744   0.932   3.744  15.690  0.3255  0.5824 -0.3975
 8110TIP3    H145745   0.856   3.686  15.684  2.6366 -2.6852  0.0619
 8110TIP3    H245746   0.924   3.802  15.614 -1.1597 -1.5739 -1.9606
 8111TIP3   OH245747   5.762   1.745   5.118 -0.4981  0.2737 -0.0139
 8111TIP3    H145748   5.707   1.748   5.196 -2.0330 -1.5496 -0.9463
 8111TIP3    H245749   5.700   1.727   5.047  1.0199  0.6617 -1.4675
 8112TIP3   OH245750   0.317   3.296   6.007  0.0203  0.4646 -0.0046
 8112TIP3    H145751   0.289   3.267   6.094  0.4057 -0.1038 -0.0661
 8112TIP3    H245752   0.293   3.224   5.949 -0.1534  0.8056 -0.3543
 8113TIP3   OH245753   1.832   3.020  15.014 -0.1873  0.1443 -0.0738
 8113TIP3    H145754   1.811   3.043  14.924  1.5233 -1.7193 -0.9961
 8113TIP3    H245755   1.798   2.931  15.024 -1.4056  0.7606  1.5221
 8114TIP3   OH245756   0.613   0.476   2.959 -0.7105  0.2150 -0.1717
 8114TIP3    H145757   0.586   0.486   3.050 -0.1424 -0.5769  0.0975
 8114TIP3    H245758   0.707   0.496   2.959  0.1686 -3.4020  0.1505
 8115TIP3   OH245759   0.353   1.760  13.395  0.1944 -0.0131  0.3942
 8115TIP3    H145760   0.355   1.775  13.489  1.7021 -0.9392  0.5307
 8115TIP3    H245761   0.428   1.809  13.361  2.0212 -2.7932  0.2069
 8116TIP3   OH245762   4.544   6.307   4.531  0.1273 -0.3543 -0.2633
 8116TIP3    H145763   4.566   6.230   4.583 -0.8141  0.0670  0.7710
 8116TIP3    H245764   4.605   6.374   4.561  0.6211 -0.5444 -0.8197
 8117TIP3   OH245765   2.255   3.447  16.060 -0.2886 -0.0097 -0.1081
 8117TIP3    H145766   2.202   3.395  16.120  0.1275  1.3833  1.5011
 8117TIP3    H245767   2.332   3.393  16.043 -0.2688 -0.2940  0.8439
 8118TIP3   OH245768   2.371   5.164   6.175 -0.1357  0.1926 -0.1798
 8118TIP3    H145769   2.392   5.071   6.165 -0.0836  0.2045 -0.1814
 8118TIP3    H245770   2.429   5.209   6.115 -1.4184  0.0913 -1.5251
 8119TIP3   OH245771   5.062   6.328  13.747 -1.0387  0.0655 -0.3552
 8119TIP3    H145772   4.974   6.358  13.723 -0.8783  0.7166 -0.1486
 8119TIP3    H245773   5.109   6.409  13.768 -0.2806 -0.2475 -0.8324
 8120TIP3   OH245774   2.594   6.726   2.971 -0.3526  0.0642  0.1605
 8120TIP3    H145775   2.625   6.683   3.050  0.7244 -0.0731 -0.3237
 8120TIP3    H245776   2.580   6.655   2.909 -2.8144  0.0101  0.7431
 8121TIP3   OH245777   2.013   0.034  11.898  0.3124  0.6865 -0.2038
 8121TIP3    H145778   1.955   0.109  11.884 -1.2340  0.3440  3.6630
 8121TIP3    H245779   2.098   0.074  11.917 -0.2102  1.4649  0.5706
 8122TIP3   OH245780   2.469   0.789   4.964  0.0134  0.4077 -0.1851
 8122TIP3    H145781   2.445   0.844   4.889  1.2072  1.4107  0.1477
 8122TIP3    H245782   2.528   0.723   4.927  0.4267  0.7696 -0.1798
 8123TIP3   OH245783   2.974   1.633   1.685 -0.2308 -0.0145  0.2078
 8123TIP3    H145784   2.902   1.614   1.746  0.5162  1.0070  1.4398
 8123TIP3    H245785   2.988   1.727   1.693  1.1659 -0.1906 -0.0893
 8124TIP3   OH245786   3.495   5.131  10.979 -0.4579  0.1726 -0.4977
 8124TIP3    H145787   3.460   5.077  11.050 -2.1237 -0.8154 -2.0111
 8124TIP3    H245788   3.422   5.188  10.954  0.0199  0.3021 -1.6171
 8125TIP3   OH245789   5.069   2.348   4.425 -0.2995  0.0731  0.5796
 8125TIP3    H145790   5.162   2.367   4.426 -0.0497 -1.1752  1.8037
 8125TIP3    H245791   5.062   2.256   4.399 -1.1479 -0.0588  1.2374
 8126TIP3   OH245792   4.572   4.395   3.225  0.5627 -0.3121  0.1200
 8126TIP3    H145793   4.636   4.333   3.261  1.8537  0.5948 -0.5658
 8126TIP3    H245794   4.544   4.447   3.301 -0.5730 -1.7437  0.7077
 8127TIP3   OH245795   1.288   4.022  12.201  0.5837 -0.4908 -0.0757
 8127TIP3    H145796   1.362   4.009  12.142 -0.6599  0.2379 -1.8212
 8127TIP3    H245797   1.211   4.005  12.147 -0.5704 -0.0081  1.3986
 8128TIP3   OH245798   2.389   4.537   1.945  0.3797 -0.2262 -0.5608
 8128TIP3    H145799   2.397   4.574   2.033  0.1623  0.3033 -0.7666
 8128TIP3    H245800   2.471   4.490   1.932  1.1482  1.1521 -0.7600
 8129TIP3   OH245801   3.064   0.469   3.040  0.5734  0.4692 -0.7237
 8129TIP3    H145802   3.000   0.407   3.077 -0.0334  1.6708  0.2690
 8129TIP3    H245803   3.144   0.453   3.089  0.1941  1.0070  0.0802
 8130TIP3   OH245804   5.254   1.402   3.397  0.1187  0.6922 -0.0441
 8130TIP3    H145805   5.173   1.404   3.449  0.7758 -1.4929  1.1560
 8130TIP3    H245806   5.239   1.334   3.332  0.3489  1.4831 -0.9234
 8131TIP3   OH245807   1.880   5.989   4.562 -0.1298  0.1295 -0.9056
 8131TIP3    H145808   1.861   5.903   4.599  1.0475 -0.4237 -1.5669
 8131TIP3    H245809   1.956   6.021   4.612 -2.3354  2.0889  1.3561
 8132TIP3   OH245810   3.358   6.049  12.329 -0.0127  0.4259 -0.3420
 8132TIP3    H145811   3.450   6.069  12.311  0.3651  1.9825  2.9795
 8132TIP3    H245812   3.311   6.130  12.308 -0.4138  0.1571 -0.4959
 8133TIP3   OH245813   5.549   2.543  12.682 -0.0566 -0.1188  0.5162
 8133TIP3    H145814   5.586   2.455  12.682 -0.4406 -0.3504 -2.2767
 8133TIP3    H245815   5.460   2.531  12.647 -0.5545  1.2102  1.3156
 8134TIP3   OH245816   1.592   5.434   1.917  0.2502  0.1334  0.1750
 8134TIP3    H145817   1.606   5.433   2.012  0.4662  1.0837  0.1532
 8134TIP3    H245818   1.679   5.451   1.880 -0.0306  0.8501 -0.1530
 8135TIP3   OH245819   4.377   4.919   0.746 -0.1041  0.2293  0.2386
 8135TIP3    H145820   4.398   5.007   0.714  1.3017  0.2103  1.0668
 8135TIP3    H245821   4.287   4.926   0.779 -0.3083  1.1255 -0.4936
 8136TIP3   OH245822   4.234   5.300  14.418 -1.1352  0.4563 -0.1415
 8136TIP3    H145823   4.219   5.375  14.475 -0.8717  0.6865 -0.3712
 8136TIP3    H245824   4.198   5.225  14.466  1.8033  0.1455  1.7212
 8137TIP3   OH245825   3.455   5.786  10.967 -0.1777  0.0117 -0.4686
 8137TIP3    H145826   3.486   5.762  11.055 -0.8217  0.8491 -0.0146
 8137TIP3    H245827   3.362   5.763  10.967 -0.1329 -0.1777 -1.0062
 8138TIP3   OH245828   1.573   0.077  14.225  0.1694 -0.7568  0.1251
 8138TIP3    H145829   1.480   0.099  14.222  0.5796  1.1548  0.6907
 8138TIP3    H245830   1.603   0.108  14.311  1.7938  0.6224 -0.9062
 8139TIP3   OH245831   4.283   2.577   1.458 -0.2778  0.1511 -0.1551
 8139TIP3    H145832   4.334   2.656   1.477  0.1398  0.0745 -0.9165
 8139TIP3    H245833   4.191   2.606   1.463 -0.1338  0.5713  0.0573
 8140TIP3   OH245834   6.730   3.374  13.239  0.1809  0.5614  0.4436
 8140TIP3    H145835   6.714   3.431  13.314 -0.3458  0.6200  0.2880
 8140TIP3    H245836   6.771   3.431  13.173 -1.1664  0.9798 -0.0457
 8141TIP3   OH245837   3.702   5.450   0.948 -0.1922 -0.1483 -0.0015
 8141TIP3    H145838   3.725   5.360   0.971  0.4977  0.1106  0.3408
 8141TIP3    H245839   3.746   5.465   0.864  0.9316  0.3621  0.6762
 8142TIP3   OH245840   4.828   1.162  16.321 -0.4311 -0.7112 -0.3311
 8142TIP3    H145841   4.910   1.137  16.363 -1.2090  0.3942  1.9131
 8142TIP3    H245842   4.849   1.166  16.228  2.0290 -0.5782  0.2037
 8143TIP3   OH245843   4.920   0.969   4.091  0.0818 -0.7046 -0.1363
 8143TIP3    H145844   4.914   1.055   4.049  1.6409 -0.2470  0.5240
 8143TIP3    H245845   4.981   0.983   4.164 -1.1195 -1.9300  1.1302
 8144TIP3   OH245846   0.712   3.405   0.517 -0.2857  0.0271 -0.9725
 8144TIP3    H145847   0.735   3.340   0.583  1.9577  0.5586 -1.1881
 8144TIP3    H245848   0.748   3.370   0.436 -0.6496  0.6846 -1.4197
 8145TIP3   OH245849   6.492   5.863  13.308  0.0412  0.3129 -0.0569
 8145TIP3    H145850   6.584   5.858  13.281  0.2868 -0.9458  0.9815
 8145TIP3    H245851   6.446   5.809  13.244  0.2519 -0.3499  0.3352
 8146TIP3   OH245852   6.321   0.906  12.796  0.4242 -0.0229 -0.2263
 8146TIP3    H145853   6.319   0.956  12.714  0.3502 -1.6496 -1.2472
 8146TIP3    H245854   6.229   0.897  12.820  0.3165 -1.1345 -0.9894
 8147TIP3   OH245855   1.545   6.455  11.762 -0.7008  0.3536  0.3097
 8147TIP3    H145856   1.597   6.386  11.720 -0.4988  0.7970 -0.1751
 8147TIP3    H245857   1.610   6.513  11.802 -0.7871  1.1947 -0.7418
 8148TIP3   OH245858   4.921   0.903  16.552  0.0040 -0.3817  0.8187
 8148TIP3    H145859   4.849   0.952  16.513 -0.0618 -0.7070  0.5302
 8148TIP3    H245860   4.933   0.943  16.638  0.0716  0.2544  0.5143
 8149TIP3   OH245861   0.639   4.982   0.974  0.5621 -0.2476 -0.3028
 8149TIP3    H145862   0.549   5.013   0.988  0.6102 -0.6470  0.9868
 8149TIP3    H245863   0.630   4.907   0.916  0.1866  0.5207 -1.2498
 8150TIP3   OH245864   0.109   5.502   4.210 -0.0670 -0.5746  0.3397
 8150TIP3    H145865   0.146   5.537   4.291 -0.0689  1.1185 -0.3616
 8150TIP3    H245866   0.168   5.534   4.142  0.0662 -2.1872 -0.3088
 8151TIP3   OH245867   0.915   5.547   1.760  0.1197  0.6746 -0.4830
 8151TIP3    H145868   1.009   5.548   1.742  0.0511  0.1678 -0.8904
 8151TIP3    H245869   0.907   5.577   1.850  0.8884 -1.8432  0.4555
 8152TIP3   OH245870   1.992   3.147   5.308 -0.9463  0.0257  0.0748
 8152TIP3    H145871   2.010   3.053   5.300 -2.1387 -0.3459  1.5041
 8152TIP3    H245872   1.918   3.162   5.249  0.8466  0.5805 -2.0674
 8153TIP3   OH245873   5.919   0.959   1.627 -0.6500 -0.0409 -0.2702
 8153TIP3    H145874   5.834   0.937   1.667  0.2241 -0.3361  1.4721
 8153TIP3    H245875   5.937   1.048   1.660  1.1572 -1.1639  1.9030
 8154TIP3   OH245876   1.842   2.845   5.087  0.3763  0.4522 -0.3324
 8154TIP3    H145877   1.929   2.861   5.125  1.8271 -1.6016 -2.6219
 8154TIP3    H245878   1.845   2.890   5.003 -0.7341  0.2039 -0.5043
 8155TIP3   OH245879   5.126   0.137   5.774 -0.0437  0.4385  0.7117
 8155TIP3    H145880   5.212   0.178   5.782  0.7047 -0.6658 -1.2422
 8155TIP3    H245881   5.140   0.063   5.715 -1.9145 -1.0137  2.0162
 8156TIP3   OH245882   3.576   5.412  14.057  0.2110 -0.1352 -0.0620
 8156TIP3    H145883   3.539   5.425  13.969 -0.1484  0.4044  0.1669
 8156TIP3    H245884   3.662   5.455  14.053 -0.6708  1.7639  0.4716
 8157TIP3   OH245885   3.823   5.322   5.274  0.2173  0.3614 -0.5173
 8157TIP3    H145886   3.889   5.338   5.342 -0.6814  0.8285  0.2472
 8157TIP3    H245887   3.874   5.311   5.194  1.1976  1.4352 -0.0582
 8158TIP3   OH245888   3.820   2.790  17.221 -0.1205  0.1169  0.5055
 8158TIP3    H145889   3.885   2.857  17.241 -1.2798  1.0938  1.0917
 8158TIP3    H245890   3.780   2.820  17.139  0.2932 -0.5744  0.0511
 8159TIP3   OH245891   2.502   3.901  14.779  0.4717  0.3912 -0.7134
 8159TIP3    H145892   2.591   3.902  14.744 -0.3547  0.1515 -2.8860
 8159TIP3    H245893   2.452   3.850  14.716 -1.3922  1.2458  0.0301
 8160TIP3   OH245894   0.882   1.926  17.115 -0.3339 -0.3915  0.4401
 8160TIP3    H145895   0.831   1.996  17.076 -1.5079 -0.9209  0.9930
 8160TIP3    H245896   0.934   1.890  17.043 -1.1056 -0.1594 -0.2267
 8161TIP3   OH245897   1.297   5.871   1.351 -0.0986  0.3394 -0.8232
 8161TIP3    H145898   1.259   5.784   1.359  1.6103 -0.4542 -1.1013
 8161TIP3    H245899   1.271   5.916   1.431  1.3632 -1.3606  0.6406
 8162TIP3   OH245900   5.549   4.983  14.818 -0.0223  0.5137 -0.2708
 8162TIP3    H145901   5.594   5.019  14.742 -0.0904  0.9040 -0.1276
 8162TIP3    H245902   5.504   4.905  14.785  0.1204  0.5644 -0.5837
 8163TIP3   OH245903   0.978   5.514   0.405 -0.4354  0.8115 -0.2040
 8163TIP3    H145904   1.031   5.518   0.326 -0.1016  1.6860  0.0583
 8163TIP3    H245905   0.899   5.467   0.378  0.7235 -1.0380 -0.4324
 8164TIP3   OH245906   1.739   0.287  11.035 -0.0051 -0.1651 -0.0645
 8164TIP3    H145907   1.730   0.241  10.951 -2.6306  1.0987 -0.5372
 8164TIP3    H245908   1.705   0.225  11.099  2.0725 -1.1621  0.1164
 8165TIP3   OH245909   0.040   5.939  14.479  0.2800  0.5038  0.1367
 8165TIP3    H145910   0.033   6.032  14.454  0.0469  0.9589  1.8252
 8165TIP3    H245911  -0.050   5.906  14.474  0.1667  0.7086  0.7837
 8166TIP3   OH245912   0.869   2.497  17.238 -0.5665 -0.0630  0.6939
 8166TIP3    H145913   0.938   2.475  17.301 -0.7688 -1.1443  0.5525
 8166TIP3    H245914   0.877   2.591  17.226 -0.8209  0.2533  2.7062
 8167TIP3   OH245915   6.072   6.073   5.035  0.1206 -0.4317  0.2305
 8167TIP3    H145916   6.000   6.137   5.030  0.4642 -0.0375  0.3031
 8167TIP3    H245917   6.075   6.048   5.127  0.8146  0.4107  0.4471
 8168TIP3   OH245918   0.806   2.269   1.357  0.4236 -0.0067  0.0996
 8168TIP3    H145919   0.813   2.178   1.331  2.0293 -0.7333  2.8326
 8168TIP3    H245920   0.729   2.272   1.414  0.4096  0.3048  0.0647
 8169TIP3   OH245921   1.568   0.245   4.105 -0.7279  0.1274  0.1749
 8169TIP3    H145922   1.495   0.276   4.157 -0.0649  1.5121  0.2977
 8169TIP3    H245923   1.532   0.236   4.016 -1.5302 -1.0398  0.6154
 8170TIP3   OH245924   5.552   4.608  15.655  0.1056  0.3154  0.5659
 8170TIP3    H145925   5.490   4.542  15.684  0.3814 -0.4932 -0.6632
 8170TIP3    H245926   5.569   4.587  15.563  0.8824  1.5508  0.4120
 8171TIP3   OH245927   1.763   0.978   2.035 -0.0154 -0.3069  0.5415
 8171TIP3    H145928   1.813   1.058   2.047  0.2953 -0.2038 -1.3471
 8171TIP3    H245929   1.829   0.908   2.033 -0.3085 -0.6543  2.4988
 8172TIP3   OH245930   1.371   3.440   6.327  0.0964  0.0542  0.4605
 8172TIP3    H145931   1.367   3.512   6.264  0.3132  1.1065  1.6252
 8172TIP3    H245932   1.414   3.369   6.280 -2.4911 -0.2346 -1.5931
 8173TIP3   OH245933   4.819   1.485   4.331 -0.0871 -0.0479 -0.4067
 8173TIP3    H145934   4.789   1.408   4.283  1.1958 -0.4131 -0.6515
 8173TIP3    H245935   4.745   1.545   4.328 -0.5091 -0.5991 -1.6845
 8174TIP3   OH245936   5.245   4.706  15.409  0.0668  0.3352  0.1935
 8174TIP3    H145937   5.173   4.661  15.453 -2.6462  4.4093  0.2269
 8174TIP3    H245938   5.270   4.776  15.469  1.7628  1.0696 -1.3139
 8175TIP3   OH245939   2.681   1.449  14.585 -0.2842  0.6727  0.7111
 8175TIP3    H145940   2.690   1.522  14.524  1.3722  0.5526  0.8012
 8175TIP3    H245941   2.608   1.398  14.551  0.3134  0.8712 -0.8927
 8176TIP3   OH245942   4.064   6.126   2.094 -0.2215 -0.2666  0.8144
 8176TIP3    H145943   4.122   6.051   2.102  0.0974 -0.1126 -0.0136
 8176TIP3    H245944   4.121   6.202   2.102 -0.2045 -0.1134 -0.6222
 8177TIP3   OH245945   1.771   0.039   0.492  0.1708  0.1457 -0.0194
 8177TIP3    H145946   1.861   0.028   0.522  0.1887  0.3790  0.0132
 8177TIP3    H245947   1.747  -0.046   0.454  0.7465  0.4124 -0.9746
 8178TIP3   OH245948   0.205   3.033   5.778 -0.0000  0.2228  0.0593
 8178TIP3    H145949   0.184   2.974   5.705  0.9721  0.3251 -0.3084
 8178TIP3    H245950   0.147   3.006   5.848 -2.1291  1.1843 -1.2764
 8179TIP3   OH245951   2.800   2.396  15.935 -0.0424  0.1550  0.5495
 8179TIP3    H145952   2.878   2.449  15.917 -0.4762  0.1703 -1.4312
 8179TIP3    H245953   2.779   2.356  15.850 -0.7419 -1.7995  1.6227
 8180TIP3   OH245954   3.508   4.687   3.181  0.3563  0.0546 -0.3274
 8180TIP3    H145955   3.499   4.773   3.221 -2.2217  0.4816 -1.6934
 8180TIP3    H245956   3.534   4.704   3.090  0.8548 -0.6565 -0.3282
 8181TIP3   OH245957   4.910   4.687   0.199  0.3449 -0.6549 -0.0396
 8181TIP3    H145958   4.821   4.698   0.232 -0.0802  1.9267 -1.9417
 8181TIP3    H245959   4.965   4.725   0.268 -0.0739 -1.2803  0.6522
 8182TIP3   OH245960   5.007   1.149   0.188 -0.9378  0.1306 -0.3982
 8182TIP3    H145961   5.057   1.189   0.259 -0.8924  0.5192 -0.6498
 8182TIP3    H245962   5.055   1.068   0.168  0.6277  1.3928 -1.8713
 8183TIP3   OH245963   6.349   5.803   4.622  0.0067 -0.2772  0.1442
 8183TIP3    H145964   6.291   5.842   4.688 -0.2317 -0.5664  0.1038
 8183TIP3    H245965   6.291   5.752   4.566  0.3744 -1.0195  0.4337
 8184TIP3   OH245966   6.045   0.324   2.291  0.2263 -0.0035 -0.2813
 8184TIP3    H145967   6.124   0.290   2.248  0.6293  0.8835 -0.2338
 8184TIP3    H245968   6.055   0.299   2.383 -0.4179 -1.4962 -0.5891
 8185TIP3   OH245969   1.814   1.213  11.824  0.1724  0.1987 -0.2790
 8185TIP3    H145970   1.874   1.166  11.766 -0.3996  0.2411 -0.9081
 8185TIP3    H245971   1.792   1.293  11.775 -1.1597 -0.2827 -0.4660
 8186TIP3   OH245972   2.439   6.303  16.041  0.2011  0.2461  0.6368
 8186TIP3    H145973   2.365   6.359  16.061 -0.2412 -0.2526  0.3958
 8186TIP3    H245974   2.417   6.263  15.956  1.3119  1.0837 -0.0673
 8187TIP3   OH245975   3.388   5.605   1.651 -0.1665 -0.2131  0.1229
 8187TIP3    H145976   3.323   5.550   1.607 -0.4039 -0.5252  0.8575
 8187TIP3    H245977   3.471   5.581   1.610 -0.4300 -0.2759 -0.3738
 8188TIP3   OH245978   6.279   3.135   2.903  0.5269 -0.2276 -0.4383
 8188TIP3    H145979   6.329   3.087   2.968  1.0450 -0.0509 -0.7067
 8188TIP3    H245980   6.189   3.106   2.916  0.4915  0.4185  0.9102
 8189TIP3   OH245981   5.417   1.695   6.624  0.4555  0.6078  0.2701
 8189TIP3    H145982   5.472   1.618   6.640 -0.1611  0.5127  2.0622
 8189TIP3    H245983   5.473   1.770   6.645  0.3693  0.5613  0.6748
 8190TIP3   OH245984   6.364   0.378   0.695  0.7672  0.3324 -0.2186
 8190TIP3    H145985   6.456   0.351   0.697  0.6562 -0.0139  1.7974
 8190TIP3    H245986   6.366   0.471   0.717  0.6647  0.4082 -0.5353
 8191TIP3   OH245987   5.683   5.351  10.667 -0.3063  0.0148  0.3053
 8191TIP3    H145988   5.744   5.312  10.604  0.3046  2.2508 -0.5340
 8191TIP3    H245989   5.739   5.378  10.740 -0.4023  1.1797 -0.0362
 8192TIP3   OH245990   4.553   0.513   3.076 -0.4578 -0.3075 -0.2141
 8192TIP3    H145991   4.545   0.569   3.153 -0.0346 -0.0629 -0.3422
 8192TIP3    H245992   4.579   0.573   3.006 -0.1018 -0.6506 -0.3764
 8193TIP3   OH245993   1.436   5.978  16.228  1.2085 -0.2948  0.2468
 8193TIP3    H145994   1.442   6.032  16.149  1.6649 -1.2063 -0.3508
 8193TIP3    H245995   1.513   5.922  16.225  1.2694 -0.2777  1.3862
 8194TIP3   OH245996   3.570   6.379   4.424  0.3976 -1.1006 -0.5131
 8194TIP3    H145997   3.580   6.358   4.331  2.1366  0.3340 -0.6992
 8194TIP3    H245998   3.485   6.422   4.430  0.8175 -0.0597 -1.7012
 8195TIP3   OH245999   0.633   1.560   0.428 -0.1087 -0.3361 -0.0836
 8195TIP3    H146000   0.549   1.527   0.396  0.6471 -1.0703 -1.3250
 8195TIP3    H246001   0.655   1.632   0.369  1.0399 -1.3613 -0.9186
 8196TIP3   OH246002   0.471   2.418  14.813 -0.2865 -0.0975  0.2104
 8196TIP3    H146003   0.499   2.501  14.775 -0.4174  0.6706  1.7343
 8196TIP3    H246004   0.383   2.404  14.778  0.0663 -0.0138 -0.7091
 8197TIP3   OH246005   2.063   6.527   5.969  0.5385 -0.7308  0.0065
 8197TIP3    H146006   1.976   6.545   6.004  0.2289 -1.8263 -0.1641
 8197TIP3    H246007   2.120   6.525   6.046 -0.0053 -2.3514  0.4026
 8198TIP3   OH246008   5.932   6.568  14.172 -0.2482  0.9434  0.4302
 8198TIP3    H146009   5.857   6.550  14.116 -0.8354  1.5178  1.0207
 8198TIP3    H246010   5.906   6.533  14.258  0.5794  0.2060  0.3891
 8199TIP3   OH246011   5.702   4.257  16.502 -0.3798 -0.1008 -0.6439
 8199TIP3    H146012   5.764   4.311  16.453  1.5878 -1.4661  0.3142
 8199TIP3    H246013   5.749   4.176  16.520 -1.6969 -0.3446  1.9232
 8200TIP3   OH246014   5.879   3.044   1.859 -0.3716 -0.4072 -0.0234
 8200TIP3    H146015   5.803   2.987   1.856  0.0416 -1.0594  1.4886
 8200TIP3    H246016   5.950   2.989   1.893  0.2309  0.7795  0.6809
 8201TIP3   OH246017   6.730   6.416   1.506 -0.2455 -0.5031 -0.2956
 8201TIP3    H146018   6.654   6.465   1.539  0.4173 -0.2259  0.8763
 8201TIP3    H246019   6.803   6.447   1.561  0.4491 -1.7740 -0.4880
 8202TIP3   OH246020   0.414   3.139  13.865 -0.0960  0.4315 -0.0745
 8202TIP3    H146021   0.355   3.064  13.878 -1.0033  1.0718 -0.4590
 8202TIP3    H246022   0.493   3.116  13.914 -0.1309 -1.0584 -0.6689
 8203TIP3   OH246023   0.841   2.594   3.840 -0.0150  0.0837 -0.0872
 8203TIP3    H146024   0.839   2.687   3.861 -0.1631  0.1679 -0.4835
 8203TIP3    H246025   0.931   2.567   3.858  0.3856  0.6065 -1.2972
 8204TIP3   OH246026   2.851   5.789   0.672  0.5399 -0.4173  0.5067
 8204TIP3    H146027   2.858   5.732   0.749  0.5872 -1.3602 -0.1837
 8204TIP3    H246028   2.760   5.780   0.644  0.4015  0.2835  0.7191
 8205TIP3   OH246029   5.038   5.719  12.498  0.4573 -0.3500  0.1162
 8205TIP3    H146030   5.089   5.653  12.450 -0.3072 -1.5597  0.9249
 8205TIP3    H246031   4.991   5.669  12.565  0.4718  1.1306  1.2740
 8206TIP3   OH246032   2.537   0.589  11.590 -0.1068  0.5699 -0.7519
 8206TIP3    H146033   2.607   0.553  11.535  0.7082 -0.1494  0.7333
 8206TIP3    H246034   2.456   0.564  11.545  0.4985 -1.6288 -0.6606
 8207TIP3   OH246035   0.961   4.781   3.878  0.0725  0.8258 -0.4042
 8207TIP3    H146036   1.016   4.820   3.946  0.8331 -2.5105  1.0465
 8207TIP3    H246037   1.020   4.721   3.832 -1.3474  0.3085 -1.5703
 8208TIP3   OH246038   5.154   2.509   0.936  0.5551 -0.3334 -0.2067
 8208TIP3    H146039   5.144   2.592   0.983  0.7753 -1.0679  1.1742
 8208TIP3    H246040   5.177   2.534   0.846 -2.9338  1.1488 -0.7443
 8209TIP3   OH246041   1.902   3.324   2.976  0.4086 -0.4372 -0.5195
 8209TIP3    H146042   1.881   3.290   3.063 -0.6000 -2.7204 -1.6176
 8209TIP3    H246043   1.996   3.311   2.967  0.6807  0.6509  0.5599
 8210TIP3   OH246044   1.142   6.021  14.652  0.4717 -0.0258  0.2228
 8210TIP3    H146045   1.140   5.933  14.614  1.4227 -0.0852  0.2819
 8210TIP3    H246046   1.128   6.080  14.578  0.6106 -0.2067  0.0520
 8211TIP3   OH246047   3.829   4.261  17.172  0.3478 -0.9369 -0.1649
 8211TIP3    H146048   3.903   4.315  17.199 -0.3139 -0.0269 -0.1476
 8211TIP3    H246049   3.858   4.218  17.092  0.3726  0.5843 -0.9930
 8212TIP3   OH246050   2.794   6.785   0.315  0.7670 -0.3395 -0.1304
 8212TIP3    H146051   2.797   6.815   0.406 -0.5381 -1.4926  0.3151
 8212TIP3    H246052   2.704   6.755   0.303  0.6387  0.8213 -2.1488
 8213TIP3   OH246053   5.040   1.314  15.805  1.0135  0.7194 -0.6836
 8213TIP3    H146054   5.107   1.246  15.797  0.8192  0.5187 -0.6045
 8213TIP3    H246055   4.974   1.290  15.740 -0.1931 -0.4704  0.9560
 8214TIP3   OH246056   0.758   1.477  14.171  0.8483 -0.1263  0.4003
 8214TIP3    H146057   0.731   1.556  14.220 -0.4337 -0.3878  0.1488
 8214TIP3    H246058   0.839   1.449  14.213 -0.5650 -0.7171  2.8378
 8215TIP3   OH246059   1.905   2.486   5.724  0.7853 -0.2152  0.1401
 8215TIP3    H146060   1.965   2.421   5.688 -0.0862 -0.8315 -0.1885
 8215TIP3    H246061   1.955   2.527   5.795  2.2785  0.5707 -1.3385
 8216TIP3   OH246062   2.669   0.884  11.582  0.0539 -0.1938 -0.0162
 8216TIP3    H146063   2.660   0.975  11.552  0.3339  0.9559  3.2070
 8216TIP3    H246064   2.761   0.875  11.603 -0.4986 -0.1959  2.6257
 8217TIP3   OH246065   0.618   1.490   3.565 -0.7094  0.2503  0.2212
 8217TIP3    H146066   0.559   1.433   3.615 -0.3820 -0.6474 -0.4015
 8217TIP3    H246067   0.700   1.441   3.560 -0.2648  0.9954  0.0955
 8218TIP3   OH246068   3.114   3.754  11.951  0.0291 -0.3910 -0.2768
 8218TIP3    H146069   3.075   3.842  11.953 -0.2191 -0.3135 -4.0233
 8218TIP3    H246070   3.072   3.708  12.023  0.0677  2.4939  1.7117
 8219TIP3   OH246071   2.739   5.523   3.479 -0.4527 -0.5171 -0.2100
 8219TIP3    H146072   2.781   5.605   3.503 -1.5431  0.3279 -1.1613
 8219TIP3    H246073   2.655   5.524   3.523 -1.2861 -0.2207 -1.7596
 8220TIP3   OH246074   0.158   2.681   3.735 -0.1934 -0.1645 -0.1847
 8220TIP3    H146075   0.249   2.653   3.749  0.0380 -0.2174 -1.6880
 8220TIP3    H246076   0.153   2.768   3.773  0.6890  0.1204 -0.7108
 8221TIP3   OH246077   0.104   0.068   2.485  0.1532 -0.4334  0.5084
 8221TIP3    H146078   0.102  -0.028   2.482 -4.0659 -0.4735  2.3363
 8221TIP3    H246079   0.163   0.089   2.557  1.4629 -1.5735 -0.1901
 8222TIP3   OH246080   1.369   0.782   5.041  0.5943  0.0645 -0.2398
 8222TIP3    H146081   1.367   0.687   5.056  0.2453  0.1851  0.4659
 8222TIP3    H246082   1.460   0.800   5.017  0.7522 -0.3856  0.0248
 8223TIP3   OH246083   0.520   5.347   1.848  0.2585 -0.1371  0.3005
 8223TIP3    H146084   0.546   5.378   1.935  0.2770  1.7750 -0.3709
 8223TIP3    H246085   0.563   5.261   1.840 -0.6630 -0.8588  2.6056
 8224TIP3   OH246086   2.971   3.868   3.692  0.0730 -0.0268  0.2922
 8224TIP3    H146087   2.885   3.907   3.704  0.0554  0.2472 -0.6372
 8224TIP3    H246088   3.025   3.939   3.655  0.6116 -0.2808  0.5777
 8225TIP3   OH246089   5.556   3.884   3.240 -0.2113  0.4151 -0.9426
 8225TIP3    H146090   5.482   3.835   3.274  0.1834  1.0875  0.9820
 8225TIP3    H246091   5.621   3.881   3.310  1.8488 -0.7046 -2.8374
 8226TIP3   OH246092   4.351   6.651   4.880 -0.1157 -0.0828 -0.5184
 8226TIP3    H146093   4.357   6.711   4.806 -2.2552  0.2265 -0.4706
 8226TIP3    H246094   4.355   6.708   4.957 -0.8728 -0.1272 -0.4485
 8227TIP3   OH246095   0.330   5.087  14.569 -0.2940  0.0089 -0.1345
 8227TIP3    H146096   0.310   5.147  14.498  0.2147 -0.9509 -1.1136
 8227TIP3    H246097   0.270   5.013  14.555 -0.3384 -0.0877  0.5623
 8228TIP3   OH246098   3.475   0.323   3.462 -0.0193  0.5390  0.7965
 8228TIP3    H146099   3.569   0.305   3.467  0.4058  2.5835  0.7320
 8228TIP3    H246100   3.439   0.287   3.543  0.8196 -0.2091  0.8506
 8229TIP3   OH246101   6.291   6.758   1.549 -0.2481  0.3730  0.1525
 8229TIP3    H146102   6.207   6.714   1.539 -0.5473  0.9180  0.2471
 8229TIP3    H246103   6.286   6.800   1.635 -0.7327  2.2184 -0.7652
 8230TIP3   OH246104   1.639   3.656  16.600 -0.3845 -0.2625  0.6301
 8230TIP3    H146105   1.565   3.609  16.637 -0.5321 -0.5163  0.0226
 8230TIP3    H246106   1.614   3.673  16.509  0.0528  0.1818  0.5883
 8231TIP3   OH246107   3.904   3.759   3.133  0.2963 -0.0369  0.2389
 8231TIP3    H146108   3.980   3.701   3.126  0.2117 -0.0498 -0.5477
 8231TIP3    H246109   3.829   3.700   3.132  0.2215  0.0714 -0.2747
 8232TIP3   OH246110   5.694   3.113  11.925  0.5954 -0.8785 -0.2926
 8232TIP3    H146111   5.725   3.189  11.876 -2.2957  1.2228  1.0452
 8232TIP3    H246112   5.683   3.045  11.858 -1.0344  1.2224 -2.2296
 8233TIP3   OH246113   3.032   3.235   0.949  0.4934 -0.3828 -0.0520
 8233TIP3    H146114   2.940   3.233   0.923  0.6379 -2.9177 -0.4702
 8233TIP3    H246115   3.029   3.252   1.043 -0.3405  0.7250 -0.2637
 8234TIP3   OH246116   2.760   0.747  17.123 -0.3533  0.7033 -0.2137
 8234TIP3    H146117   2.779   0.662  17.162  1.3003  1.0645 -0.1993
 8234TIP3    H246118   2.664   0.749  17.114 -0.4997 -0.6313  0.9433
 8235TIP3   OH246119   0.329   1.102   5.642  0.0979 -0.5533  0.0960
 8235TIP3    H146120   0.384   1.047   5.697  0.3202 -0.6858 -0.2580
 8235TIP3    H246121   0.299   1.172   5.700  1.0128 -0.2231  0.1830
 8236TIP3   OH246122   5.328   3.517  14.934  0.6735  0.0185 -0.1015
 8236TIP3    H146123   5.323   3.518  15.030  0.8795 -0.8450 -0.0698
 8236TIP3    H246124   5.421   3.523  14.915  0.5484  1.4037 -0.2829
 8237TIP3   OH246125   1.171   0.477  14.780 -0.6439  0.0528  0.4498
 8237TIP3    H146126   1.153   0.412  14.847  0.4088 -1.5382 -0.7568
 8237TIP3    H246127   1.196   0.556  14.828  3.1784 -1.9528  1.9760
 8238TIP3   OH246128   5.861   1.215   6.420 -0.0804  0.0773  0.0395
 8238TIP3    H146129   5.865   1.147   6.486  0.1613 -0.4533 -0.5191
 8238TIP3    H246130   5.802   1.181   6.353 -0.8512  0.8863  0.2834
 8239TIP3   OH246131   5.151   3.465  15.657 -0.9266  0.3490  0.2365
 8239TIP3    H146132   5.093   3.389  15.668 -0.3712 -0.0069  0.7160
 8239TIP3    H246133   5.189   3.479  15.744  0.5485 -0.1035 -0.3224
 8240TIP3   OH246134   0.602   5.915  14.028  0.6091 -0.0649 -0.0882
 8240TIP3    H146135   0.587   5.929  13.935 -2.0981  1.6082  0.5428
 8240TIP3    H246136   0.639   5.827  14.034  0.9998 -0.1121 -2.7351
 8241TIP3   OH246137   0.622   2.533  14.021 -0.0610 -0.2554 -0.0142
 8241TIP3    H146138   0.663   2.449  14.044 -1.3222 -0.7249  0.5084
 8241TIP3    H246139   0.562   2.511  13.949  1.2567  0.5941 -1.4091
 8242TIP3   OH246140   1.451   5.513  10.962 -0.0255 -0.4023 -0.4470
 8242TIP3    H146141   1.400   5.533  10.883 -0.8245  0.8062  0.3498
 8242TIP3    H246142   1.539   5.545  10.942  0.8469 -3.7924 -2.3752
 8243TIP3   OH246143   2.307   0.495   3.326  0.1719 -0.4164 -0.7710
 8243TIP3    H146144   2.312   0.578   3.279  2.0568  1.5398  2.7175
 8243TIP3    H246145   2.213   0.481   3.340 -0.2071  0.6769 -2.1037
 8244TIP3   OH246146   2.875   6.089  15.344 -0.3781 -0.6833  0.0115
 8244TIP3    H146147   2.783   6.074  15.321 -0.4326 -1.0855  0.4914
 8244TIP3    H246148   2.910   6.002  15.364 -0.1741 -0.4067  0.8733
 8245TIP3   OH246149   2.845   1.333   4.584 -0.0401  0.2898 -0.2950
 8245TIP3    H146150   2.863   1.412   4.635 -1.4175  1.3458 -1.3892
 8245TIP3    H246151   2.896   1.264   4.627  0.4092  1.5649  1.2663
 8246TIP3   OH246152   5.219   4.904  14.171  0.2185  0.0447 -0.3856
 8246TIP3    H146153   5.247   4.832  14.115 -1.3706  1.2184 -2.7524
 8246TIP3    H246154   5.236   4.983  14.120 -1.8710  1.1071  0.5125
 8247TIP3   OH246155   2.150   2.079  15.829 -0.0618  0.2029  0.0558
 8247TIP3    H146156   2.157   2.160  15.780  2.1204  0.0200  0.0129
 8247TIP3    H246157   2.159   2.105  15.921  2.1783 -0.1154 -0.0407
 8248TIP3   OH246158   2.621   0.566   2.244 -0.3084 -0.2005 -0.1438
 8248TIP3    H146159   2.659   0.534   2.325 -0.2353  2.0349  0.7526
 8248TIP3    H246160   2.696   0.583   2.187 -0.0795  1.6599  0.6602
 8249TIP3   OH246161   6.467   1.498   4.408  0.5904  0.1820 -0.1873
 8249TIP3    H146162   6.447   1.509   4.501 -2.2392  1.2412 -0.8698
 8249TIP3    H246163   6.550   1.545   4.396  1.1503 -0.2235  1.8430
 8250TIP3   OH246164   3.359   4.812  14.868 -0.0684 -0.1115  0.0335
 8250TIP3    H146165   3.407   4.770  14.939 -1.0302 -0.7258  0.3295
 8250TIP3    H246166   3.268   4.787  14.882 -0.4743  0.9993 -0.5517
 8251TIP3   OH246167   0.929   1.847  11.352 -0.4113 -0.5657 -0.0219
 8251TIP3    H146168   0.847   1.838  11.402 -0.2383 -0.7852  0.2237
 8251TIP3    H246169   0.949   1.941  11.357 -0.6260 -0.5169 -0.0485
 8252TIP3   OH246170   5.527   1.310  11.087 -0.1818  0.5571 -0.2810
 8252TIP3    H146171   5.555   1.353  11.167 -0.4350 -0.0622  0.1437
 8252TIP3    H246172   5.602   1.257  11.060  0.8949  2.8457 -1.9391
 8253TIP3   OH246173   6.300   5.771  15.714 -0.2576 -0.1992  0.0614
 8253TIP3    H146174   6.265   5.857  15.689 -1.6008 -0.6323  0.4263
 8253TIP3    H246175   6.322   5.729  15.630 -1.7857 -0.4034 -0.2461
 8254TIP3   OH246176   5.299   0.503   4.977  0.0777 -0.2092  0.4257
 8254TIP3    H146177   5.308   0.468   4.889  1.7697  1.5076 -0.1058
 8254TIP3    H246178   5.358   0.578   4.980 -1.6356  1.1400  2.3013
 8255TIP3   OH246179   4.747   3.168   6.212 -0.2603 -0.7154 -0.1113
 8255TIP3    H146180   4.826   3.220   6.227 -1.5647  0.9544  1.1652
 8255TIP3    H246181   4.767   3.117   6.133  1.9594 -0.0877  0.0053
 8256TIP3   OH246182   3.193   5.732   0.718  0.4685  0.0588  0.5664
 8256TIP3    H146183   3.196   5.806   0.779 -2.1412  1.4017 -0.8238
 8256TIP3    H246184   3.121   5.678   0.751  0.3634 -0.2423 -0.1578
 8257TIP3   OH246185   3.962   1.359  10.815 -0.4269 -0.1257  0.4148
 8257TIP3    H146186   3.944   1.330  10.905 -1.3438 -2.5172 -0.4981
 8257TIP3    H246187   3.876   1.379  10.779 -0.0023  1.4011  0.2459
 8258TIP3   OH246188   6.466   1.745  16.127 -0.0284 -0.1831  0.4767
 8258TIP3    H146189   6.386   1.750  16.074  0.2101  0.3283  0.1626
 8258TIP3    H246190   6.457   1.817  16.190 -0.3838 -0.8853  1.2335
 8259TIP3   OH246191   5.241   5.995   4.677 -0.0981  0.2928 -0.0858
 8259TIP3    H146192   5.191   5.943   4.614 -1.5565  1.0083  0.4487
 8259TIP3    H246193   5.282   6.063   4.624 -0.8614  0.5550 -0.3560
 8260TIP3   OH246194   0.726   0.391   5.937  0.5268 -0.1915 -0.1791
 8260TIP3    H146195   0.658   0.395   6.004  0.2116  1.7505 -0.5887
 8260TIP3    H246196   0.761   0.302   5.943 -1.0317 -0.7357  1.0336
 8261TIP3   OH246197   5.496   0.136   1.568 -0.1751 -0.8038  0.0287
 8261TIP3    H146198   5.442   0.199   1.520  0.0318 -0.0587  0.7705
 8261TIP3    H246199   5.434   0.086   1.621  0.0204  1.1161  2.0889
 8262TIP3   OH246200   2.977   6.017   4.615 -0.9230 -0.1176  0.7288
 8262TIP3    H146201   3.053   6.007   4.673 -0.3579 -0.9092 -0.1308
 8262TIP3    H246202   2.926   6.087   4.655  0.0268  0.1140  1.5748
 8263TIP3   OH246203   3.301   0.833  16.000  0.0434 -0.2218  0.3670
 8263TIP3    H146204   3.254   0.851  16.082 -1.6577  0.0688 -0.6577
 8263TIP3    H246205   3.281   0.742  15.980 -0.4638  0.0359 -0.3131
 8264TIP3   OH246206   3.472   5.872   0.394 -0.3572 -0.0848 -0.1456
 8264TIP3    H146207   3.531   5.819   0.447 -1.4216 -1.9679 -0.8203
 8264TIP3    H246208   3.399   5.893   0.452  0.0193  0.5937  0.0929
 8265TIP3   OH246209   2.672   5.590  13.255  0.2039 -0.3756  0.6852
 8265TIP3    H146210   2.649   5.508  13.297 -2.5791  0.1245  0.2216
 8265TIP3    H246211   2.620   5.592  13.175  0.9042  1.4293  0.2403
 8266TIP3   OH246212   0.935   5.609  15.605  0.1587  0.3610 -0.3751
 8266TIP3    H146213   0.968   5.579  15.521  0.1388 -0.3170 -0.1413
 8266TIP3    H246214   0.839   5.602  15.597  0.1659  0.0212 -0.2006
 8267TIP3   OH246215   1.597   3.522   5.170  0.0070  0.1490  0.0311
 8267TIP3    H146216   1.659   3.504   5.241  0.0423 -2.8029 -0.6926
 8267TIP3    H246217   1.650   3.515   5.090 -0.4824  1.3305 -0.4002
 8268TIP3   OH246218   5.553   5.592  12.824 -0.0202 -0.1867  0.1705
 8268TIP3    H146219   5.594   5.508  12.802 -0.8327 -0.7133  0.6327
 8268TIP3    H246220   5.503   5.615  12.746 -1.6602 -1.2882  0.8837
 8269TIP3   OH246221   3.945   0.960   1.245 -0.1486 -0.1074 -0.1554
 8269TIP3    H146222   3.912   0.925   1.328 -0.7974 -0.2437 -0.4652
 8269TIP3    H246223   3.900   0.908   1.178  0.1482  0.1993 -0.5935
 8270TIP3   OH246224   1.207   5.387  11.381  0.0959  0.5187  0.0458
 8270TIP3    H146225   1.206   5.404  11.287 -1.1578  0.9811  0.1314
 8270TIP3    H246226   1.128   5.335  11.396  0.5532  0.0310  0.7737
 8271TIP3   OH246227   1.517   0.167   4.654 -0.2172 -0.5242  0.2073
 8271TIP3    H146228   1.480   0.093   4.605 -0.2824  1.0927 -2.2619
 8271TIP3    H246229   1.468   0.168   4.737 -1.1864 -2.3770 -0.3122
 8272TIP3   OH246230   1.342   5.674   3.275 -0.8329  0.0333 -0.1651
 8272TIP3    H146231   1.252   5.683   3.308 -0.1539  1.0851  1.3958
 8272TIP3    H246232   1.351   5.746   3.213 -0.8791  0.2513  0.0820
 8273TIP3   OH246233   0.131   4.901  14.742  0.7608  0.2079 -0.2436
 8273TIP3    H146234   0.038   4.925  14.737  0.5399 -0.7937 -1.0539
 8273TIP3    H246235   0.153   4.875  14.652  1.5178 -0.7171  0.2147
 8274TIP3   OH246236   4.901   5.837   3.651 -0.0772  0.0613 -1.1282
 8274TIP3    H146237   4.806   5.826   3.647  0.1036 -2.4746  0.2835
 8274TIP3    H246238   4.914   5.932   3.650 -2.6863  0.4831 -0.2347
 8275TIP3   OH246239   2.037   5.092  15.553 -0.4658  0.0924  0.0228
 8275TIP3    H146240   1.995   5.178  15.557  1.3940  0.9531  2.0619
 8275TIP3    H246241   1.991   5.040  15.618  0.0497  0.2955  0.5464
 8276TIP3   OH246242   5.431   0.579  10.538  0.0370  0.2310 -0.0734
 8276TIP3    H146243   5.508   0.624  10.572 -0.0169  0.2205  0.0608
 8276TIP3    H246244   5.410   0.625  10.457 -0.1058  0.5374  0.1387
 8277TIP3   OH246245   6.444   0.564   6.392  0.1195 -0.0996 -0.8103
 8277TIP3    H146246   6.354   0.557   6.423  0.2406 -0.6008 -0.5777
 8277TIP3    H246247   6.455   0.657   6.373  0.1693  0.2887  1.0102
 8278TIP3   OH246248   3.931   1.248  12.080 -0.3385  0.4756  0.4220
 8278TIP3    H146249   3.857   1.202  12.120 -0.6893  1.7986  1.3348
 8278TIP3    H246250   4.001   1.240  12.145  0.4129 -0.9987 -0.5534
 8279TIP3   OH246251   2.419   0.129  10.926 -0.5077  0.1587  0.4177
 8279TIP3    H146252   2.471   0.135  10.846  1.4013 -1.7296  1.4832
 8279TIP3    H246253   2.412   0.220  10.956 -0.7435  0.8221 -1.5444
 8280TIP3   OH246254   6.254   5.074   2.404 -0.6744  0.0819 -0.0697
 8280TIP3    H146255   6.325   5.096   2.343 -2.0558 -0.2190 -1.8358
 8280TIP3    H246256   6.232   5.157   2.447  0.1988  0.3299 -0.0956
 8281TIP3   OH246257   1.322   2.993  11.900  0.3974 -0.0420  0.6200
 8281TIP3    H146258   1.254   2.993  11.833  1.4602  1.1586 -0.4907
 8281TIP3    H246259   1.340   2.900  11.917 -3.1416 -0.4405  2.6471
 8282TIP3   OH246260   2.644   2.531   6.033  0.1942 -0.1435  0.4997
 8282TIP3    H146261   2.553   2.561   6.036 -0.3126 -1.4392 -1.3217
 8282TIP3    H246262   2.696   2.609   6.051 -1.2214  1.0250 -0.4076
 8283TIP3   OH246263   5.577   3.190  13.878  0.1544  0.5844  0.1145
 8283TIP3    H146264   5.498   3.241  13.899  0.4125  0.4861  1.3755
 8283TIP3    H246265   5.600   3.217  13.789 -0.6455  1.4670  0.1661
 8284TIP3   OH246266   3.800   5.222   3.012  0.6684 -0.4558 -0.1529
 8284TIP3    H146267   3.811   5.152   3.076  0.8274 -0.2657  0.0292
 8284TIP3    H246268   3.739   5.283   3.054 -1.1472 -1.5179 -1.1658
 8285TIP3   OH246269   3.221   5.370  13.063 -1.0104 -0.1030 -0.3902
 8285TIP3    H146270   3.282   5.307  13.026  0.9458  0.6677  1.4370
 8285TIP3    H246271   3.245   5.453  13.022 -1.5856  0.0041 -0.5128
 8286TIP3   OH246272   1.682   0.735   0.538 -0.2012 -0.2927  0.0445
 8286TIP3    H146273   1.607   0.792   0.526  0.3435  0.3507 -0.2981
 8286TIP3    H246274   1.724   0.766   0.618  0.2601 -0.0358 -0.2995
 8287TIP3   OH246275   0.538   1.128   4.164  0.0104 -0.1479 -0.3757
 8287TIP3    H146276   0.519   1.124   4.257  2.4172 -1.8351  0.0850
 8287TIP3    H246277   0.555   1.221   4.147 -0.7427  0.2063  0.7768
 8288TIP3   OH246278   6.570   4.856  11.384 -0.2568 -0.1910 -0.1213
 8288TIP3    H146279   6.617   4.774  11.401 -0.6207 -0.3246  0.2430
 8288TIP3    H246280   6.637   4.916  11.353 -0.2329 -1.0884 -1.8815
 8289TIP3   OH246281   6.652   5.947  16.369  0.4568  0.5614  0.3524
 8289TIP3    H146282   6.576   5.979  16.417  0.4631 -0.1192  0.8302
 8289TIP3    H246283   6.652   5.996  16.287 -1.0065 -0.0593 -0.0366
 8290TIP3   OH246284   1.211   3.220   2.161  0.4592  0.2135 -0.2556
 8290TIP3    H146285   1.255   3.298   2.194 -1.1056  1.0599 -0.1678
 8290TIP3    H246286   1.177   3.246   2.076  1.9454 -1.0905 -1.2874
 8291TIP3   OH246287   4.665   1.819  15.967  0.2335 -0.2563  0.3704
 8291TIP3    H146288   4.745   1.860  15.999 -0.3703 -0.6397  2.4661
 8291TIP3    H246289   4.598   1.843  16.031 -1.1076 -0.8292 -0.7672
 8292TIP3   OH246290   3.788   5.039  11.842  0.2306 -0.0028 -0.2418
 8292TIP3    H146291   3.820   4.997  11.923  1.6787  0.9715 -0.2828
 8292TIP3    H246292   3.860   5.028  11.780 -0.7228 -0.4035 -1.2979
 8293TIP3   OH246293   3.145   3.180  17.065 -0.1211 -0.1885  0.0182
 8293TIP3    H146294   3.200   3.257  17.053  0.3886 -0.3060  1.4956
 8293TIP3    H246295   3.117   3.184  17.157 -0.9059 -1.2208 -0.1637
 8294TIP3   OH246296   4.960   4.375   1.813 -0.3719  0.1776  0.5164
 8294TIP3    H146297   4.865   4.375   1.820 -0.3123 -2.0355  1.5266
 8294TIP3    H246298   4.991   4.352   1.900  1.1521  2.1197  0.5444
 8295TIP3   OH246299   5.933   6.126   1.456 -0.0029  0.2542  0.2348
 8295TIP3    H146300   5.947   6.145   1.364  0.3658 -2.9343 -0.4394
 8295TIP3    H246301   5.850   6.080   1.459  1.2097 -1.9626  1.1255
 8296TIP3   OH246302   1.268   2.748   1.452  0.0499 -0.3353 -0.6778
 8296TIP3    H146303   1.238   2.676   1.397  1.3110 -1.0717 -0.4192
 8296TIP3    H246304   1.352   2.774   1.414 -0.0661  0.5413 -0.3509
 8297TIP3   OH246305   4.100   1.386   5.580 -0.2468 -0.0390  0.1294
 8297TIP3    H146306   4.114   1.299   5.617 -0.8114  0.3674  1.3328
 8297TIP3    H246307   4.075   1.370   5.489 -0.3607 -1.1336  0.3498
 8298TIP3   OH246308   6.006   0.952   2.313 -0.1552 -0.1981 -0.4379
 8298TIP3    H146309   5.911   0.946   2.302 -0.0148 -0.0774 -1.7454
 8298TIP3    H246310   6.042   0.904   2.239  0.8095 -0.4136  0.1615
 8299TIP3   OH246311   3.277   0.657   0.986  0.8888  0.0089 -0.0912
 8299TIP3    H146312   3.364   0.624   1.010  1.4525  1.8488  0.4937
 8299TIP3    H246313   3.295   0.730   0.927 -0.3669 -1.3143 -2.1903
 8300TIP3   OH246314   0.424   5.842  11.442 -0.2922 -0.1739 -0.1775
 8300TIP3    H146315   0.378   5.773  11.395  0.4727 -1.2244  0.5919
 8300TIP3    H246316   0.494   5.870  11.382 -0.3552 -0.3474 -0.3306
 8301TIP3   OH246317   3.622   2.431  15.823 -0.7419 -0.1605 -0.3396
 8301TIP3    H146318   3.653   2.467  15.906 -1.5474 -0.6200  0.1674
 8301TIP3    H246319   3.639   2.500  15.759 -2.1538  1.0836  0.5997
 8302TIP3   OH246320   3.949   0.636   5.986 -0.5824  0.0359 -0.3340
 8302TIP3    H146321   3.950   0.544   6.014  0.6685  0.0614 -0.2597
 8302TIP3    H246322   4.017   0.641   5.919 -0.0956  1.0748  0.2276
 8303TIP3   OH246323   6.220   4.222   5.259 -0.0309 -0.0183 -0.0734
 8303TIP3    H146324   6.276   4.299   5.250  1.1382 -0.8952 -0.3923
 8303TIP3    H246325   6.209   4.212   5.354  1.1401 -0.3976  0.0250
 8304TIP3   OH246326   5.456   2.371  14.015  0.6745  0.3969  0.4546
 8304TIP3    H146327   5.429   2.393  13.926  1.6978 -1.6569 -0.4097
 8304TIP3    H246328   5.541   2.415  14.026 -0.5462  2.6302  1.3266
 8305TIP3   OH246329   4.080   1.589   1.667 -0.1298  0.3144 -0.1199
 8305TIP3    H146330   4.146   1.523   1.689 -0.6043  0.1425  0.8055
 8305TIP3    H246331   4.109   1.668   1.712 -0.2705  0.3825 -0.1485
 8306TIP3   OH246332   4.478   1.932   5.289 -0.3341 -0.5591  0.5982
 8306TIP3    H146333   4.451   1.852   5.245 -2.2335 -0.2837  1.2137
 8306TIP3    H246334   4.574   1.926   5.295 -0.2994 -1.8653 -1.0810
 8307TIP3   OH246335   2.029   5.580   0.242 -0.8761  0.3300  0.1282
 8307TIP3    H146336   1.994   5.608   0.158 -2.5391 -1.0228  0.3343
 8307TIP3    H246337   2.017   5.655   0.300  2.7602  2.2648 -1.4445
 8308TIP3   OH246338   0.198   6.208  11.502  0.2782  0.2984  0.7319
 8308TIP3    H146339   0.153   6.124  11.515 -1.7133  0.5890 -3.5287
 8308TIP3    H246340   0.129   6.274  11.510  0.4951  1.0046 -2.4642
 8309TIP3   OH246341   6.081   5.883   6.367 -0.0245 -0.3081 -0.2753
 8309TIP3    H146342   6.009   5.820   6.371 -0.4378  0.1491 -0.3910
 8309TIP3    H246343   6.154   5.839   6.410 -0.9920  0.0308  1.7518
 8310TIP3   OH246344   2.885   1.068   2.735 -0.0520 -0.1459  0.5935
 8310TIP3    H146345   2.961   1.018   2.705  0.0553  0.3516  0.0360
 8310TIP3    H246346   2.920   1.132   2.796  0.1305  0.8227 -0.5169
 8311TIP3   OH246347   4.773   0.691   6.094  0.1275  0.9135 -0.4254
 8311TIP3    H146348   4.849   0.732   6.136 -0.7614  2.1056  0.0632
 8311TIP3    H246349   4.717   0.664   6.167  0.2577 -0.3232 -0.7748
 8312TIP3   OH246350   5.046   4.840   3.977  0.0786 -0.3204 -0.7469
 8312TIP3    H146351   5.080   4.820   3.890  0.0808 -0.8541 -0.6277
 8312TIP3    H246352   5.022   4.932   3.973  0.0662 -0.3465 -1.3167
 8313TIP3   OH246353   4.490   3.731   4.925  0.1074  0.2559  0.1445
 8313TIP3    H146354   4.558   3.783   4.968  2.0880  0.4934 -3.1579
 8313TIP3    H246355   4.495   3.645   4.967  2.6266  0.1951 -0.2374
 8314TIP3   OH246356   3.574   2.043  12.455  0.0068 -0.1571  0.4629
 8314TIP3    H146357   3.521   1.963  12.462  0.1766 -0.3111  0.0197
 8314TIP3    H246358   3.638   2.035  12.525 -1.2603  0.5691  1.7364
 8315TIP3   OH246359   0.164   0.118   4.387 -0.7857  0.0088  0.0253
 8315TIP3    H146360   0.237   0.170   4.421  0.5025 -1.7381 -0.0251
 8315TIP3    H246361   0.125   0.077   4.464 -2.7592  2.1631  0.2549
 8316TIP3   OH246362   4.159   5.254  12.983  0.0294 -0.0626  0.7942
 8316TIP3    H146363   4.225   5.242  13.051 -2.0259  0.3381  2.9183
 8316TIP3    H246364   4.086   5.296  13.028 -1.1121  0.8495 -1.8335
 8317TIP3   OH246365   2.674   6.095   0.289 -0.3092  0.4789 -0.1763
 8317TIP3    H146366   2.671   6.005   0.258  0.1490  0.1860  0.6336
 8317TIP3    H246367   2.606   6.140   0.238 -0.5466 -0.3157 -0.5696
 8318TIP3   OH246368   3.243   5.097  13.486  0.3722  0.1571  0.4696
 8318TIP3    H146369   3.206   5.009  13.479 -0.2035  0.1185  3.4044
 8318TIP3    H246370   3.177   5.153  13.447  0.3905 -0.6191 -0.7104
 8319TIP3   OH246371   4.154   3.476  11.070  0.1449  0.2655  0.0408
 8319TIP3    H146372   4.180   3.564  11.040  0.8281  0.3070  0.7497
 8319TIP3    H246373   4.131   3.430  10.990  3.7315 -0.2085 -0.7624
 8320TIP3   OH246374   2.361   1.726   3.566 -0.2298  0.1783 -0.5461
 8320TIP3    H146375   2.289   1.714   3.503 -1.9306 -1.0816  1.5656
 8320TIP3    H246376   2.410   1.644   3.561  1.5314  1.3054 -2.4927
 8321TIP3   OH246377   3.653   3.028  15.730  0.4124 -0.6088 -0.2423
 8321TIP3    H146378   3.709   3.045  15.655  0.8465 -0.3599  0.1384
 8321TIP3    H246379   3.582   3.091  15.722  0.4626 -0.5773 -0.4401
 8322TIP3   OH246380   6.528   6.155  17.157  0.4120  0.0991 -0.2439
 8322TIP3    H146381   6.567   6.069  17.146 -0.6833 -0.4228 -0.0761
 8322TIP3    H246382   6.534   6.173  17.251  0.6353  0.2040 -0.2779
 8323TIP3   OH246383   1.357   4.495  16.739 -0.6022 -0.3127 -0.1489
 8323TIP3    H146384   1.432   4.440  16.761 -1.4928 -1.6097 -0.2747
 8323TIP3    H246385   1.394   4.583  16.730  1.2743 -1.2662 -2.3296
 8324TIP3   OH246386   4.708   6.409   1.582 -0.1050 -0.0350  0.5474
 8324TIP3    H146387   4.617   6.383   1.596  0.2372 -2.4176 -1.4753
 8324TIP3    H246388   4.701   6.498   1.548 -1.7069 -0.3804 -0.0983
 8325TIP3   OH246389   0.443   3.179   5.004 -0.4698  0.1987 -0.3667
 8325TIP3    H146390   0.365   3.158   5.054 -1.4787  1.1020 -1.5269
 8325TIP3    H246391   0.500   3.225   5.066  0.3749 -2.9654  1.2612
 8326TIP3   OH246392   0.943   1.989  15.242 -0.5237 -0.4694  0.3999
 8326TIP3    H146393   0.914   1.963  15.154 -1.1833 -0.8474  0.7238
 8326TIP3    H246394   1.032   1.955  15.249 -0.5562 -0.6451 -0.0319
 8327TIP3   OH246395   5.987   3.681  14.051 -0.3223 -0.5074 -0.7771
 8327TIP3    H146396   6.050   3.694  13.981 -0.3355 -0.2772 -0.7438
 8327TIP3    H246397   5.902   3.702  14.012 -0.1944  0.8024 -0.3428
 8328TIP3   OH246398   3.847   5.064  13.864  0.0642  0.1816 -0.2159
 8328TIP3    H146399   3.881   5.122  13.932 -0.1487  2.0040 -1.6467
 8328TIP3    H246400   3.822   4.984  13.912 -0.9941  1.7854  1.9900
 8329TIP3   OH246401   4.139   3.730  11.988  0.6747 -0.4617 -0.7111
 8329TIP3    H146402   4.059   3.706  12.035  1.5050 -1.0798  0.3995
 8329TIP3    H246403   4.112   3.803  11.932 -0.9169 -1.3559 -1.1532
 8330TIP3   OH246404   4.137   3.952  12.206  0.0010 -0.5149  0.3369
 8330TIP3    H146405   4.180   3.886  12.260  2.8223 -0.7925 -2.1754
 8330TIP3    H246406   4.065   3.905  12.163  0.2678 -1.2620  0.6994
 8331TIP3   OH246407   2.490   5.843   4.111 -0.4787  0.6735 -0.0767
 8331TIP3    H146408   2.462   5.877   4.196 -0.8327  0.0468  0.0598
 8331TIP3    H246409   2.496   5.748   4.123  0.1028  0.6415 -0.5689
 8332TIP3   OH246410   2.134   6.035   2.559 -0.3991 -0.2450  0.4730
 8332TIP3    H146411   2.068   6.017   2.626 -1.7532 -0.6339 -0.9363
 8332TIP3    H246412   2.095   6.001   2.478  1.2380  0.1636 -0.4951
 8333TIP3   OH246413   0.347   1.397  11.546  0.1705 -0.0941 -0.8132
 8333TIP3    H146414   0.439   1.420  11.559  0.0066  0.4520 -0.6246
 8333TIP3    H246415   0.338   1.388  11.451 -0.0243  1.7139 -0.9821
 8334TIP3   OH246416   2.240   4.551   6.386  0.1217  0.0837  0.4266
 8334TIP3    H146417   2.152   4.571   6.353  0.0103 -0.7034  0.2212
 8334TIP3    H246418   2.264   4.626   6.440 -0.9799 -0.0362  1.0831
 8335TIP3   OH246419   0.400   4.507   4.662  0.1827 -0.6332  0.2525
 8335TIP3    H146420   0.310   4.498   4.632  0.7644 -0.2614 -1.6858
 8335TIP3    H246421   0.404   4.594   4.702 -0.6401 -1.1932  1.5807
 8336TIP3   OH246422   3.588   3.478   3.185  0.2092  0.4966 -0.5916
 8336TIP3    H146423   3.661   3.528   3.222 -0.2263 -0.2452  1.2820
 8336TIP3    H246424   3.510   3.511   3.230 -0.5390  0.7015 -1.9893
 8337TIP3   OH246425   0.533   4.249  11.916 -0.5085 -0.0183  0.1788
 8337TIP3    H146426   0.499   4.302  11.988  0.4177  1.3719 -0.3887
 8337TIP3    H246427   0.463   4.250  11.850 -0.8303 -0.2231  0.5140
 8338TIP3   OH246428   2.184   2.837  16.558 -0.2620  0.7517  0.9455
 8338TIP3    H146429   2.279   2.828  16.550 -0.2209  1.2560  0.8657
 8338TIP3    H246430   2.154   2.856  16.469 -0.7645 -2.3055  0.4104
 8339TIP3   OH246431   6.620   3.031  15.603 -0.0553  0.0020  0.0470
 8339TIP3    H146432   6.576   2.979  15.670  0.7917 -0.4229  0.2791
 8339TIP3    H246433   6.564   3.022  15.526  0.0136 -1.1481  0.1238
 8340TIP3   OH246434   6.782   4.632  11.375  0.6201 -0.6423 -0.0534
 8340TIP3    H146435   6.876   4.617  11.375  0.4424 -1.8564 -0.5515
 8340TIP3    H246436   6.744   4.544  11.369 -0.5335 -0.1213 -0.5797
 8341TIP3   OH246437   6.080   3.485  12.884  0.8404  0.5485  0.1367
 8341TIP3    H146438   6.067   3.404  12.835  0.8566  0.1080  0.8684
 8341TIP3    H246439   5.992   3.511  12.911  0.8037  0.9322 -0.3539
 8342TIP3   OH246440   2.890   1.328  15.513 -0.2908 -0.8561  0.0093
 8342TIP3    H146441   2.802   1.360  15.490  1.3777  2.0368 -2.6867
 8342TIP3    H246442   2.886   1.315  15.608 -3.1715  0.7662  0.1860
 8343TIP3   OH246443   1.375   4.895  11.665  0.2689  0.2226 -0.5224
 8343TIP3    H146444   1.339   4.944  11.591 -1.3109 -0.1240  0.0100
 8343TIP3    H246445   1.407   4.962  11.725 -1.1568  0.5920 -0.1607
 8344TIP3   OH246446   4.281   5.703   0.403  0.4158 -0.2437  0.0883
 8344TIP3    H146447   4.229   5.628   0.433  0.4034 -0.4688 -0.4829
 8344TIP3    H246448   4.365   5.692   0.446 -0.4714  0.9432  2.2160
 8345TIP3   OH246449   5.196   4.234   2.913  0.9304  0.5555 -0.5196
 8345TIP3    H146450   5.154   4.148   2.904  1.1950  0.3617  0.0801
 8345TIP3    H246451   5.289   4.215   2.908  1.0791  0.5092  1.9140
 8346TIP3   OH246452   0.243   1.943   0.693  0.6884 -0.4991  0.3365
 8346TIP3    H146453   0.242   1.894   0.776 -0.4355 -2.0215 -0.5484
 8346TIP3    H246454   0.260   1.877   0.626  0.4420  0.5378 -0.7691
 8347TIP3   OH246455   5.549   5.160  16.017 -0.5996  0.1390 -0.5026
 8347TIP3    H146456   5.504   5.127  15.939  0.2950  0.7103 -1.2665
 8347TIP3    H246457   5.642   5.160  15.993 -0.1753 -1.0495  1.0726
 8348TIP3   OH246458   1.534   4.126   3.970  0.1538 -0.6898 -0.2309
 8348TIP3    H146459   1.606   4.091   3.918  0.6293 -1.2804  0.7965
 8348TIP3    H246460   1.512   4.056   4.031  1.2997  0.8573  2.0342
 8349TIP3   OH246461   3.412   2.895   4.601  0.1294 -0.1743  0.1268
 8349TIP3    H146462   3.472   2.853   4.662  0.6660  1.0868  0.4811
 8349TIP3    H246463   3.464   2.964   4.559 -1.4465  1.9638  1.5458
 8350TIP3   OH246464   5.840   4.398   4.754 -0.1940 -0.0945  0.5777
 8350TIP3    H146465   5.790   4.464   4.802  1.3303  0.6953  1.1230
 8350TIP3    H246466   5.915   4.447   4.718  0.6541 -1.4098  0.5169
 8351TIP3   OH246467   2.720   4.496   0.420  0.1098  0.1570  0.0377
 8351TIP3    H146468   2.696   4.468   0.508  0.3440  0.1541  0.1014
 8351TIP3    H246469   2.683   4.584   0.412 -0.5408 -0.1305 -0.1267
 8352TIP3   OH246470   5.351   2.650  16.378 -0.2693  0.4981 -0.1951
 8352TIP3    H146471   5.277   2.701  16.344 -0.3635  1.4177  1.3432
 8352TIP3    H246472   5.316   2.609  16.458  0.1348 -1.1022 -0.8386
 8353TIP3   OH246473   2.258   1.866  16.596  0.4416  0.6514  0.2249
 8353TIP3    H146474   2.233   1.836  16.683 -0.3802 -0.0069 -0.2296
 8353TIP3    H246475   2.263   1.787  16.543  0.1407  1.1185 -0.5198
 8354TIP3   OH246476   5.097   6.558  15.713  0.0840  0.4181  0.1688
 8354TIP3    H146477   5.028   6.565  15.780 -0.3666  2.1802 -0.4582
 8354TIP3    H246478   5.149   6.483  15.741  0.7872  1.9713  3.3140
 8355TIP3   OH246479   3.407   6.129   3.253  0.6522 -0.2791 -0.2445
 8355TIP3    H146480   3.405   6.047   3.205  0.3740 -0.0757 -0.5877
 8355TIP3    H246481   3.324   6.172   3.231  0.0810 -0.6160  1.1835
 8356TIP3   OH246482   1.328   5.877  17.224  0.4294 -0.2148  0.2682
 8356TIP3    H146483   1.377   5.805  17.184  1.0434  0.5454 -0.3550
 8356TIP3    H246484   1.357   5.955  17.178 -0.9648  0.3214  0.2675
 8357TIP3   OH246485   4.589   1.548   0.110 -0.9863 -0.3201 -0.0507
 8357TIP3    H146486   4.662   1.528   0.052 -0.7880  0.2557 -0.0036
 8357TIP3    H246487   4.522   1.483   0.087 -0.5049 -0.7831 -0.1650
 8358TIP3   OH246488   6.539   6.127  11.561  0.1427  0.3839 -0.7601
 8358TIP3    H146489   6.625   6.112  11.599  0.2580  2.9290  0.0686
 8358TIP3    H246490   6.479   6.125  11.636 -0.2892  0.2191 -1.1125
 8359TIP3   OH246491   4.693   5.971  13.918  0.4041 -0.2573 -0.1289
 8359TIP3    H146492   4.672   6.020  13.839  1.8764 -2.1056 -1.7179
 8359TIP3    H246493   4.635   5.895  13.915 -1.0621  0.7225  1.7389
 8360TIP3   OH246494   3.122   3.896   1.704  0.7127 -0.4527 -0.0705
 8360TIP3    H146495   3.214   3.884   1.678  0.8394  0.5004 -0.0704
 8360TIP3    H246496   3.087   3.959   1.641 -0.4289 -2.1001 -1.1328
 8361TIP3   OH246497   6.321   2.712  15.666 -0.7385 -0.0223  0.3943
 8361TIP3    H146498   6.247   2.657  15.639 -0.7085  0.0754  0.1163
 8361TIP3    H246499   6.280   2.792  15.698 -0.8550 -0.7541  2.1194
 8362TIP3   OH246500   3.573   4.166  13.934  0.0635 -0.4241 -0.1369
 8362TIP3    H146501   3.531   4.199  14.013  0.6530  0.1185 -0.0484
 8362TIP3    H246502   3.665   4.155  13.959  0.1555 -0.7230 -0.6012
 8363TIP3   OH246503   4.388   0.141  15.558 -0.2407 -0.1885 -0.6630
 8363TIP3    H146504   4.393   0.208  15.627 -0.7683 -1.1187  0.2906
 8363TIP3    H246505   4.478   0.111  15.547  0.3874  2.2190 -2.6719
 8364TIP3   OH246506   0.138   1.962   6.453 -0.0223  0.2309 -0.0328
 8364TIP3    H146507   0.225   1.948   6.415 -0.5797  0.5964 -1.4316
 8364TIP3    H246508   0.106   1.874   6.471 -0.2449  0.0115 -1.4961
 8365TIP3   OH246509   2.626   0.873  14.801 -0.5304 -0.0843 -0.0352
 8365TIP3    H146510   2.553   0.832  14.757 -1.5063  0.7277  0.8011
 8365TIP3    H246511   2.586   0.933  14.865  0.8316  1.4295 -0.5483
 8366TIP3   OH246512   6.571   4.715   2.904 -0.0161  0.1038 -0.1279
 8366TIP3    H146513   6.582   4.804   2.868  0.5673  1.0480  2.3033
 8366TIP3    H246514   6.655   4.695   2.944 -0.4927 -1.1535  0.2665
 8367TIP3   OH246515   4.130   4.698   0.597  0.5041 -1.3986 -0.3130
 8367TIP3    H146516   4.204   4.650   0.634  0.6589 -1.7891 -1.1180
 8367TIP3    H246517   4.153   4.791   0.608  0.2100 -1.4967  1.2337
 8368TIP3   OH246518   3.043   3.969   0.549  0.4576  0.0689 -0.0634
 8368TIP3    H146519   3.037   3.934   0.638  0.6932  2.3177  0.8680
 8368TIP3    H246520   3.118   4.028   0.551  0.3410  0.3029 -1.6987
 8369TIP3   OH246521   4.386   0.188   0.294 -0.3136 -0.3755  0.4987
 8369TIP3    H146522   4.346   0.211   0.377 -0.7862 -2.1382  0.7857
 8369TIP3    H246523   4.342   0.107   0.268 -0.6306  0.4762 -1.7731
 8370TIP3   OH246524   5.938   0.409   4.389 -0.2569  0.0723 -0.0063
 8370TIP3    H146525   5.850   0.446   4.383  0.2481  1.1184 -1.4627
 8370TIP3    H246526   5.925   0.314   4.385 -1.3847  0.1904  0.7638
 8371TIP3   OH246527   5.172   4.592   5.001 -0.6282 -0.0459  0.2343
 8371TIP3    H146528   5.076   4.593   4.996 -0.4985  0.2129 -2.5524
 8371TIP3    H246529   5.198   4.520   4.944  1.0052  2.5276 -2.3207
 8372TIP3   OH246530   2.004   1.579  14.863  0.6729  0.6165 -0.3697
 8372TIP3    H146531   2.041   1.646  14.805 -0.1262  1.8991  0.5904
 8372TIP3    H246532   2.040   1.599  14.949 -1.0324  0.9678  0.2856
 8373TIP3   OH246533   4.577   6.510   2.972  0.5100  0.0149 -0.0135
 8373TIP3    H146534   4.619   6.596   2.965  0.9254 -0.1728  0.1477
 8373TIP3    H246535   4.603   6.464   2.892  0.6176 -0.1043  0.0897
 8374TIP3   OH246536   6.518   1.532   6.327  0.1712  0.3372  0.6314
 8374TIP3    H146537   6.539   1.616   6.286 -1.8740  0.2535 -0.6549
 8374TIP3    H246538   6.541   1.544   6.419 -1.1111  2.7026  0.6909
 8375TIP3   OH246539   1.212   6.456   5.707  0.3030  0.1083 -0.2420
 8375TIP3    H146540   1.206   6.474   5.801 -1.1733  2.5615 -0.7792
 8375TIP3    H246541   1.294   6.498   5.680 -0.3542  1.2746 -0.4447
 8376TIP3   OH246542   2.575   6.398  14.987 -0.0785 -0.2422  0.3517
 8376TIP3    H146543   2.480   6.405  14.975 -0.2457 -1.3037  0.9554
 8376TIP3    H246544   2.603   6.488  15.004 -1.3779 -0.2398  2.8393
 8377TIP3   OH246545   6.678   1.323  15.184 -0.0530 -0.2815  0.1006
 8377TIP3    H146546   6.666   1.389  15.116  1.5822  0.6049  0.6687
 8377TIP3    H246547   6.647   1.241  15.144  1.1351  0.1808 -1.7824
 8378TIP3   OH246548   4.153   6.518   4.436  0.1023  0.4735 -0.6087
 8378TIP3    H146549   4.127   6.610   4.441 -1.3466 -0.0199  1.1548
 8378TIP3    H246550   4.071   6.470   4.424  0.8598 -0.6013 -1.7031
 8379TIP3   OH246551   1.544   3.205  13.665 -0.1936  0.5545  0.1593
 8379TIP3    H146552   1.620   3.213  13.607  0.4958 -0.4114  0.9357
 8379TIP3    H246553   1.559   3.125  13.714 -0.5529  1.6088  2.0255
 8380TIP3   OH246554   1.999   6.717   0.620  0.1367 -0.2704  0.4256
 8380TIP3    H146555   1.965   6.754   0.701 -0.3324 -0.6133  0.3845
 8380TIP3    H246556   2.018   6.626   0.642 -0.1488 -0.4088  0.1037
 8381TIP3   OH246557   1.239   1.276   1.012 -0.2340  0.0078 -0.0931
 8381TIP3    H146558   1.289   1.281   1.093  0.2980  0.8563 -0.4584
 8381TIP3    H246559   1.197   1.190   1.014 -0.7431  0.2819  1.3673
 8382TIP3   OH246560   5.675   5.176   3.851 -0.1742 -0.2789  0.1313
 8382TIP3    H146561   5.658   5.109   3.784  0.5802 -0.2011 -0.1432
 8382TIP3    H246562   5.634   5.256   3.816  1.4188  0.1024 -0.9018
 8383TIP3   OH246563   4.975   2.524  12.232 -0.1944 -0.9454  0.2400
 8383TIP3    H146564   4.967   2.466  12.157  0.5611  1.2990 -1.6534
 8383TIP3    H246565   5.060   2.504  12.270  1.2637  0.7588 -2.0486
 8384TIP3   OH246566   5.946   6.495  16.012 -0.0091  0.6026 -0.4021
 8384TIP3    H146567   5.896   6.417  15.988  0.2288  0.9817 -2.2150
 8384TIP3    H246568   5.880   6.559  16.037 -0.2036 -0.1900  1.1579
 8385TIP3   OH246569   2.325   2.707   0.742  0.3572  0.4851  0.0789
 8385TIP3    H146570   2.233   2.686   0.730  0.5473  0.2363 -1.0178
 8385TIP3    H246571   2.328   2.758   0.823 -0.5555 -0.7151  0.8854
 8386TIP3   OH246572   3.416   0.760   5.698 -0.4508 -0.3229  0.1005
 8386TIP3    H146573   3.478   0.799   5.759  1.0331 -0.5059 -1.2707
 8386TIP3    H246574   3.469   0.705   5.640 -2.1507 -2.2226  0.2675
 8387TIP3   OH246575   6.023   2.542   0.871 -0.3118  0.0360  0.0976
 8387TIP3    H146576   6.062   2.455   0.880  0.0657  0.2989  1.0295
 8387TIP3    H246577   6.021   2.577   0.960 -0.8888  0.7992 -0.2106
 8388TIP3   OH246578   1.549   5.326   4.201 -0.2678  0.4122 -0.0807
 8388TIP3    H146579   1.563   5.394   4.266  0.1513  1.4559 -1.2584
 8388TIP3    H246580   1.457   5.337   4.175 -0.4849 -0.1140  0.4425
 8389TIP3   OH246581   2.421   4.279   0.513  0.2541 -0.5281  0.5277
 8389TIP3    H146582   2.357   4.343   0.546  1.0226  0.4777  0.1241
 8389TIP3    H246583   2.479   4.263   0.587 -0.6536 -1.7018  0.9967
 8390TIP3   OH246584   5.543   1.579  11.543 -0.0943 -0.5495  0.1023
 8390TIP3    H146585   5.564   1.497  11.499  1.4656 -0.0689 -0.0942
 8390TIP3    H246586   5.601   1.644  11.503  0.0469  0.2614  1.5529
 8391TIP3   OH246587   1.127   2.008   5.123  0.1112 -0.7409  0.3947
 8391TIP3    H146588   1.075   1.968   5.053 -0.8455  2.7667 -1.0301
 8391TIP3    H246589   1.214   2.018   5.085  0.3626 -1.5256  0.7670
 8392TIP3   OH246590   5.439   2.390  16.519 -0.1470 -0.3584  0.4757
 8392TIP3    H146591   5.488   2.389  16.437  0.2482  0.2820  0.7011
 8392TIP3    H246592   5.439   2.299  16.548  1.2405 -0.3116  0.6583
 8393TIP3   OH246593   4.672   5.341   2.062 -0.6056  0.3623 -0.5927
 8393TIP3    H146594   4.736   5.272   2.044 -1.1313 -0.4524  0.5468
 8393TIP3    H246595   4.613   5.301   2.126 -1.3529  1.6267 -0.4940
 8394TIP3   OH246596   2.702   4.925  12.102  0.1577 -0.5210 -0.0101
 8394TIP3    H146597   2.645   4.901  12.029  1.7116 -0.9179 -1.0982
 8394TIP3    H246598   2.662   5.004  12.139 -2.6832 -2.3605  1.0142
 8395TIP3   OH246599   4.594   6.139   0.358 -0.0733 -0.3430  0.2186
 8395TIP3    H146600   4.619   6.103   0.443 -0.8302 -3.0020 -0.6136
 8395TIP3    H246601   4.677   6.149   0.311  0.0694 -3.0336 -0.2316
 8396TIP3   OH246602   0.661   5.780  16.528 -0.6478 -0.1309 -0.1091
 8396TIP3    H146603   0.664   5.809  16.437 -0.7538  2.5094  0.6867
 8396TIP3    H246604   0.727   5.711  16.534 -0.4645 -0.1376 -2.1137
 8397TIP3   OH246605   2.849   6.055   3.612  0.6791 -0.7435 -0.0896
 8397TIP3    H146606   2.782   6.078   3.548  0.2364 -1.3231  0.1636
 8397TIP3    H246607   2.835   6.117   3.685 -0.2568 -1.5397  0.4192
 8398TIP3   OH246608   1.160   1.011  16.069 -0.1015 -0.3691  0.1028
 8398TIP3    H146609   1.238   0.958  16.087 -0.0007  0.1173  1.1410
 8398TIP3    H246610   1.109   0.959  16.007 -0.0932 -1.7831  1.2466
 8399TIP3   OH246611   5.097   5.539   3.963  0.1511 -0.1678  0.3301
 8399TIP3    H146612   5.114   5.633   3.955 -0.3806 -0.2229 -1.9847
 8399TIP3    H246613   5.012   5.526   3.921 -0.6307 -1.4493  2.2064
 8400TIP3   OH246614   0.307   1.518   1.498  0.6889  0.0589  0.6402
 8400TIP3    H146615   0.273   1.449   1.441  0.3701  1.3135 -0.7259
 8400TIP3    H246616   0.244   1.590   1.489  0.3280  0.0738  3.0410
 8401TIP3   OH246617   1.683   5.718   5.896  0.3297 -0.2605 -0.5199
 8401TIP3    H146618   1.667   5.757   5.983  0.3745  2.0632 -1.5002
 8401TIP3    H246619   1.772   5.684   5.901  0.7496  0.8696  0.0232
 8402TIP3   OH246620   5.085   3.825  13.291  0.1333 -0.2338  0.4506
 8402TIP3    H146621   5.008   3.794  13.243  2.0379 -2.2288 -1.4279
 8402TIP3    H246622   5.111   3.751  13.346 -0.4241  1.1119  2.5772
 8403TIP3   OH246623   6.746   3.978  16.767 -0.1491  0.4225  0.1554
 8403TIP3    H146624   6.709   3.890  16.759 -4.4248  2.1298  0.1175
 8403TIP3    H246625   6.837   3.963  16.794 -0.5356 -3.9954 -0.6112
 8404TIP3   OH246626   5.099   2.438   6.162 -0.0026  0.5620  0.1620
 8404TIP3    H146627   5.004   2.438   6.153  0.1088  0.5142 -1.0345
 8404TIP3    H246628   5.114   2.472   6.250 -1.2512 -2.6529  1.6800
 8405TIP3   OH246629   2.788   2.027  15.378  1.1287 -0.4800  0.3439
 8405TIP3    H146630   2.751   1.999  15.462  0.3213  0.4387  0.2945
 8405TIP3    H246631   2.815   2.117  15.393  0.8658 -0.2728 -0.4310
 8406TIP3   OH246632   1.618   0.957   1.302  0.6763 -0.4952  0.3375
 8406TIP3    H146633   1.659   0.871   1.302  0.1257 -0.7942 -2.0673
 8406TIP3    H246634   1.648   0.998   1.383  2.0249 -2.4304  0.8495
 8407TIP3   OH246635   4.587   4.658   2.015 -0.7483 -0.0532  0.0322
 8407TIP3    H146636   4.656   4.613   2.063 -1.1446 -0.5475  0.1497
 8407TIP3    H246637   4.593   4.749   2.044  0.0022 -0.0445 -0.1389
 8408TIP3   OH246638   1.637   0.440  16.232 -0.3959 -0.1910 -0.0607
 8408TIP3    H146639   1.702   0.492  16.280 -1.1262 -0.6421  1.4557
 8408TIP3    H246640   1.667   0.441  16.142  0.7447  1.1077  0.3179
 8409TIP3   OH246641   6.322   4.518   3.662 -0.2532  0.0818  0.1188
 8409TIP3    H146642   6.262   4.589   3.681  0.5349  1.1709 -1.3452
 8409TIP3    H246643   6.392   4.526   3.727  0.4348  1.3855 -0.7622
 8410TIP3   OH246644   5.744   1.102   3.976  0.1032  0.2341  0.0667
 8410TIP3    H146645   5.805   1.078   4.046 -0.8314  1.3987  1.2826
 8410TIP3    H246646   5.795   1.088   3.895  1.3479 -0.6337  0.9679
 8411TIP3   OH246647   4.736   2.385   5.429  0.3116 -0.2235  0.1398
 8411TIP3    H146648   4.749   2.317   5.495  1.0434  1.9017  2.2608
 8411TIP3    H246649   4.675   2.347   5.366 -1.1550 -1.9648  2.5682
 8412TIP3   OH246650   6.705   4.367  13.389  0.7046 -0.1063  0.0822
 8412TIP3    H146651   6.761   4.428  13.341  0.7767  0.7934  1.2846
 8412TIP3    H246652   6.633   4.421  13.421  0.9446 -0.5685  1.4472
 8413TIP3   OH246653   1.948   6.521  14.854 -0.1070  0.5400 -0.6067
 8413TIP3    H146654   2.031   6.568  14.856 -0.1177  0.5378  0.0601
 8413TIP3    H246655   1.902   6.550  14.933 -0.1428 -0.5368 -0.2218
 8414TIP3   OH246656   1.419   0.139   3.368 -0.4513  0.6639  0.1092
 8414TIP3    H146657   1.420   0.048   3.341 -2.3004  0.0471  1.9878
 8414TIP3    H246658   1.392   0.187   3.290 -0.9934 -0.5522 -0.4575
 8415TIP3   OH246659   3.653   5.938  13.932  0.0746 -0.4065 -0.5983
 8415TIP3    H146660   3.725   6.000  13.927  0.4752 -0.5716  2.3281
 8415TIP3    H246661   3.692   5.853  13.911  0.5350 -0.3500  0.0172
 8416TIP3   OH246662   2.734   1.952   4.896 -0.7432 -0.2886 -0.2345
 8416TIP3    H146663   2.692   2.038   4.896  1.3235  0.7635  0.6718
 8416TIP3    H246664   2.817   1.966   4.850 -0.8760 -2.0756 -1.0686
 8417TIP3   OH246665   4.831   0.581   2.034 -0.1171 -1.0101 -0.0803
 8417TIP3    H146666   4.847   0.542   1.948 -1.5853 -0.4584 -0.6307
 8417TIP3    H246667   4.886   0.658   2.037 -0.3121 -0.8511 -0.6630
 8418TIP3   OH246668   4.725   6.136   1.196 -0.0084  0.1354  0.3573
 8418TIP3    H146669   4.801   6.179   1.157  0.7491 -1.8227 -0.4205
 8418TIP3    H246670   4.756   6.103   1.280  0.1832 -1.1633 -0.2123
 8419TIP3   OH246671   2.512   3.921   6.241 -0.2018  0.1118 -0.4946
 8419TIP3    H146672   2.438   3.861   6.228  2.2754 -2.8135 -1.6405
 8419TIP3    H246673   2.540   3.905   6.331 -0.1459  0.2548 -0.4873
 8420TIP3   OH246674   5.884   3.997   5.949 -0.7763  0.0400 -0.0336
 8420TIP3    H146675   5.913   3.975   6.038 -0.6875  1.8886  0.4172
 8420TIP3    H246676   5.912   4.088   5.936  0.3966 -0.6200 -2.4670
 8421TIP3   OH246677   6.389   1.382  12.205  0.0773  0.3931 -0.0725
 8421TIP3    H146678   6.299   1.357  12.185  0.3047 -0.7862  0.3414
 8421TIP3    H246679   6.443   1.330  12.146  0.5394  0.2412  0.4785
 8422TIP3   OH246680   1.666   1.978  16.375 -0.2294  0.1194  0.4329
 8422TIP3    H146681   1.637   2.062  16.341 -2.9081 -0.9475 -0.0612
 8422TIP3    H246682   1.697   1.996  16.463 -2.4254  1.3756  0.9833
 8423TIP3   OH246683   5.039   1.206   2.538 -0.6622  0.0744  0.0656
 8423TIP3    H146684   5.077   1.248   2.461  0.4459 -2.1676 -0.6649
 8423TIP3    H246685   4.962   1.160   2.504  0.3052 -1.6080  0.1171
 8424TIP3   OH246686   2.343   3.105  15.973 -0.0561 -0.1837  0.0544
 8424TIP3    H146687   2.399   3.173  16.010  2.9576 -0.7831 -3.1829
 8424TIP3    H246688   2.375   3.024  16.013 -2.0036 -0.0674  1.9861
 8425TIP3   OH246689   3.122   1.265  17.021 -0.4145  0.7558  0.1659
 8425TIP3    H146690   3.129   1.223  17.107 -1.6814  2.6180  1.2274
 8425TIP3    H246691   3.062   1.209  16.972  0.7673 -0.6378  0.2656
 8426TIP3   OH246692   4.499   6.647   2.088  0.4046  0.0548 -0.2066
 8426TIP3    H146693   4.491   6.564   2.042  3.3879 -0.6381  0.4095
 8426TIP3    H246694   4.523   6.711   2.021  1.5131 -0.2931 -0.1464
 8427TIP3   OH246695   1.450   4.157  12.029  0.4245  0.4385  0.1637
 8427TIP3    H146696   1.523   4.102  12.056 -0.2619 -1.6486 -2.0380
 8427TIP3    H246697   1.490   4.237  11.998  1.7902 -0.6511 -0.9342
 8428TIP3   OH246698   1.607   4.056   2.907 -0.6852 -0.2017  0.4866
 8428TIP3    H146699   1.693   4.097   2.899 -1.4080  1.2395 -0.1902
 8428TIP3    H246700   1.624   3.962   2.903  1.0523  0.0166  2.5159
 8429TIP3   OH246701   1.589   0.910  17.186  0.0987 -0.4826 -0.3565
 8429TIP3    H146702   1.499   0.925  17.213  0.2174  0.3528 -0.3961
 8429TIP3    H246703   1.629   0.997  17.188  1.0141 -0.9002  0.0835
 8430TIP3   OH246704   1.632   5.304   1.612  0.7995  1.0206 -0.5449
 8430TIP3    H146705   1.633   5.389   1.569 -0.9104  1.4197  0.1500
 8430TIP3    H246706   1.623   5.324   1.705  1.0075  0.0924 -0.3201
 8431TIP3   OH246707   2.771   4.902   2.157 -0.2192 -0.0974  0.2343
 8431TIP3    H146708   2.798   4.952   2.080  0.7742 -0.7007  0.1760
 8431TIP3    H246709   2.689   4.942   2.185 -0.8704 -0.2053 -1.4524
 8432TIP3   OH246710   4.141   2.119  16.582 -0.5800  0.4077 -0.4302
 8432TIP3    H146711   4.098   2.101  16.666  0.1741 -0.9775 -0.3292
 8432TIP3    H246712   4.082   2.082  16.516 -0.0717 -0.5328 -0.3614
 8433TIP3   OH246713   0.031   0.597  16.122 -0.1022  0.5845 -0.6674
 8433TIP3    H146714   0.114   0.628  16.084  0.0292 -0.2801 -1.1159
 8433TIP3    H246715   0.040   0.614  16.216  0.7243  0.2057 -0.6678
 8434TIP3   OH246716   2.051   3.523  12.982 -0.1889  0.1814 -0.1455
 8434TIP3    H146717   2.065   3.464  12.908 -0.6548  0.6546 -0.6102
 8434TIP3    H246718   2.137   3.534  13.021 -0.3201 -2.0403  0.8760
 8435TIP3   OH246719   4.500   4.912   4.076 -0.1280  0.2397 -0.0562
 8435TIP3    H146720   4.558   4.848   4.118 -0.7337 -0.6989 -0.6293
 8435TIP3    H246721   4.549   4.941   3.998 -0.3047 -0.3453 -0.3884
 8436TIP3   OH246722   2.977   1.174  11.517  0.1772  0.2829  0.4504
 8436TIP3    H146723   2.977   1.260  11.558 -0.9046  0.6497 -0.3043
 8436TIP3    H246724   2.926   1.119  11.577  1.9617 -0.1575  1.5828
 8437TIP3   OH246725   0.122   0.467  12.681 -0.7100 -0.0813 -0.4396
 8437TIP3    H146726   0.078   0.505  12.605 -1.8792 -0.3922  0.0786
 8437TIP3    H246727   0.203   0.430  12.646 -0.3677  1.3628 -1.2385
 8438TIP3   OH246728   3.814   4.550  13.857  0.1682  0.4374 -0.2967
 8438TIP3    H146729   3.826   4.494  13.780 -0.1751  0.6463 -0.5031
 8438TIP3    H246730   3.867   4.509  13.925  1.1608  0.7324 -0.8888
 8439TIP3   OH246731   5.021   0.454   3.913  0.1690  0.1758  0.5188
 8439TIP3    H146732   4.950   0.434   3.975 -0.7618  0.6706 -0.3733
 8439TIP3    H246733   5.007   0.545   3.888 -0.3088 -0.4157 -1.4786
 8440TIP3   OH246734   5.239   4.556   3.477  0.0422 -0.0784 -0.4317
 8440TIP3    H146735   5.333   4.575   3.474  0.0660 -0.1398 -0.1123
 8440TIP3    H246736   5.201   4.615   3.412  0.2308  0.3759 -0.1386
 8441TIP3   OH246737   3.353   5.669   3.312 -0.4746  0.5496 -0.6179
 8441TIP3    H146738   3.406   5.712   3.245 -0.0254  0.7638 -0.1249
 8441TIP3    H246739   3.313   5.595   3.267  0.4354  0.2407 -0.9338
 8442TIP3   OH246740   3.637   5.937  14.226  0.0341 -0.2844  0.3044
 8442TIP3    H146741   3.556   5.895  14.253 -0.8274  0.6635 -0.7565
 8442TIP3    H246742   3.627   5.950  14.132  0.7417  1.2959  0.4318
 8443TIP3   OH246743   4.109   4.430  15.115  0.9257  0.5736  0.2520
 8443TIP3    H146744   4.151   4.354  15.154  1.8139  0.2095 -1.3613
 8443TIP3    H246745   4.070   4.477  15.189 -0.3062 -1.8461  1.1886
 8444TIP3   OH246746   0.408   4.575   1.341  0.3314 -0.0357  0.3136
 8444TIP3    H146747   0.472   4.504   1.348  0.1760 -0.2497 -0.3115
 8444TIP3    H246748   0.457   4.654   1.365  0.7356 -0.2451  0.1926
 8445TIP3   OH246749   2.099   1.125  13.820 -0.3447 -0.2285 -0.6425
 8445TIP3    H146750   2.101   1.059  13.890 -0.2682  0.9106  0.4541
 8445TIP3    H246751   2.187   1.122  13.783 -0.2696 -0.5898 -0.4396
 8446TIP3   OH246752   4.992   6.044   0.511 -0.0212 -0.1451  0.2187
 8446TIP3    H146753   5.078   6.020   0.545 -0.1783 -0.2627  0.5377
 8446TIP3    H246754   4.985   6.138   0.525 -0.5048 -0.3534  1.4847
 8447TIP3   OH246755   2.117   1.171   3.550  0.4222 -0.4256  0.2050
 8447TIP3    H146756   2.197   1.158   3.601  0.3228 -2.1473 -0.0397
 8447TIP3    H246757   2.146   1.211   3.468  1.0620 -1.1388  0.0741
 8448TIP3   OH246758   6.641   3.130   1.791 -0.2552  0.4510  0.5161
 8448TIP3    H146759   6.649   3.037   1.773 -0.1732  0.8031 -1.4315
 8448TIP3    H246760   6.547   3.148   1.784 -0.1114  0.7919 -0.7099
 8449TIP3   OH246761   5.517   5.183  11.879 -0.1560  0.1430  0.2564
 8449TIP3    H146762   5.530   5.274  11.905  0.8760 -0.1874  0.8976
 8449TIP3    H246763   5.572   5.133  11.939 -1.6694 -1.0029  0.6885
 8450TIP3   OH246764   2.523   6.378  15.429  0.6407 -0.1084 -0.2380
 8450TIP3    H146765   2.542   6.311  15.363  3.3145  0.6633 -0.2987
 8450TIP3    H246766   2.452   6.430  15.392 -0.4155 -1.9540 -0.8558
 8451TIP3   OH246767   3.269   5.820  11.469  0.2989  0.4082  0.2559
 8451TIP3    H146768   3.264   5.906  11.511  1.8418  0.4697  0.3592
 8451TIP3    H246769   3.353   5.821  11.423 -0.0949 -0.7038 -0.5081
 8452TIP3   OH246770   4.256   5.104   3.993  0.3219 -0.0584 -0.6270
 8452TIP3    H146771   4.342   5.095   4.034 -0.1710 -0.0404  0.4094
 8452TIP3    H246772   4.266   5.061   3.908  0.5390 -2.6423  0.6597
 8453TIP3   OH246773   0.685   6.090  11.242  0.2486  0.2166  0.3169
 8453TIP3    H146774   0.596   6.124  11.254 -0.1098 -0.2688 -0.8586
 8453TIP3    H246775   0.740   6.145  11.298 -1.0392 -0.7010  2.5610
 8454TIP3   OH246776   0.253   0.472   4.313 -0.0986  0.1626 -0.0960
 8454TIP3    H146777   0.315   0.539   4.343 -1.3391  1.9416 -1.3895
 8454TIP3    H246778   0.272   0.396   4.367  1.2364  1.6181  1.5384
 8455TIP3   OH246779   6.514   1.136  11.191 -0.3191  0.5740 -0.5430
 8455TIP3    H146780   6.451   1.091  11.136 -0.4814  0.1801 -0.0366
 8455TIP3    H246781   6.599   1.100  11.165 -0.5516 -0.9149  0.6999
 8456TIP3   OH246782   1.675   4.540  12.976  0.2948  0.2288  0.0346
 8456TIP3    H146783   1.735   4.515  12.906  0.0541  2.6663 -1.0885
 8456TIP3    H246784   1.601   4.580  12.931  1.1210  3.8920  1.7336
 8457TIP3   OH246785   5.452   3.236  16.692  0.6587  0.1134  0.1826
 8457TIP3    H146786   5.448   3.161  16.752 -0.4485 -0.7733 -0.9651
 8457TIP3    H246787   5.429   3.200  16.607  0.1947  1.7474 -0.4056
 8458TIP3   OH246788   2.455   3.065  14.120 -0.2098  0.1344  0.1000
 8458TIP3    H146789   2.494   3.128  14.182 -0.4346  0.5722 -0.2014
 8458TIP3    H246790   2.449   3.114  14.038  1.6240 -0.9602 -0.7157
 8459TIP3   OH246791   5.455   4.366   3.722  0.0197 -0.2791  0.5836
 8459TIP3    H146792   5.433   4.448   3.766  0.6275 -0.5356  1.3662
 8459TIP3    H246793   5.380   4.309   3.736 -0.2856  0.0452  0.2770
 8460TIP3   OH246794   0.349   2.306   5.487  0.1605 -0.5623  0.0387
 8460TIP3    H146795   0.352   2.262   5.402 -0.3941 -0.5173 -0.0093
 8460TIP3    H246796   0.256   2.319   5.504  0.3163  1.1947 -0.2802
 8461TIP3   OH246797   0.321   1.024  12.897 -0.9112 -0.4526  0.1327
 8461TIP3    H146798   0.314   1.109  12.941 -1.7583 -0.3288 -0.2379
 8461TIP3    H246799   0.233   0.987  12.902 -0.8189 -0.8052 -0.7204
 8462TIP3   OH246800   1.768   3.352   5.453  0.1533 -0.3620 -0.3036
 8462TIP3    H146801   1.673   3.357   5.464 -0.0407  0.1216 -2.0405
 8462TIP3    H246802   1.798   3.443   5.458  0.6853 -0.6041  1.3762
 8463TIP3   OH246803   1.309   0.961  17.183 -0.0986  0.1475  0.2611
 8463TIP3    H146804   1.221   0.979  17.216 -1.1634 -0.3523 -2.2256
 8463TIP3    H246805   1.339   1.044  17.147 -1.3085 -0.6635 -2.7758
 8464TIP3   OH246806   4.330   1.419  11.942  0.1585  0.1169 -0.3093
 8464TIP3    H146807   4.359   1.402  12.031  1.9846 -1.2153 -1.1352
 8464TIP3    H246808   4.390   1.486  11.909 -0.0241  0.0537 -0.7817
 8465TIP3   OH246809   6.693   5.003  17.065 -0.4572 -0.5634 -0.2498
 8465TIP3    H146810   6.641   5.076  17.032 -1.8962 -1.6901 -0.5266
 8465TIP3    H246811   6.668   4.995  17.157 -1.5106 -1.6727 -0.6020
 8466TIP3   OH246812   1.860   5.835  14.197 -0.4168 -0.2362 -0.2718
 8466TIP3    H146813   1.777   5.817  14.152 -1.8905  0.2743  2.1450
 8466TIP3    H246814   1.866   5.930  14.199 -0.2340 -0.2608  0.3737
 8467TIP3   OH246815   0.679   3.071   1.153  0.3812 -0.0755 -0.3900
 8467TIP3    H146816   0.733   3.136   1.197  0.0820  0.0917 -0.2714
 8467TIP3    H246817   0.705   3.078   1.060 -0.0940  0.6401 -0.4695
 8468TIP3   OH246818   2.092   2.856  17.217 -0.5715  0.8929 -0.0711
 8468TIP3    H146819   2.073   2.794  17.287  0.4244  0.6747  0.0124
 8468TIP3    H246820   2.013   2.855  17.162 -0.7260 -0.1424  0.1535
 8469TIP3   OH246821   5.982   0.171  12.488 -0.2715  0.2801  0.2873
 8469TIP3    H146822   6.065   0.124  12.476  0.1571  0.9844  0.4327
 8469TIP3    H246823   5.917   0.103  12.504  0.1279 -0.3356 -0.6925
 8470TIP3   OH246824   2.775   3.151  16.498  0.1368 -0.1015 -0.0582
 8470TIP3    H146825   2.848   3.181  16.443  2.8958  1.1153  4.0391
 8470TIP3    H246826   2.811   3.079  16.549 -2.0578 -0.6154  0.8394
 8471TIP3   OH246827   4.990   0.457  17.142  0.8216 -0.2973  0.4692
 8471TIP3    H146828   5.064   0.397  17.140  0.8946 -0.2061 -3.0491
 8471TIP3    H246829   4.919   0.406  17.181  1.7003 -1.6516  0.3369
 8472TIP3   OH246830   2.340   0.509   1.219  0.2273 -0.0274  0.5891
 8472TIP3    H146831   2.275   0.457   1.172  0.3962 -0.0280  0.3561
 8472TIP3    H246832   2.394   0.445   1.264 -0.2050 -0.0080  1.1382
 8473TIP3   OH246833   4.147   5.948  15.791  0.0097 -0.3388 -0.7721
 8473TIP3    H146834   4.143   5.856  15.768  0.1567 -0.7820  0.8770
 8473TIP3    H246835   4.160   5.994  15.708 -1.5845 -1.6760 -1.7868
 8474TIP3   OH246836   3.500   1.938  16.649  0.1886  0.4096 -0.8081
 8474TIP3    H146837   3.433   1.984  16.599  0.3649  0.1903 -1.2532
 8474TIP3    H246838   3.469   1.847  16.652  0.7360  0.1964 -1.4915
 8475TIP3   OH246839   1.715   0.105   5.310 -0.0999 -0.3068  0.2363
 8475TIP3    H146840   1.808   0.086   5.298 -0.2090 -0.5921 -0.1836
 8475TIP3    H246841   1.680   0.030   5.358  0.4073  1.0023  2.7209
 8476TIP3   OH246842   1.246   2.000   1.664 -0.1853  0.8869 -0.2224
 8476TIP3    H146843   1.156   2.033   1.672 -0.2238  1.1243 -1.5513
 8476TIP3    H246844   1.244   1.915   1.707 -1.3905  0.2863 -1.4320
 8477TIP3   OH246845   3.910   3.505  15.831 -0.5693  0.0619  0.4257
 8477TIP3    H146846   3.889   3.484  15.922 -1.3433 -1.7955 -0.1620
 8477TIP3    H246847   3.854   3.448  15.779  0.5192  0.4537 -1.2249
 8478TIP3   OH246848   3.978   3.086  10.564  0.5870 -0.0109  0.5801
 8478TIP3    H146849   3.943   3.130  10.487 -1.5250 -1.4982  0.6451
 8478TIP3    H246850   4.024   3.155  10.613 -1.2767  1.7532 -0.1198
 8479TIP3   OH246851   4.525   1.023   2.749  0.2387  0.1448 -0.7231
 8479TIP3    H146852   4.480   0.969   2.813  0.2371 -0.2704 -1.0705
 8479TIP3    H246853   4.484   1.109   2.756 -0.8601 -0.3210 -1.2892
 8480TIP3   OH246854   3.235   1.259   2.909  0.2103  0.1787  0.3380
 8480TIP3    H146855   3.232   1.250   2.814  0.3889  0.5419  0.2946
 8480TIP3    H246856   3.297   1.193   2.938  0.7767  0.6082  0.1229
 8481TIP3   OH246857   3.443   2.750   1.527  0.3484  0.0347 -0.1571
 8481TIP3    H146858   3.505   2.687   1.562  0.4034 -0.1815 -0.6378
 8481TIP3    H246859   3.409   2.795   1.604  0.4582 -0.4406  0.1737
 8482TIP3   OH246860   5.918   1.199  14.092 -0.3070 -0.7149  0.6639
 8482TIP3    H146861   5.945   1.185  14.001 -1.4738  0.0938  0.1799
 8482TIP3    H246862   5.869   1.282  14.090  0.4460 -0.2113  2.1955
 8483TIP3   OH246863   4.782   2.201   0.447 -0.9381 -0.5493  0.2253
 8483TIP3    H146864   4.721   2.127   0.441 -0.6166 -0.8974  1.1377
 8483TIP3    H246865   4.762   2.242   0.531 -0.8859  0.2123 -0.1224
 8484TIP3   OH246866   2.002   3.227   6.120 -0.0713  0.7422 -0.1686
 8484TIP3    H146867   2.060   3.156   6.147  0.2460  0.7684 -0.7563
 8484TIP3    H246868   1.953   3.191   6.046  1.0952  1.5772 -1.3775
 8485TIP3   OH246869   0.998   0.169  16.098  0.1847 -0.3768 -0.3966
 8485TIP3    H146870   1.022   0.256  16.130  1.2309 -0.5928 -0.5891
 8485TIP3    H246871   1.005   0.175  16.003 -0.8758 -0.3406 -0.4798
 8486TIP3   OH246872   2.237   5.143  15.745  0.1693 -0.1141  0.1540
 8486TIP3    H146873   2.188   5.169  15.668 -0.5916 -1.4948  0.1568
 8486TIP3    H246874   2.218   5.211  15.810 -0.2336  0.3453 -0.4439
 8487TIP3   OH246875   2.547   4.828  15.212 -0.4072  0.2755 -0.2356
 8487TIP3    H146876   2.467   4.777  15.205 -0.7330  0.3142  2.7905
 8487TIP3    H246877   2.617   4.765  15.199 -0.8949  0.0920 -2.0813
 8488TIP3   OH246878   0.231   0.764  14.625 -0.1166 -0.0979  0.3048
 8488TIP3    H146879   0.276   0.688  14.589 -0.5231 -0.0410 -0.3397
 8488TIP3    H246880   0.290   0.798  14.692  0.5542 -0.3455 -0.1568
 8489TIP3   OH246881   5.103   0.581  11.590  0.0301  0.5609 -0.1621
 8489TIP3    H146882   5.080   0.511  11.651 -0.4705 -0.7502 -1.8414
 8489TIP3    H246883   5.064   0.660  11.629 -1.6548 -0.5275  0.4319
 8490TIP3   OH246884   1.114   0.510   5.159 -0.4169 -0.9030  0.2939
 8490TIP3    H146885   1.021   0.494   5.173 -0.6458 -0.4922 -0.7349
 8490TIP3    H246886   1.135   0.459   5.080  0.3916 -1.5722  0.9327
 8491TIP3   OH246887   1.812   6.048  11.218 -0.1196 -0.0229 -0.1873
 8491TIP3    H146888   1.805   5.967  11.169  0.9358 -0.7242  0.7993
 8491TIP3    H246889   1.797   6.023  11.309  3.2224  0.3256  0.5408
 8492TIP3   OH246890   4.032   0.579   2.985 -0.1093  0.4095 -0.1335
 8492TIP3    H146891   4.068   0.631   2.913  0.6996 -1.3274 -1.0050
 8492TIP3    H246892   3.943   0.611   2.995 -0.2461  0.6248 -1.9423
 8493TIP3   OH246893   3.999   6.019  13.262 -0.0153 -0.0256  0.1178
 8493TIP3    H146894   3.940   6.094  13.272  1.4536  1.0973  0.5067
 8493TIP3    H246895   4.011   5.987  13.352 -1.3942 -1.3407 -0.1449
 8494TIP3   OH246896   2.589   2.390   1.126  0.2125 -0.2267  0.2518
 8494TIP3    H146897   2.669   2.345   1.153 -0.8889 -0.2740  3.6958
 8494TIP3    H246898   2.518   2.329   1.148 -0.9679  0.9650 -0.1453
 8495TIP3   OH246899   4.151   1.635  16.155  0.4722  0.5243  0.8669
 8495TIP3    H146900   4.166   1.549  16.195 -0.5492 -0.4861 -0.8688
 8495TIP3    H246901   4.238   1.663  16.126  0.5414 -0.7502 -0.1859
 8496TIP3   OH246902   4.212   6.168   5.178 -0.1587  1.0630 -0.1000
 8496TIP3    H146903   4.123   6.195   5.158 -0.9244 -0.2045  1.4954
 8496TIP3    H246904   4.233   6.211   5.261 -0.0647 -0.2821  0.5911
 8497TIP3   OH246905   4.713   0.286  11.971  0.2623  0.2143  0.3090
 8497TIP3    H146906   4.664   0.261  12.050 -0.6725  2.1991  0.4025
 8497TIP3    H246907   4.645   0.301  11.905  1.0863 -2.2211 -1.1354
 8498TIP3   OH246908   3.598   0.292   0.731  0.0898  0.1433 -0.2783
 8498TIP3    H146909   3.562   0.204   0.722 -0.6550  0.4705 -0.5562
 8498TIP3    H246910   3.552   0.344   0.665 -0.5821  1.0634  0.8756
 8499TIP3   OH246911   2.509   3.168  13.248  0.2601  0.0759 -0.5582
 8499TIP3    H146912   2.454   3.239  13.214  1.0206  0.7733 -0.3644
 8499TIP3    H246913   2.452   3.119  13.308  0.7138  2.6955  2.1410
 8500TIP3   OH246914   1.450   3.276  16.685 -0.2239 -0.4707 -0.2402
 8500TIP3    H146915   1.362   3.242  16.671  0.3227 -1.4751 -1.2817
 8500TIP3    H246916   1.492   3.210  16.741  0.0845 -0.3249 -0.3033
 8501TIP3   OH246917   5.858   6.530  14.682  0.0478 -0.6964  0.1568
 8501TIP3    H146918   5.921   6.471  14.724  0.0303 -1.0798 -0.3436
 8501TIP3    H246919   5.856   6.607  14.738  2.2618  0.0489 -0.7386
 8502TIP3   OH246920   0.912   4.371  13.935 -0.5402  0.6966  0.0587
 8502TIP3    H146921   0.891   4.464  13.947  0.7958  1.1392 -0.9364
 8502TIP3    H246922   0.943   4.365  13.845  3.0616 -0.0051  1.2689
 8503TIP3   OH246923   3.664   4.233  14.615 -0.8957  0.1168  0.1698
 8503TIP3    H146924   3.601   4.274  14.675  0.6652 -0.8081  2.5047
 8503TIP3    H246925   3.614   4.217  14.535 -3.6806 -0.7271  2.0034
 8504TIP3   OH246926   1.982   1.393   3.061 -0.0632  0.6141  0.3760
 8504TIP3    H146927   1.974   1.421   2.969 -0.7534 -0.6121  0.0529
 8504TIP3    H246928   1.919   1.448   3.108 -0.2305  0.7407  0.0072
 8505TIP3   OH246929   5.856   4.984   0.450  0.2577  0.2152 -0.4701
 8505TIP3    H146930   5.916   4.932   0.397 -0.6620 -0.6966 -0.6385
 8505TIP3    H246931   5.769   4.958   0.420 -0.2613  0.2226  0.9907
 8506TIP3   OH246932   2.527   5.909   1.679  0.3896  0.5758  0.2749
 8506TIP3    H146933   2.532   5.910   1.775  0.0284  1.0785  0.2899
 8506TIP3    H246934   2.552   5.820   1.655  1.7911  0.8224  0.7624
 8507TIP3   OH246935   4.073   3.083  15.705  0.4965  0.7218  0.2726
 8507TIP3    H146936   4.138   3.149  15.728  0.9454  0.1763  0.5899
 8507TIP3    H246937   4.065   3.028  15.783 -0.5970  0.9819  0.3460
 8508TIP3   OH246938   3.255   2.791   4.875 -0.8959  0.0516 -0.0154
 8508TIP3    H146939   3.230   2.860   4.815 -0.9212  0.0641  0.0097
 8508TIP3    H246940   3.264   2.835   4.960  1.3774  0.4814 -0.4313
 8509TIP3   OH246941   3.517   2.628  15.518 -0.0601  0.3750 -0.0359
 8509TIP3    H146942   3.503   2.638  15.612  0.1081  3.4467 -0.2694
 8509TIP3    H246943   3.586   2.562  15.510  0.3648  0.5368  2.0217
 8510TIP3   OH246944   1.660   1.241   1.218  0.1787  0.2194 -0.2427
 8510TIP3    H146945   1.581   1.256   1.165  0.7689  0.7184 -1.0084
 8510TIP3    H246946   1.667   1.146   1.225 -0.9569  0.1782  0.5595
 8511TIP3   OH246947   3.145   0.718   0.473  0.5044  0.4431  0.3412
 8511TIP3    H146948   3.073   0.701   0.413 -1.7853  0.9791  2.8166
 8511TIP3    H246949   3.189   0.795   0.437 -1.1973  1.1326 -0.3137
 8512TIP3   OH246950   0.626   3.610   3.459 -0.0528 -0.6065 -0.3454
 8512TIP3    H146951   0.626   3.607   3.554 -0.5907 -0.7287 -0.3496
 8512TIP3    H246952   0.705   3.660   3.437  0.1117 -0.6407  0.1588
 8513TIP3   OH246953   1.100   6.697  16.690  0.6394 -0.5528 -0.5286
 8513TIP3    H146954   1.114   6.603  16.700 -0.0133 -0.6588 -0.5493
 8513TIP3    H246955   1.122   6.716  16.599  1.4653 -0.5531 -0.3244
 8514TIP3   OH246956   3.461   2.467   2.758 -0.6389 -0.4304  0.6858
 8514TIP3    H146957   3.541   2.446   2.709 -1.8488 -0.5788 -1.2605
 8514TIP3    H246958   3.405   2.391   2.747 -1.5888  0.2315  0.9170
 8515TIP3   OH246959   1.196   2.461  15.800 -0.6588  0.2408  0.2657
 8515TIP3    H146960   1.165   2.374  15.774 -0.3597 -0.1510  1.2232
 8515TIP3    H246961   1.160   2.520  15.733 -1.3338 -0.5423 -0.0654
 8516TIP3   OH246962   2.284   6.597   0.237 -0.1145  0.1910  0.0833
 8516TIP3    H146963   2.320   6.597   0.326 -0.2725  0.1102  0.1475
 8516TIP3    H246964   2.236   6.515   0.231 -0.2249  0.2638 -0.0285
 8517TIP3   OH246965   3.184   6.436   2.334  0.2180 -0.7319 -0.1211
 8517TIP3    H146966   3.269   6.475   2.356  0.2452 -1.4331  1.0856
 8517TIP3    H246967   3.172   6.368   2.401 -1.5032 -0.3353 -0.0247
 8518TIP3   OH246968   6.696   2.254  15.296 -0.6329  0.5006  0.7635
 8518TIP3    H146969   6.671   2.191  15.363 -1.1358 -0.4541 -0.3010
 8518TIP3    H246970   6.759   2.311  15.339  0.4966 -1.2555  1.5111
 8519TIP3   OH246971   6.584   1.585   2.667  0.7194  0.1874 -0.4792
 8519TIP3    H146972   6.497   1.601   2.631 -0.4405 -1.1265  1.6262
 8519TIP3    H246973   6.583   1.493   2.693  3.4424 -0.4254 -2.2484
 8520TIP3   OH246974   0.261   4.797   2.411 -0.3010 -0.1306 -0.1189
 8520TIP3    H146975   0.196   4.859   2.379 -2.2246 -1.2980  1.4348
 8520TIP3    H246976   0.223   4.760   2.491 -0.4028 -5.1182 -2.2519
 8521TIP3   OH246977   3.843   0.147  13.864  0.4705 -0.1525 -0.5438
 8521TIP3    H146978   3.922   0.198  13.880  0.2751  0.6717 -2.1744
 8521TIP3    H246979   3.803   0.187  13.787 -2.1719  0.2149  0.9430
 8522TIP3   OH246980   5.352   3.421   5.641 -0.5306  0.2427  0.4474
 8522TIP3    H146981   5.338   3.330   5.668  0.4125 -0.7242 -2.1693
 8522TIP3    H246982   5.272   3.444   5.594  0.3778 -0.1912 -1.3282
 8523TIP3   OH246983   3.296   3.524   5.775  0.1436  0.4280  0.1441
 8523TIP3    H146984   3.335   3.529   5.862 -1.5538 -1.2428  1.0613
 8523TIP3    H246985   3.323   3.439   5.741 -3.3252 -1.1735  1.1803
 8524TIP3   OH246986   5.871   2.368  13.790  0.0523  0.0254  0.4891
 8524TIP3    H146987   5.920   2.292  13.822  0.1730 -0.1945 -0.2238
 8524TIP3    H246988   5.783   2.333  13.771 -0.0815  0.2015  0.7742
 8525TIP3   OH246989   1.181   2.352  12.097  0.3759  0.7017  0.8282
 8525TIP3    H146990   1.192   2.280  12.034 -1.1410 -0.0557  1.4074
 8525TIP3    H246991   1.235   2.423  12.062  1.9514 -0.7452  0.2899
 8526TIP3   OH246992   3.475   1.310   5.785  0.3664 -0.5878  0.0862
 8526TIP3    H146993   3.520   1.394   5.770  3.3529 -1.4511  3.5590
 8526TIP3    H246994   3.497   1.258   5.708 -1.1165  1.5674 -1.8858
 8527TIP3   OH246995   0.474   1.937   3.493  0.0914  0.2383  0.5588
 8527TIP3    H146996   0.508   1.902   3.410 -0.8431 -0.4252  0.4574
 8527TIP3    H246997   0.552   1.969   3.539  0.6365  0.4586 -0.4999
 8528TIP3   OH246998   4.803   1.144   4.386  0.6195  0.2958  0.2938
 8528TIP3    H146999   4.744   1.073   4.411 -0.1716  1.1542  0.8518
 8528TIP3    H247000   4.757   1.189   4.315  1.3066  0.0148 -0.3430
 8529TIP3   OH247001   4.711   0.518  14.365  0.2290 -0.0845 -0.1147
 8529TIP3    H147002   4.729   0.456  14.294 -0.4735  0.2360 -0.5786
 8529TIP3    H247003   4.618   0.538  14.356  0.4170  0.9126  0.1369
 8530TIP3   OH247004   4.065   4.271   5.225 -0.3117  0.0660 -0.3456
 8530TIP3    H147005   4.044   4.316   5.143  1.2929  0.3044 -0.6443
 8530TIP3    H247006   3.992   4.212   5.239 -0.7224  0.1946 -1.8368
 8531TIP3   OH247007   6.456   1.459   6.741 -0.7782  0.6077  0.2431
 8531TIP3    H147008   6.500   1.497   6.665 -1.8051  1.0816 -0.1384
 8531TIP3    H247009   6.524   1.451   6.807  0.2651 -0.3297 -0.9039
 8532TIP3   OH247010   0.015   4.956  12.030  0.3228  0.1548  0.2950
 8532TIP3    H147011   0.008   4.923  12.119 -1.5057  1.2856  0.5989
 8532TIP3    H247012  -0.038   5.035  12.030 -1.2275 -0.8189 -2.2515
 8533TIP3   OH247013   1.538   3.989   6.014 -0.0393  0.8652 -0.4074
 8533TIP3    H147014   1.591   3.913   6.037  0.6435  0.8038 -2.1086
 8533TIP3    H247015   1.541   4.045   6.091  0.7519 -0.1120  0.2816
 8534TIP3   OH247016   1.678   6.556   2.417  0.2742 -0.2252  0.9192
 8534TIP3    H147017   1.737   6.525   2.349 -1.7080 -1.4944 -0.2795
 8534TIP3    H247018   1.631   6.629   2.377  1.3007  1.0568  2.0075
 8535TIP3   OH247019   4.949   0.204   2.816 -0.0266 -0.3325  0.5579
 8535TIP3    H147020   4.874   0.177   2.764  0.2357 -0.1776  0.1006
 8535TIP3    H247021   4.926   0.179   2.906 -1.3669  1.2616  0.6890
 8536TIP3   OH247022   5.653   2.505  16.732 -0.2239 -0.2236  0.8123
 8536TIP3    H147023   5.565   2.477  16.756  0.8574 -2.7395  1.9693
 8536TIP3    H247024   5.680   2.443  16.665  0.8545  0.2718  0.7827
 8537TIP3   OH247025   6.313   4.771   0.273  0.0777  0.0893  0.3212
 8537TIP3    H147026   6.407   4.754   0.261  0.0434 -0.3287  0.6592
 8537TIP3    H247027   6.297   4.751   0.365 -0.5977 -1.0055 -0.0285
 8538TIP3   OH247028   1.812   4.613  13.790 -0.0462  0.8573 -0.0235
 8538TIP3    H147029   1.819   4.560  13.869  0.7154 -0.2786 -0.8426
 8538TIP3    H247030   1.899   4.611  13.752 -0.3036  1.7516 -0.6785
 8539TIP3   OH247031   1.553   2.433   1.463 -0.1627  0.5275 -0.8745
 8539TIP3    H147032   1.491   2.440   1.535  0.8557 -0.7271  0.1463
 8539TIP3    H247033   1.521   2.359   1.411 -0.2281  0.6773 -1.0487
 8540TIP3   OH247034   1.827   1.123   5.456  0.0092  0.5116  0.9068
 8540TIP3    H147035   1.749   1.111   5.403 -0.2075  0.9559  1.1298
 8540TIP3    H247036   1.808   1.197   5.513 -0.1148 -0.5235  2.2604
 8541TIP3   OH247037   5.924   2.872  14.941 -0.3560 -0.2100 -0.1642
 8541TIP3    H147038   5.889   2.945  14.890 -2.0106 -0.8109  0.0805
 8541TIP3    H247039   5.998   2.840  14.890  0.0636  1.2968 -0.5325
 8542TIP3   OH247040   6.066   1.872  15.065  0.6478 -0.4789 -0.0494
 8542TIP3    H147041   6.031   1.783  15.059 -0.7110 -0.1939  2.7069
 8542TIP3    H247042   6.138   1.865  15.128  0.6394  0.3376  0.0584
 8543TIP3   OH247043   4.295   0.133  10.640 -0.0459 -0.3335  0.0455
 8543TIP3    H147044   4.210   0.174  10.653  1.4873  3.1079 -0.1080
 8543TIP3    H247045   4.358   0.204  10.652  2.8063 -2.7474  0.0040
 8544TIP3   OH247046   0.166   0.016   0.277  0.2416 -0.3358  0.0493
 8544TIP3    H147047   0.081  -0.021   0.256  0.6607 -0.4843 -1.4220
 8544TIP3    H247048   0.155   0.111   0.265  0.4279 -0.4028 -0.6400
 8545TIP3   OH247049   4.638   1.591  12.379  0.2455  0.4816 -0.5935
 8545TIP3    H147050   4.656   1.632  12.464  0.0594 -0.6571 -0.0025
 8545TIP3    H247051   4.590   1.658  12.330 -0.8699  0.6325  0.7050
 8546TIP3   OH247052   4.286   5.451   1.628 -0.3025 -0.3545 -0.5559
 8546TIP3    H147053   4.347   5.429   1.558 -1.3552 -1.4458 -1.1380
 8546TIP3    H247054   4.295   5.381   1.692  0.8368  0.7645  0.5489
 8547TIP3   OH247055   4.235   2.967  14.137  0.5728  0.2626  0.0560
 8547TIP3    H147056   4.240   2.871  14.135 -1.0756  0.1810 -1.0430
 8547TIP3    H247057   4.326   2.995  14.151  1.4063 -1.4092 -1.7324
 8548TIP3   OH247058   6.677   6.122   3.448  0.4534 -0.8438  0.0102
 8548TIP3    H147059   6.670   6.182   3.375  1.2619 -0.5402  0.1775
 8548TIP3    H247060   6.656   6.175   3.525 -0.2210 -1.1200  0.0267
 8549TIP3   OH247061   2.215   1.648  13.689  0.3532 -0.4037 -0.5951
 8549TIP3    H147062   2.309   1.633  13.698  0.3361 -0.2269 -0.1315
 8549TIP3    H247063   2.176   1.560  13.691  0.7024 -0.6370 -3.1089
 8550TIP3   OH247064   6.325   3.057   5.980 -0.3298  0.2349  0.3956
 8550TIP3    H147065   6.281   3.054   6.065 -1.0568  0.2702  0.0162
 8550TIP3    H247066   6.292   3.136   5.938  0.7901  0.7593  0.4855
 8551TIP3   OH247067   1.921   4.390  11.514  0.3275 -0.3411  0.5335
 8551TIP3    H147068   1.942   4.449  11.441 -1.2013  0.7970  0.9971
 8551TIP3    H247069   1.920   4.447  11.591 -1.2687 -0.9680  0.9764
 8552TIP3   OH247070   5.602   5.533  12.280 -0.1267 -0.0317 -0.2220
 8552TIP3    H147071   5.620   5.596  12.210 -0.6866  1.4529  0.9605
 8552TIP3    H247072   5.565   5.457  12.235  2.4012 -0.3348 -1.8991
 8553TIP3   OH247073   5.200   5.504  14.597 -0.2704  0.2114 -0.1636
 8553TIP3    H147074   5.260   5.491  14.670 -0.6798  0.0007  0.1364
 8553TIP3    H247075   5.206   5.422  14.547 -0.8947 -0.1261  0.3008
 8554TIP3   OH247076   1.389   3.879   4.688  0.4696  0.2686 -0.5820
 8554TIP3    H147077   1.436   3.960   4.706  0.1041  0.1189  1.1033
 8554TIP3    H247078   1.445   3.810   4.724 -1.0573  0.0971  1.5202
 8555TIP3   OH247079   1.402   0.437  12.688 -0.0006 -0.5076 -0.6028
 8555TIP3    H147080   1.444   0.504  12.634 -0.8548  1.5306  1.1822
 8555TIP3    H247081   1.309   0.447  12.671 -0.3338  0.5297  1.5642
 8556TIP3   OH247082   1.932   1.166   1.502 -0.3078 -0.0381  0.1770
 8556TIP3    H147083   1.941   1.234   1.569  0.7164  0.2858 -0.2873
 8556TIP3    H247084   1.878   1.099   1.544 -0.3001  0.5024  1.0689
 8557TIP3   OH247085   3.672   0.988  13.504  0.4354  0.0147  0.2437
 8557TIP3    H147086   3.695   1.003  13.412  1.3560  1.4760  0.6958
 8557TIP3    H247087   3.640   1.073  13.535 -1.1391 -0.8111  0.9166
 8558TIP3   OH247088   4.841   6.056  15.060  0.2061 -0.0812  0.0505
 8558TIP3    H147089   4.928   6.051  15.098 -0.4928 -0.2471  1.6935
 8558TIP3    H247090   4.855   6.056  14.966  2.0572  1.3270  0.3101
 8559TIP3   OH247091   0.163   2.518   6.065  0.1394  0.4474  0.1216
 8559TIP3    H147092   0.214   2.455   6.117 -0.0936 -0.4104 -0.6675
 8559TIP3    H247093   0.166   2.599   6.115  0.0058 -0.3410  1.4122
 8560TIP3   OH247094   2.862   4.205   2.441  0.2815  0.2223  0.0913
 8560TIP3    H147095   2.883   4.115   2.416 -1.2368 -0.1177 -0.0509
 8560TIP3    H247096   2.783   4.225   2.391 -0.8161  0.7625  1.9901
 8561TIP3   OH247097   2.913   3.923   5.501  0.5256  0.6243 -0.1701
 8561TIP3    H147098   2.975   3.977   5.550 -0.3784 -0.7316  2.5521
 8561TIP3    H247099   2.868   3.871   5.568 -0.1510 -1.9124 -2.5094
 8562TIP3   OH247100   4.690   3.406   4.245  0.1700 -0.0341  0.1624
 8562TIP3    H147101   4.621   3.469   4.226  0.6631  0.2439 -0.7005
 8562TIP3    H247102   4.666   3.370   4.331 -1.3665 -0.3785 -0.3968
 8563TIP3   OH247103   0.801   5.945  17.120  0.1040 -0.1676  0.2440
 8563TIP3    H147104   0.877   5.976  17.169 -0.6439  0.0312  1.2840
 8563TIP3    H247105   0.796   5.852  17.142 -2.6533  0.7326  3.8594
 8564TIP3   OH247106   2.528   1.532  11.810  0.4873  0.1386  0.0637
 8564TIP3    H147107   2.611   1.572  11.786  0.2476  1.0185  0.6735
 8564TIP3    H247108   2.479   1.602  11.854 -1.2817  0.1763 -1.8583
 8565TIP3   OH247109   5.493   0.803  16.962 -0.4961  0.0832  0.4327
 8565TIP3    H147110   5.573   0.762  16.932  0.5626 -0.4161  3.8031
 8565TIP3    H247111   5.500   0.894  16.932  0.5882 -0.3270 -0.5804
 8566TIP3   OH247112   0.728   0.098   4.694 -0.9112  0.8669 -0.3293
 8566TIP3    H147113   0.730   0.050   4.777 -0.6994  2.1072  0.3965
 8566TIP3    H247114   0.810   0.147   4.692 -0.9213  0.8641 -1.2660
 8567TIP3   OH247115   1.130   4.327   0.149 -0.6839 -1.0542 -0.1484
 8567TIP3    H147116   1.082   4.282   0.080  0.2195  0.8563 -2.0722
 8567TIP3    H247117   1.215   4.347   0.110 -0.1322  0.0274  1.5400
 8568TIP3   OH247118   0.603   1.786  13.939  0.5881 -0.2784  0.0677
 8568TIP3    H147119   0.664   1.775  14.012 -0.9171  1.7014  1.7085
 8568TIP3    H247120   0.618   1.875  13.908 -0.2500 -0.3696 -0.6226
 8569TIP3   OH247121   6.287   6.632   0.646 -0.9344  0.1623  0.5071
 8569TIP3    H147122   6.349   6.569   0.680  1.4228  2.5037  0.7014
 8569TIP3    H247123   6.232   6.655   0.720 -0.4229 -0.0805  0.9597
 8570TIP3   OH247124   4.857   2.423   4.087 -0.1988 -0.2442  0.0504
 8570TIP3    H147125   4.952   2.429   4.093 -0.3004  0.6584  0.8435
 8570TIP3    H247126   4.839   2.417   3.993  0.6844 -1.2503 -0.0606
 8571TIP3   OH247127   5.247   4.332   0.304  0.5639 -0.1117  0.0130
 8571TIP3    H147128   5.309   4.279   0.354 -0.3384 -1.2735 -0.0779
 8571TIP3    H247129   5.164   4.285   0.311 -0.1662  1.0990 -0.3873
 8572TIP3   OH247130   5.317   3.711  13.114  0.2347  0.1533  0.2553
 8572TIP3    H147131   5.294   3.623  13.144 -0.1699  0.5270  1.0672
 8572TIP3    H247132   5.235   3.746  13.078  0.9920 -0.7402 -2.4667
 8573TIP3   OH247133   5.707   4.085   2.756  0.2269  0.3028  0.4130
 8573TIP3    H147134   5.721   4.050   2.844  2.5092 -0.3358 -0.1629
 8573TIP3    H247135   5.702   4.007   2.700  1.2242  0.7557 -0.3255
 8574TIP3   OH247136   6.706   3.251   3.592  0.0174  0.3585 -0.3690
 8574TIP3    H147137   6.618   3.213   3.596  0.1944 -0.0628 -0.5206
 8574TIP3    H247138   6.697   3.326   3.533 -0.4632  0.9036  0.3832
 8575TIP3   OH247139   1.843   6.497  12.579  0.1598  0.2629 -0.2643
 8575TIP3    H147140   1.896   6.422  12.554 -0.0717  0.4505 -1.3316
 8575TIP3    H247141   1.757   6.480  12.541 -0.1919  0.5658  0.3769
 8576TIP3   OH247142   1.909   5.106  11.861 -0.5191 -0.5372  0.6644
 8576TIP3    H147143   1.834   5.085  11.805 -0.4321 -1.1639  0.7864
 8576TIP3    H247144   1.874   5.170  11.924 -0.7473 -0.2244  0.2247
 8577TIP3   OH247145   4.586   5.457   4.860 -0.0410  0.4974  0.0822
 8577TIP3    H147146   4.664   5.499   4.897 -0.2639  0.6374  0.3957
 8577TIP3    H247147   4.517   5.476   4.923 -0.4556  0.8608 -0.4798
 8578TIP3   OH247148   4.814   2.952  11.983 -0.2455  0.4040 -0.0212
 8578TIP3    H147149   4.807   2.931  12.076  1.8873 -2.4430 -0.4390
 8578TIP3    H247150   4.884   3.017  11.978  0.1163  0.0371  0.2884
 8579TIP3   OH247151   3.178   6.072  16.644 -0.0120  0.3237 -0.8785
 8579TIP3    H147152   3.263   6.032  16.662  0.0256  1.2520  1.1507
 8579TIP3    H247153   3.175   6.082  16.549  1.4618 -1.2048 -1.0840
 8580TIP3   OH247154   2.233   3.271  13.039  0.5070  0.1996 -0.0897
 8580TIP3    H147155   2.241   3.324  13.119  2.9037 -0.6023  0.2618
 8580TIP3    H247156   2.234   3.334  12.968 -0.7247  0.8653  0.4586
 8581TIP3   OH247157   4.696   6.251  13.473 -0.4589 -0.4906  0.0768
 8581TIP3    H147158   4.632   6.258  13.402  0.7067 -2.3393 -1.1881
 8581TIP3    H247159   4.775   6.217  13.431  0.8276  0.1297  1.9341
 8582TIP3   OH247160   2.085   4.314  11.125  0.5885 -0.2458 -0.5301
 8582TIP3    H147161   2.172   4.341  11.095  1.3812 -1.3237  0.7687
 8582TIP3    H247162   2.078   4.222  11.100  0.2736 -0.4782  0.3877
 8583TIP3   OH247163   5.207   3.605  10.575  0.2695  0.7481 -0.0630
 8583TIP3    H147164   5.212   3.697  10.547 -2.2782  0.7510 -0.5837
 8583TIP3    H247165   5.218   3.609  10.670  1.8050  1.4123 -0.2437
 8584TIP3   OH247166   3.255   5.619   5.122  0.6669 -0.6187  0.2364
 8584TIP3    H147167   3.276   5.527   5.140  1.7197 -0.7289 -1.5239
 8584TIP3    H247168   3.292   5.636   5.036 -0.9585  1.0040 -0.1685
 8585TIP3   OH247169   3.353   0.997   4.701 -1.2743 -0.0794  0.1126
 8585TIP3    H147170   3.289   0.992   4.772  0.2742 -1.1374  1.4597
 8585TIP3    H247171   3.415   0.926   4.718  0.0563  0.6807 -1.3719
 8586TIP3   OH247172   4.321   4.166   0.125  0.2370  0.5414 -0.5781
 8586TIP3    H147173   4.263   4.099   0.163  1.1031 -0.6606 -1.3592
 8586TIP3    H247174   4.376   4.118   0.064 -0.0779  2.2107 -2.2112
 8587TIP3   OH247175   5.457   4.529  11.027  0.1747  0.4232 -0.0969
 8587TIP3    H147176   5.424   4.550  10.939  2.2537  0.2829 -0.9398
 8587TIP3    H247177   5.539   4.482  11.011  1.3117  1.6438  1.9600
 8588TIP3   OH247178   6.020   2.820  13.881 -0.0667  0.1872 -0.1813
 8588TIP3    H147179   5.957   2.854  13.817 -1.3872 -3.1341 -0.7308
 8588TIP3    H247180   6.083   2.770  13.828  0.2310 -0.5464  0.8519
 8589TIP3   OH247181   3.299   4.481  12.212 -0.3131  0.3976 -0.0536
 8589TIP3    H147182   3.210   4.508  12.187 -0.4283 -0.9116 -1.0880
 8589TIP3    H247183   3.350   4.562  12.207 -0.9965  0.7544 -1.5650
 8590TIP3   OH247184   1.875   0.789  13.074  0.1623  0.4507 -0.7310
 8590TIP3    H147185   1.907   0.848  13.142 -0.3802  0.5364 -0.5461
 8590TIP3    H247186   1.833   0.718  13.122 -3.1407  2.1548 -1.0053
 8591TIP3   OH247187   4.413   5.610  13.429 -0.6407  0.2877 -1.2305
 8591TIP3    H147188   4.395   5.696  13.390 -3.1905 -0.2261 -1.3144
 8591TIP3    H247189   4.340   5.597  13.490  1.1125 -0.7120  0.6829
 8592TIP3   OH247190   5.993   5.098  12.095 -0.1483 -0.0364 -0.1272
 8592TIP3    H147191   6.073   5.067  12.054 -1.2302  0.2125 -2.5202
 8592TIP3    H247192   5.931   5.025  12.086 -0.9616  0.7031 -0.6532
 8593TIP3   OH247193   5.854   6.248  16.966 -0.3301 -0.0477  0.1416
 8593TIP3    H147194   5.819   6.163  16.992 -0.5487  0.3490  1.1831
 8593TIP3    H247195   5.876   6.291  17.049 -0.4842  1.0206 -0.3574
 8594TIP3   OH247196   4.945   2.684  16.432  0.0514 -0.1681 -0.2551
 8594TIP3    H147197   4.905   2.769  16.452 -0.5901 -0.7256  0.9351
 8594TIP3    H247198   4.878   2.636  16.383  0.3737 -0.0255 -0.8359
 8595TIP3   OH247199   2.421   6.117  14.706 -0.2806  0.1622 -0.0912
 8595TIP3    H147200   2.356   6.050  14.723 -2.3663  2.0501 -0.3239
 8595TIP3    H247201   2.401   6.187  14.769  0.4948  1.4310 -1.2110
 8596TIP3   OH247202   0.920   5.416   4.429  0.0617  0.0993 -0.1214
 8596TIP3    H147203   0.835   5.385   4.400  0.1583  0.0307 -0.3288
 8596TIP3    H247204   0.922   5.398   4.523 -0.3402  0.5309 -0.0271
 8597TIP3   OH247205   2.211   0.244   5.927 -0.0393 -0.0453  0.2408
 8597TIP3    H147206   2.247   0.155   5.931  1.6032  0.6719  1.8713
 8597TIP3    H247207   2.250   0.289   6.002  0.4641  2.5498 -1.5374
 8598TIP3   OH247208   1.581   3.691   4.147 -0.6510 -1.1216  0.1408
 8598TIP3    H147209   1.668   3.688   4.106 -1.7338 -0.5058 -2.3138
 8598TIP3    H247210   1.528   3.633   4.092 -2.5169  0.8656 -0.2166
 8599TIP3   OH247211   0.467   2.075  15.101  0.7137  0.1874  0.2686
 8599TIP3    H147212   0.495   2.139  15.035  0.6138  0.2204  0.2561
 8599TIP3    H247213   0.413   2.127  15.162 -0.2793 -0.1018 -0.3478
 8600TIP3   OH247214   4.880   2.340  16.678  0.2252 -0.7964 -0.0567
 8600TIP3    H147215   4.793   2.373  16.701 -0.1194 -1.4976 -0.3450
 8600TIP3    H247216   4.930   2.343  16.760  0.1671  0.3417 -0.0593
 8601TIP3   OH247217   2.561   3.708  12.458 -0.0885 -0.0492 -0.4568
 8601TIP3    H147218   2.508   3.667  12.389  2.5480 -0.9625 -2.0184
 8601TIP3    H247219   2.640   3.738  12.413  0.6594  1.4392  1.7652
 8602TIP3   OH247220   1.036   4.559   5.940  0.1810  0.0630  0.1439
 8602TIP3    H147221   1.033   4.618   6.016 -1.8643 -1.5954  1.3941
 8602TIP3    H247222   0.971   4.492   5.959 -0.1603 -0.5594 -2.9734
 8603TIP3   OH247223   6.039   3.674  11.096 -0.2823  0.0067  0.1404
 8603TIP3    H147224   6.125   3.680  11.139  0.4342 -2.0485 -0.8969
 8603TIP3    H247225   5.980   3.724  11.152  1.4176  0.6691  1.3808
 8604TIP3   OH247226   3.342   0.095   1.512  0.3344 -0.4045 -0.2047
 8604TIP3    H147227   3.305   0.009   1.494  0.4979 -0.4892 -0.1332
 8604TIP3    H247228   3.426   0.077   1.553  0.1822 -0.2130  0.1959
 8605TIP3   OH247229   6.115   2.675  12.798 -0.0397  0.1295 -0.0500
 8605TIP3    H147230   6.191   2.701  12.746 -0.3891  2.0067  0.3516
 8605TIP3    H247231   6.060   2.625  12.737  2.1082 -2.4226  0.0085
 8606TIP3   OH247232   6.755   3.258   0.226  0.1329  0.3685 -0.5817
 8606TIP3    H147233   6.732   3.347   0.201 -2.1068  0.2722  1.0283
 8606TIP3    H247234   6.713   3.244   0.310  1.4400 -1.8227 -0.2310
 8607TIP3   OH247235   1.858   0.490  11.367 -0.1419 -0.1835 -0.1543
 8607TIP3    H147236   1.895   0.404  11.343  1.9594  0.6028  0.1356
 8607TIP3    H247237   1.799   0.512  11.295 -0.4233 -1.7141 -0.4070
 8608TIP3   OH247238   1.229   1.236  15.728 -0.3289  0.3544 -0.5822
 8608TIP3    H147239   1.140   1.259  15.752 -0.5538  0.1678 -1.2101
 8608TIP3    H247240   1.230   1.243  15.632 -0.2468 -1.7076 -0.7467
 8609TIP3   OH247241   1.106   5.765  14.972  0.0834  0.5016  0.3814
 8609TIP3    H147242   1.015   5.793  14.979 -0.1700  0.2962 -1.6560
 8609TIP3    H247243   1.103   5.671  14.987 -0.3527  0.1605 -1.7033
 8610TIP3   OH247244   5.895   1.028   3.767  0.7108  0.3018  0.3496
 8610TIP3    H147245   5.884   0.952   3.710 -0.2845  0.1530  0.7343
 8610TIP3    H247246   5.984   1.021   3.800  0.9497 -0.1628 -0.3945
 8611TIP3   OH247247   0.908   0.498   1.311 -0.8291 -0.0040 -0.3349
 8611TIP3    H147248   0.821   0.536   1.326 -0.8779 -1.4659  3.6415
 8611TIP3    H247249   0.891   0.421   1.257 -2.1201 -0.7194  1.0523
 8612TIP3   OH247250   0.321   0.692   3.124  0.3070  0.1344  0.1013
 8612TIP3    H147251   0.268   0.614   3.111 -2.8508  1.7262  2.6582
 8612TIP3    H247252   0.407   0.658   3.151 -0.2119 -2.4598 -1.3914
 8613TIP3   OH247253   3.105   1.696   1.918 -0.1887 -0.0118 -0.1010
 8613TIP3    H147254   3.048   1.761   1.958 -0.2026 -0.3408  0.4267
 8613TIP3    H247255   3.192   1.735   1.920  0.2950 -1.0930  2.7615
 8614TIP3   OH247256   6.091   2.592  15.067 -0.5435 -0.2819  0.4634
 8614TIP3    H147257   6.049   2.602  14.981 -0.5386 -0.9521  0.3804
 8614TIP3    H247258   6.166   2.651  15.064 -0.5475 -0.2975  0.0034
 8615TIP3   OH247259   1.212   3.199   3.190 -0.0111  0.2773 -0.0904
 8615TIP3    H147260   1.256   3.186   3.106  1.8296 -0.5062  0.9570
 8615TIP3    H247261   1.119   3.185   3.171  0.2113  1.6191 -2.2823
 8616TIP3   OH247262   2.868   3.639   2.390 -0.0095 -0.5545 -0.1115
 8616TIP3    H147263   2.878   3.580   2.315  0.6327 -1.6150  0.7970
 8616TIP3    H247264   2.956   3.646   2.427  0.0088  1.3020 -0.4255
 8617TIP3   OH247265   0.306   5.049   5.621  0.7692 -0.4651  0.3053
 8617TIP3    H147266   0.291   5.105   5.697 -0.7613  0.1896 -0.4455
 8617TIP3    H247267   0.223   5.050   5.574  1.1659 -2.2574 -0.4692
 8618TIP3   OH247268   4.289   6.281  17.002  0.4030 -0.8330 -0.2881
 8618TIP3    H147269   4.290   6.340  16.926  1.7880 -0.5259 -0.0383
 8618TIP3    H247270   4.261   6.197  16.967 -0.4810 -0.3122 -0.8613
 8619TIP3   OH247271   2.900   5.309  11.845 -0.1416  0.6820 -0.2331
 8619TIP3    H147272   2.929   5.335  11.932 -0.4504  2.5613 -0.6664
 8619TIP3    H247273   2.805   5.302  11.852  0.0286 -1.4505  0.1546
 8620TIP3   OH247274   6.035   0.299  14.777 -0.6455  0.1994  0.0343
 8620TIP3    H147275   6.008   0.222  14.827 -0.4462  0.8923  1.2130
 8620TIP3    H247276   6.025   0.372  14.837 -0.5429  1.0631 -0.9875
 8621TIP3   OH247277   3.651   1.036  13.820  0.7283  0.5625  0.1553
 8621TIP3    H147278   3.733   0.989  13.837  0.8396  0.1749 -1.3724
 8621TIP3    H247279   3.622   1.066  13.906  1.5185 -0.8767  0.9409
 8622TIP3   OH247280   3.765   0.656   3.011  0.0565 -0.0809  0.2968
 8622TIP3    H147281   3.718   0.644   2.928  0.2588 -1.2397  0.3454
 8622TIP3    H247282   3.741   0.580   3.063  0.7064  0.1524  0.9442
 8623TIP3   OH247283   0.921   0.006  10.984 -0.1260  0.2466 -0.2797
 8623TIP3    H147284   0.835  -0.032  11.006  0.1936  0.2045  0.9047
 8623TIP3    H247285   0.902   0.070  10.915 -1.1208  0.2981  0.0374
 8624TIP3   OH247286   1.129   1.925   0.345  0.2972 -0.3464  0.3188
 8624TIP3    H147287   1.071   1.989   0.303  2.1505  0.7354 -0.6800
 8624TIP3    H247288   1.070   1.860   0.383 -1.5378  0.4588 -1.0735
 8625TIP3   OH247289   0.465   5.762   0.751  0.0002 -0.1403  0.0604
 8625TIP3    H147290   0.469   5.667   0.761  2.9855  0.0453  0.9583
 8625TIP3    H247291   0.422   5.793   0.831 -1.9515 -0.7739 -0.7128
 8626TIP3   OH247292   0.830   1.349  13.337  0.4570  0.0969  0.0852
 8626TIP3    H147293   0.800   1.398  13.414  1.8632  0.7814  0.2101
 8626TIP3    H247294   0.751   1.337  13.285 -0.7134 -1.2370  2.0833
 8627TIP3   OH247295   0.816   6.150  14.537 -0.0211  0.6822 -0.1469
 8627TIP3    H147296   0.807   6.137  14.631  2.4639 -0.4284 -0.0304
 8627TIP3    H247297   0.728   6.176  14.508 -0.8968  0.7001  2.3985
 8628TIP3   OH247298   5.957   4.126   1.913 -0.0778  0.4251 -0.0607
 8628TIP3    H147299   6.026   4.086   1.965  0.8322 -1.5891 -2.7243
 8628TIP3    H247300   5.876   4.106   1.961  0.7322 -1.3149  0.6272
 8629TIP3   OH247301   2.287   1.555  16.510  0.3941 -0.2058  0.3401
 8629TIP3    H147302   2.206   1.575  16.558 -0.5954  0.6643 -1.6626
 8629TIP3    H247303   2.259   1.496  16.440  1.3552  0.7383 -0.8487
 8630TIP3   OH247304   1.058   4.093   5.063 -0.2145  0.5788 -0.1460
 8630TIP3    H147305   1.003   4.024   5.100  0.6847 -0.3475 -0.5052
 8630TIP3    H247306   1.079   4.063   4.975 -0.0725  1.4693 -0.4238
 8631TIP3   OH247307   0.251   5.331   5.002  0.2199  0.0505  0.1068
 8631TIP3    H147308   0.214   5.417   4.982 -0.0131 -0.2323 -0.6991
 8631TIP3    H247309   0.176   5.276   5.023  0.1580 -0.5479 -1.6166
 8632TIP3   OH247310   6.291   3.786   4.442  0.3596  0.5288  0.0376
 8632TIP3    H147311   6.243   3.844   4.502  0.2102  0.7179 -0.2636
 8632TIP3    H247312   6.359   3.747   4.497 -0.5998 -0.3093  0.6467
 8633TIP3   OH247313   5.563   1.419   2.120 -0.1294 -0.1715 -0.6329
 8633TIP3    H147314   5.474   1.405   2.154  0.3438 -2.6297 -0.2874
 8633TIP3    H247315   5.603   1.480   2.181 -0.8079 -0.9059  0.5604
 8634TIP3   OH247316   2.292   6.327   4.361  0.0254  0.8984 -0.6415
 8634TIP3    H147317   2.260   6.397   4.304 -0.7813  0.1227 -1.1341
 8634TIP3    H247318   2.313   6.255   4.302  0.5878  0.6063 -0.1005
 8635TIP3   OH247319   4.732   3.832  13.112  0.5575  0.1644  0.9389
 8635TIP3    H147320   4.694   3.915  13.083  0.6860  0.1137  0.6214
 8635TIP3    H247321   4.657   3.773  13.120  0.5584  0.0804  0.3696
 8636TIP3   OH247322   5.605   2.834   1.190 -0.5828  0.4741 -0.4096
 8636TIP3    H147323   5.623   2.918   1.147 -1.7187  0.9411 -0.0102
 8636TIP3    H247324   5.654   2.838   1.272  1.1519 -0.1940 -1.3894
 8637TIP3   OH247325   0.512   5.037  14.896 -0.0493 -0.5648 -0.0964
 8637TIP3    H147326   0.429   5.049  14.943  0.7294  1.6704  0.7554
 8637TIP3    H247327   0.507   5.099  14.823 -0.0094 -1.9612 -1.3140
 8638TIP3   OH247328   4.948   0.801   6.256 -0.4064  0.5132 -0.0405
 8638TIP3    H147329   4.997   0.883   6.250  1.1801 -0.5571 -2.3139
 8638TIP3    H247330   4.920   0.796   6.347  1.3211  2.5364  0.6288
 8639TIP3   OH247331   0.979   0.794  12.634  1.0621 -0.5857  0.1238
 8639TIP3    H147332   1.072   0.796  12.612  0.6592 -1.7387 -1.8100
 8639TIP3    H247333   0.938   0.851  12.570  0.4969  0.5973  1.4937
 8640TIP3   OH247334   0.232   0.688  15.214  0.3702  0.0976 -0.0307
 8640TIP3    H147335   0.195   0.601  15.229 -0.0425 -0.1556 -2.3497
 8640TIP3    H247336   0.249   0.691  15.120  1.7030  2.0140  0.2523
 8641TIP3   OH247337   0.287   5.969  12.235  0.4755 -0.4384  0.5622
 8641TIP3    H147338   0.310   6.038  12.173  0.7085  0.4059  1.5807
 8641TIP3    H247339   0.233   5.909  12.184  0.8285  0.1319 -0.5171
 8642TIP3   OH247340   3.728   1.800  15.761 -0.1558  0.0225 -0.0343
 8642TIP3    H147341   3.741   1.707  15.779  1.5467  0.0554 -0.9354
 8642TIP3    H247342   3.817   1.835  15.752 -0.8060  1.3638 -1.5164
 8643TIP3   OH247343   3.859   5.246   5.642 -0.1890  0.2279 -0.1775
 8643TIP3    H147344   3.809   5.325   5.663 -1.5560  0.1670 -2.9152
 8643TIP3    H247345   3.793   5.184   5.610  1.3525 -0.5042 -2.0502
 8644TIP3   OH247346   1.940   0.344   0.968  0.3099 -0.2124  0.9623
 8644TIP3    H147347   1.934   0.437   0.992 -0.9033  0.2195 -0.9482
 8644TIP3    H247348   1.849   0.315   0.959  0.7016 -1.1586 -0.0531
 8645TIP3   OH247349   5.578   6.477  14.642 -0.4516  0.3435  0.0541
 8645TIP3    H147350   5.543   6.388  14.640 -0.7801  0.4894 -1.0063
 8645TIP3    H247351   5.659   6.470  14.692 -0.4290 -0.5678 -0.1066
 8646TIP3   OH247352   3.479   3.871   2.283  0.1249  0.0751  0.0019
 8646TIP3    H147353   3.458   3.831   2.367  0.0884 -1.1008 -0.5457
 8646TIP3    H247354   3.546   3.813   2.245 -0.1914  0.3335 -0.9664
 8647TIP3   OH247355   4.067   0.365   2.596  0.0490  0.0314  0.2591
 8647TIP3    H147356   4.071   0.446   2.545  2.4167  0.5851  1.2805
 8647TIP3    H247357   4.125   0.304   2.550 -0.9959 -0.7974  0.0163
 8648TIP3   OH247358   3.948   6.353  16.965 -0.5334  0.2449  0.6840
 8648TIP3    H147359   3.898   6.350  17.047 -3.2331  1.1013 -0.8832
 8648TIP3    H247360   3.978   6.443  16.958  0.2381  0.0191  1.0317
 8649TIP3   OH247361   2.072   4.874  15.167 -0.2717  0.0470  0.4514
 8649TIP3    H147362   2.001   4.927  15.203  0.6013 -0.2398  2.7252
 8649TIP3    H247363   2.152   4.913  15.203  0.8805  1.3088 -3.2980
 8650TIP3   OH247364   2.160   2.268   2.674  0.2812  0.3695 -0.0782
 8650TIP3    H147365   2.233   2.227   2.720 -0.8082 -0.6426  0.8109
 8650TIP3    H247366   2.176   2.249   2.582  0.6281 -0.7311  0.1918
 8651TIP3   OH247367   2.191   2.400  14.977 -0.0024  0.0943  0.4659
 8651TIP3    H147368   2.200   2.421  15.070  0.6157 -3.2344  1.2468
 8651TIP3    H247369   2.256   2.455  14.933 -0.3202  1.7184  1.9980
 8652TIP3   OH247370   1.393   5.287   1.822 -0.6786 -0.3398  0.1709
 8652TIP3    H147371   1.437   5.371   1.835 -3.0094  1.0684 -0.7227
 8652TIP3    H247372   1.375   5.255   1.911  1.4249 -0.5909  0.5310
 8653TIP3   OH247373   5.058   6.769  14.188 -0.4777  0.5197 -0.0580
 8653TIP3    H147374   5.119   6.843  14.187 -0.6894  0.7606  1.8951
 8653TIP3    H247375   4.992   6.794  14.252 -2.8739  0.4243 -2.4178
 8654TIP3   OH247376   2.058   2.680   0.797 -0.3398 -0.2997  0.4880
 8654TIP3    H147377   2.041   2.740   0.870 -1.0703  1.5215 -1.1397
 8654TIP3    H247378   1.978   2.683   0.744 -1.0595 -3.9826  1.1854
 8655TIP3   OH247379   5.489   2.321   2.637  0.1459 -0.0982  0.7370
 8655TIP3    H147380   5.406   2.368   2.628  0.0024 -0.4652  0.0669
 8655TIP3    H247381   5.552   2.374   2.589 -0.6937 -2.2368 -2.8680
 8656TIP3   OH247382   4.879   3.026  13.851  0.1049  0.2334  0.3820
 8656TIP3    H147383   4.835   3.111  13.859  0.1211  0.1625  1.3114
 8656TIP3    H247384   4.972   3.046  13.859  0.2434  0.3631 -1.4168
 8657TIP3   OH247385   2.384   1.424  11.406  0.2716 -0.8212  0.1664
 8657TIP3    H147386   2.475   1.437  11.380 -0.3463  2.6132 -0.5107
 8657TIP3    H247387   2.335   1.429  11.323 -0.5494 -3.0402  0.4713
 8658TIP3   OH247388   5.261   0.863   5.195  0.6982 -0.2788  1.0370
 8658TIP3    H147389   5.188   0.801   5.203  0.1301  0.4864  1.9498
 8658TIP3    H247390   5.220   0.943   5.164  1.0903  0.2764  1.9422
 8659TIP3   OH247391   0.764   3.625  11.027 -0.1479  0.6021  0.2957
 8659TIP3    H147392   0.688   3.647  11.082 -1.1494 -1.2283 -0.3296
 8659TIP3    H247393   0.728   3.620  10.939  0.8181  0.2337 -0.0758
 8660TIP3   OH247394   5.718   5.676  14.490  0.3930  0.4937 -0.7239
 8660TIP3    H147395   5.790   5.734  14.467  3.2599 -2.0549  1.3050
 8660TIP3    H247396   5.706   5.621  14.412  2.7554 -1.0533 -0.0391
 8661TIP3   OH247397   1.364   5.212  15.187 -0.7153 -0.1881 -0.1981
 8661TIP3    H147398   1.454   5.244  15.184 -0.7121 -0.1481  0.2306
 8661TIP3    H247399   1.347   5.179  15.099  0.2226 -1.5517  0.1102
 8662TIP3   OH247400   0.759   2.375   4.380 -0.0718 -0.4578 -0.2620
 8662TIP3    H147401   0.811   2.302   4.348  0.4566 -0.0824 -0.2669
 8662TIP3    H247402   0.823   2.445   4.396 -0.2585 -0.7920  2.0506
 8663TIP3   OH247403   1.579   0.202  15.702  0.2901 -0.1773 -0.3347
 8663TIP3    H147404   1.534   0.192  15.786 -0.0729 -1.5567 -0.6842
 8663TIP3    H247405   1.656   0.255  15.723 -1.0937  1.6077  0.3978
 8664TIP3   OH247406   3.317   0.459   3.177 -0.3335 -0.5277 -0.0006
 8664TIP3    H147407   3.341   0.539   3.222 -0.1262  0.5661 -2.0121
 8664TIP3    H247408   3.395   0.433   3.129 -0.8545 -1.1257 -0.5431
 8665TIP3   OH247409   1.942   3.706   1.060 -0.8363  0.0187 -0.7055
 8665TIP3    H147410   1.848   3.717   1.041 -1.4243 -2.0429  0.8107
 8665TIP3    H247411   1.944   3.664   1.146  1.4974  0.2587 -0.6230
 8666TIP3   OH247412   3.646   1.796  11.048 -0.1140  0.8590 -0.1597
 8666TIP3    H147413   3.609   1.783  10.960 -1.6843 -0.6215  0.6890
 8666TIP3    H247414   3.740   1.803  11.033 -0.1911 -1.0204 -1.8269
 8667TIP3   OH247415   5.681   5.049   2.051 -0.3865  0.5697 -0.2044
 8667TIP3    H147416   5.699   4.991   1.977  0.1373 -1.3071  1.3594
 8667TIP3    H247417   5.608   5.104   2.021 -1.0815 -1.0799 -1.6304
 8668TIP3   OH247418   2.336   2.056   2.754 -0.4508  0.0182  0.1259
 8668TIP3    H147419   2.334   1.966   2.787 -1.1323 -0.3226 -0.8240
 8668TIP3    H247420   2.428   2.080   2.755 -0.4174 -0.1706  1.7792
 8669TIP3   OH247421   0.940   5.385   4.709  0.1172  0.3866 -0.5315
 8669TIP3    H147422   0.930   5.304   4.759 -1.5015  0.2842 -1.0072
 8669TIP3    H247423   0.918   5.454   4.771 -0.7117  0.3255 -0.7494
 8670TIP3   OH247424   3.363   2.886  13.337 -0.0962 -0.0254  0.2946
 8670TIP3    H147425   3.448   2.908  13.299  2.4251 -1.5748  4.6468
 8670TIP3    H247426   3.343   2.799  13.303 -0.7910  0.9798 -1.9774
 8671TIP3   OH247427   4.779   4.694  15.013  0.5439 -0.4455  0.4075
 8671TIP3    H147428   4.769   4.770  14.956  1.8500 -0.4524  0.1407
 8671TIP3    H247429   4.874   4.684  15.023  0.4443 -2.9560 -0.7996
 8672TIP3   OH247430   1.089   0.060  10.619  0.3742  0.4042 -0.9787
 8672TIP3    H147431   1.121   0.057  10.710 -1.5023 -0.2689 -0.3103
 8672TIP3    H247432   1.082   0.154  10.600 -0.6960  0.5765  0.1441
 8673TIP3   OH247433   5.414   2.969   1.946 -0.6655  0.6388 -0.2770
 8673TIP3    H147434   5.416   3.013   1.860 -1.3085  0.5641 -0.3364
 8673TIP3    H247435   5.348   3.018   1.996 -1.6616 -0.4771 -0.4652
 8674TIP3   OH247436   4.897   1.938   2.012 -0.0330  0.4163  0.6325
 8674TIP3    H147437   4.911   1.844   2.016  0.9286  0.3991 -2.4919
 8674TIP3    H247438   4.982   1.976   2.033  0.5416  0.5239 -1.8300
 8675TIP3   OH247439   4.058   6.141   3.555 -0.2457  0.1544 -0.0743
 8675TIP3    H147440   3.969   6.116   3.530 -0.1741  0.7150 -0.8945
 8675TIP3    H247441   4.068   6.105   3.643 -1.0405 -0.5091 -0.2383
 8676TIP3   OH247442   3.782   3.159  13.420  0.4848 -0.0175 -0.5248
 8676TIP3    H147443   3.871   3.133  13.395  0.5208  0.5123 -0.9614
 8676TIP3    H247444   3.743   3.191  13.339 -0.7216 -1.9408 -0.7304
 8677TIP3   OH247445   6.037   2.145  11.103 -0.7691 -0.1223  0.0093
 8677TIP3    H147446   6.120   2.100  11.119  0.1242  2.0052  1.4645
 8677TIP3    H247447   5.971   2.083  11.133  0.3859 -0.9401  0.9458
 8678TIP3   OH247448   3.753   3.968  14.601 -0.0143  0.2011 -0.0390
 8678TIP3    H147449   3.817   3.970  14.672 -0.6080  1.2367  0.4801
 8678TIP3    H247450   3.714   4.055  14.602 -0.7192 -0.0987 -1.0010
 8679TIP3   OH247451   5.637   0.987  15.113  0.1376  0.0543  0.5842
 8679TIP3    H147452   5.644   1.049  15.040  2.2585 -0.0680  0.6735
 8679TIP3    H247453   5.688   0.911  15.086 -0.0770 -0.4900  1.6875
 8680TIP3   OH247454   6.630   3.711  16.325 -0.5128  0.1701  0.2089
 8680TIP3    H147455   6.580   3.715  16.407 -1.2766  2.8901 -0.3469
 8680TIP3    H247456   6.655   3.801  16.308  2.1972 -0.7645 -1.0297
 8681TIP3   OH247457   6.033   0.452  13.661  0.3275 -0.2903  0.0469
 8681TIP3    H147458   6.101   0.388  13.639 -1.6397 -2.2186 -0.4924
 8681TIP3    H247459   5.984   0.464  13.580  0.3329  1.5336  0.2798
 8682TIP3   OH247460   4.262   2.377  13.958  0.0767  0.5884 -0.0985
 8682TIP3    H147461   4.321   2.428  13.903  0.1283  0.4569 -0.1645
 8682TIP3    H247462   4.213   2.322  13.898  0.3726  0.1992  0.0125
 8683TIP3   OH247463   4.511   5.866   1.518  0.3473 -0.4431 -0.0411
 8683TIP3    H147464   4.527   5.945   1.570  0.9980 -0.5899 -0.0072
 8683TIP3    H247465   4.436   5.825   1.560  0.9707 -0.6476  0.9027
 8684TIP3   OH247466   0.902   5.523  13.262  0.2498 -0.1589  0.2830
 8684TIP3    H147467   0.923   5.476  13.343 -0.4864 -2.8553 -1.0189
 8684TIP3    H247468   0.807   5.519  13.256 -0.0031  3.3561  1.1626
 8685TIP3   OH247469   5.241   6.016  13.234  0.6263 -0.0563 -0.6461
 8685TIP3    H147470   5.203   5.995  13.148 -0.9919 -1.5996  0.4101
 8685TIP3    H247471   5.267   6.108  13.227 -1.7391  0.5588 -1.9972
 8686TIP3   OH247472   3.899   1.730  11.243 -0.2329 -0.0986  0.4105
 8686TIP3    H147473   3.913   1.647  11.198 -1.0790  0.3014 -0.6237
 8686TIP3    H247474   3.974   1.784  11.218  0.7660 -0.8275  1.7761
 8687TIP3   OH247475   5.386   3.079  16.471  0.4074 -0.1496 -0.6011
 8687TIP3    H147476   5.335   3.128  16.405  0.9430  0.3864 -0.6205
 8687TIP3    H247477   5.326   3.011  16.501 -0.7986  1.3106  0.3680
 8688TIP3   OH247478   1.333   6.194   5.329  0.1533  0.7223  0.2416
 8688TIP3    H147479   1.383   6.273   5.349  0.1430  0.9865 -0.7663
 8688TIP3    H247480   1.243   6.214   5.356 -0.1828  1.6605 -1.5315
 8689TIP3   OH247481   6.051   5.020  11.498 -0.4730 -0.0726 -0.3138
 8689TIP3    H147482   6.054   5.098  11.553 -1.4417  0.1593 -0.5723
 8689TIP3    H247483   6.137   4.980  11.508 -1.4445 -1.4209  3.4125
 8690TIP3   OH247484   1.694   3.374   0.734  0.0931 -0.2774  0.3834
 8690TIP3    H147485   1.714   3.360   0.827 -0.6090  0.5699  0.6674
 8690TIP3    H247486   1.598   3.371   0.730  0.0868  0.5071 -0.1752
 8691TIP3   OH247487   1.854   0.438   3.805  0.5597 -0.3617 -0.1068
 8691TIP3    H147488   1.920   0.424   3.873  0.6230 -1.4648 -0.3937
 8691TIP3    H247489   1.899   0.419   3.723 -0.6117 -3.0385 -0.1879
 8692TIP3   OH247490   5.675   2.690   0.959  0.4666 -0.2671 -0.0689
 8692TIP3    H147491   5.668   2.739   1.041  1.9538  0.1929 -0.2038
 8692TIP3    H247492   5.592   2.707   0.914  0.1627  0.5144  0.7657
 8693TIP3   OH247493   2.810   0.025   1.808  0.4954  0.4095  0.1255
 8693TIP3    H147494   2.840  -0.063   1.832  0.0497 -0.4556 -2.3335
 8693TIP3    H247495   2.888   0.080   1.817  0.6137 -0.0867  2.3445
 8694TIP3   OH247496   3.227   6.096  16.370  0.0449  0.0201 -0.6961
 8694TIP3    H147497   3.181   6.097  16.286 -0.2004 -1.9552 -0.6045
 8694TIP3    H247498   3.307   6.046  16.354 -1.4300 -2.9876  0.9131
 8695TIP3   OH247499   6.575   2.489   5.490 -0.3755 -0.5227 -0.2613
 8695TIP3    H147500   6.534   2.442   5.563  1.4938  0.3684  1.4312
 8695TIP3    H247501   6.529   2.573   5.487 -0.7401 -0.7256 -0.3998
 8696TIP3   OH247502   0.895   2.063   0.396 -0.1877 -0.1673 -0.8205
 8696TIP3    H147503   0.814   2.100   0.430 -0.5527 -1.0324 -0.7536
 8696TIP3    H247504   0.874   2.038   0.306 -0.6831 -2.5923 -0.0494
 8697TIP3   OH247505   1.101   4.365   5.011  0.1437 -0.5377 -0.1690
 8697TIP3    H147506   1.137   4.374   5.099 -0.6455  1.6857 -0.0416
 8697TIP3    H247507   1.081   4.271   5.003 -0.2752 -0.6953  2.2312
 8698TIP3   OH247508   0.409   0.952   5.414 -0.4693  0.8464  0.2360
 8698TIP3    H147509   0.409   1.013   5.340  0.6140  1.3223  0.6090
 8698TIP3    H247510   0.366   0.999   5.485 -1.9566  0.2067 -0.2179
 8699TIP3   OH247511   2.026   4.668  14.023  0.1131  0.9032 -0.4970
 8699TIP3    H147512   1.935   4.638  14.017  0.7059 -1.0549 -0.1338
 8699TIP3    H247513   2.054   4.680  13.933  0.0424 -0.2505 -0.6803
 8700TIP3   OH247514   1.224   5.709  13.198 -0.8477  0.4989  0.0124
 8700TIP3    H147515   1.258   5.759  13.123 -0.8132 -0.7788 -0.8312
 8700TIP3    H247516   1.180   5.634  13.158 -1.1896  0.0288  1.2672
 8701TIP3   OH247517   1.337   1.013   3.350  0.5281  0.3433 -0.0310
 8701TIP3    H147518   1.316   1.071   3.423 -1.9952  0.8903 -1.1390
 8701TIP3    H247519   1.428   1.035   3.327  0.5731  1.7816  1.4453
 8702TIP3   OH247520   6.178   0.472   4.245  0.2106 -0.0163 -0.5753
 8702TIP3    H147521   6.111   0.462   4.313  0.7133 -1.1926 -0.2438
 8702TIP3    H247522   6.259   0.489   4.293  0.2245  1.0400 -0.9635
 8703TIP3   OH247523   5.737   2.560  13.593  0.5280 -0.4856  0.0574
 8703TIP3    H147524   5.736   2.562  13.498 -0.2543 -1.1458  0.0533
 8703TIP3    H247525   5.760   2.470  13.616 -0.7532 -0.7137  0.4951
 8704TIP3   OH247526   5.185   0.076   4.808  0.6554 -0.1450  0.6566
 8704TIP3    H147527   5.184   0.139   4.880 -2.3763  0.0352  0.5044
 8704TIP3    H247528   5.155  -0.006   4.848 -2.6183  0.3404 -0.6680
 8705TIP3   OH247529   1.296   3.630  10.572 -0.0690  0.0902  0.0382
 8705TIP3    H147530   1.203   3.635  10.548  0.7070 -0.1694 -3.2565
 8705TIP3    H247531   1.325   3.721  10.575  0.1252  0.0829 -1.3502
 8706TIP3   OH247532   6.535   1.408   5.562  0.5095  0.1156  0.2140
 8706TIP3    H147533   6.509   1.404   5.470 -0.4142  0.7154  0.4369
 8706TIP3    H247534   6.629   1.423   5.559  0.7273 -1.3390 -0.6187
 8707TIP3   OH247535   3.785   4.379   0.909  0.3526  0.1228 -0.2933
 8707TIP3    H147536   3.709   4.392   0.852 -1.7553 -2.5952  1.7033
 8707TIP3    H247537   3.845   4.325   0.858 -0.3309 -0.0801 -0.8869
 8708TIP3   OH247538   6.397   5.276  16.249 -0.6438 -0.1416 -0.1168
 8708TIP3    H147539   6.491   5.296  16.241 -0.7423 -0.4098 -2.2541
 8708TIP3    H247540   6.391   5.219  16.325  1.1356 -1.3209 -0.8270
 8709TIP3   OH247541   4.971   2.758   5.338  0.1959  0.0491 -0.2171
 8709TIP3    H147542   4.880   2.728   5.344 -0.2693  1.5892  0.6973
 8709TIP3    H247543   5.022   2.688   5.376 -0.6144 -0.7966 -0.6582
 8710TIP3   OH247544   0.688   3.334  12.684  0.1833  0.4244  0.0244
 8710TIP3    H147545   0.726   3.421  12.701  0.1264  0.4518  0.0109
 8710TIP3    H247546   0.598   3.341  12.714  0.5590 -0.0473  1.2762
 8711TIP3   OH247547   2.613   1.900   5.326  0.3488 -0.3182 -0.0284
 8711TIP3    H147548   2.629   1.971   5.263  0.4032 -0.3494 -0.0498
 8711TIP3    H247549   2.542   1.849   5.287  0.6852 -0.5977 -0.2772
 8712TIP3   OH247550   0.505   0.623  14.204  0.1890  0.0718 -0.0816
 8712TIP3    H147551   0.578   0.665  14.248  0.9771 -1.9695  0.6316
 8712TIP3    H247552   0.427   0.667  14.240  0.9561  0.5638  1.0204
 8713TIP3   OH247553   3.564   3.862   3.871 -0.3743  0.2349 -0.9080
 8713TIP3    H147554   3.504   3.794   3.901 -0.3658 -0.1486 -1.7670
 8713TIP3    H247555   3.636   3.814   3.830  0.8836  0.6531  0.7422
 8714TIP3   OH247556   3.376   1.805   5.581 -0.1970  0.2662  0.0197
 8714TIP3    H147557   3.468   1.826   5.591 -0.4400  1.5550 -0.3535
 8714TIP3    H247558   3.367   1.779   5.489 -0.3771  1.0700 -0.1935
 8715TIP3   OH247559   5.619   1.359  11.347  0.0718 -0.4200  0.2754
 8715TIP3    H147560   5.691   1.301  11.374  0.7975  1.9770  3.9007
 8715TIP3    H247561   5.543   1.325  11.394  0.0594  0.3112  0.7920
 8716TIP3   OH247562   3.164   3.304  12.471 -0.2140 -0.4406  0.1527
 8716TIP3    H147563   3.072   3.330  12.465  0.6644  3.1229  0.5412
 8716TIP3    H247564   3.198   3.318  12.382  0.6784  1.5165  0.7680
 8717TIP3   OH247565   2.317   6.156   4.151  0.4850  0.4253  0.1433
 8717TIP3    H147566   2.321   6.080   4.093  0.8513  0.2458  0.4021
 8717TIP3    H247567   2.392   6.210   4.125  0.4239  0.5335  0.1901
 8718TIP3   OH247568   1.698   3.866  14.325 -0.1974 -0.4117 -0.5765
 8718TIP3    H147569   1.759   3.875  14.253 -1.2500 -0.5234 -1.4967
 8718TIP3    H247570   1.703   3.950  14.372  1.7817 -0.9954  0.2640
 8719TIP3   OH247571   3.477   2.757   3.613  0.7210  0.4326  0.4761
 8719TIP3    H147572   3.403   2.718   3.565  0.3592 -0.5024  1.7653
 8719TIP3    H247573   3.553   2.737   3.560  0.1522  0.6675 -0.4419
 8720TIP3   OH247574   1.140   1.700   6.206  0.8006 -0.3597 -0.2988
 8720TIP3    H147575   1.208   1.760   6.237  1.6693 -1.2934 -0.3743
 8720TIP3    H247576   1.175   1.613   6.224 -0.8308 -0.8425  0.6087
 8721TIP3   OH247577   5.306   3.804  12.049 -0.0398  0.3707 -0.1480
 8721TIP3    H147578   5.373   3.736  12.045 -0.3391  0.0823 -0.2008
 8721TIP3    H247579   5.351   3.884  12.021  0.9248  0.6584  2.1633
 8722TIP3   OH247580   3.641   1.085   5.987 -0.4871 -0.7231 -0.2000
 8722TIP3    H147581   3.630   1.168   6.035  0.1492 -0.7190 -0.0535
 8722TIP3    H247582   3.710   1.104   5.924 -0.9642 -0.8839 -0.7721
 8723TIP3   OH247583   2.640   3.005  11.706  0.3724 -0.3141  0.3424
 8723TIP3    H147584   2.723   2.967  11.678  1.4231  0.7270  1.9566
 8723TIP3    H247585   2.638   2.992  11.801  0.1970  2.4800  0.7669
 8724TIP3   OH247586   5.447   4.300   4.181  0.0665 -0.6346 -0.0375
 8724TIP3    H147587   5.437   4.242   4.106 -1.4277 -1.3225  0.6645
 8724TIP3    H247588   5.510   4.256   4.238  0.3053 -0.6912 -0.3500
 8725TIP3   OH247589   5.135   6.598  15.034  0.1557 -0.2413  0.6901
 8725TIP3    H147590   5.087   6.516  15.049 -0.3273 -0.0154  0.3500
 8725TIP3    H247591   5.100   6.633  14.953  1.9889 -0.8728 -0.4209
 8726TIP3   OH247592   3.730   3.803   0.739  0.7095  0.0152 -0.3009
 8726TIP3    H147593   3.721   3.876   0.800  1.9605  0.5207 -0.7106
 8726TIP3    H247594   3.639   3.776   0.721  0.2384  1.4185 -0.0872
 8727TIP3   OH247595   5.412   1.157   3.341  0.3540 -0.0783 -0.6531
 8727TIP3    H147596   5.478   1.102   3.384 -0.0648 -0.3521 -0.3650
 8727TIP3    H247597   5.464   1.216   3.285  0.7470 -1.3501 -1.6418
 8728TIP3   OH247598   6.529   3.354  16.034 -0.8546  0.2151 -0.0344
 8728TIP3    H147599   6.510   3.270  15.994 -0.2544 -0.0492  0.2283
 8728TIP3    H247600   6.449   3.405  16.022 -1.1400 -0.3123 -0.3924
 8729TIP3   OH247601   1.851   5.475  16.991  0.4253 -0.2363 -0.2810
 8729TIP3    H147602   1.910   5.520  17.052 -0.2504 -1.3848  1.2507
 8729TIP3    H247603   1.895   5.392  16.972 -0.6781 -1.0955  0.8593
 8730TIP3   OH247604   5.077   6.249  12.724  0.0175 -0.6374 -0.2082
 8730TIP3    H147605   5.162   6.211  12.702  0.1731 -0.5135  0.1876
 8730TIP3    H247606   5.098   6.332  12.766 -0.2134 -1.7629  2.1991
 8731TIP3   OH247607   2.080   4.148  12.546  0.0173 -0.4546  0.2245
 8731TIP3    H147608   2.128   4.194  12.615 -1.5731  1.2806  0.2069
 8731TIP3    H247609   1.997   4.123  12.587 -0.1067 -1.2245 -0.4804
 8732TIP3   OH247610   1.489   1.101  14.553  0.0565 -0.0848 -0.1492
 8732TIP3    H147611   1.519   1.117  14.463 -1.0156  1.5372 -0.2576
 8732TIP3    H247612   1.557   1.140  14.608  0.5473 -0.7727 -0.2738
 8733TIP3   OH247613   2.913   4.189  11.513  0.0074  0.0796 -0.3579
 8733TIP3    H147614   2.827   4.156  11.488  0.4662 -1.3454 -0.0948
 8733TIP3    H247615   2.921   4.168  11.606  1.2366 -1.1564 -0.7227
 8734TIP3   OH247616   0.271   0.354  17.014  0.2755  0.3278  0.3944
 8734TIP3    H147617   0.325   0.427  17.045 -0.1635  1.7973 -2.1763
 8734TIP3    H247618   0.290   0.349  16.920 -1.5462 -1.2833  0.0885
 8735TIP3   OH247619   4.806   4.055  10.845 -0.0722  0.7428  0.0020
 8735TIP3    H147620   4.898   4.079  10.841  0.4889 -1.3812 -0.4117
 8735TIP3    H247621   4.767   4.096  10.768  0.5417  1.5524  0.1157
 8736TIP3   OH247622   4.757   0.178  13.182  0.8524  0.3555  0.5535
 8736TIP3    H147623   4.818   0.189  13.109  0.0999 -1.4752 -0.3663
 8736TIP3    H247624   4.812   0.145  13.253  1.0760 -0.5135 -0.0233
 8737TIP3   OH247625   1.233   5.163   2.671 -0.1926  0.7064 -0.4850
 8737TIP3    H147626   1.210   5.222   2.743  0.6243 -0.3751  0.6731
 8737TIP3    H247627   1.252   5.222   2.598  3.1512  2.0455  1.3696
 8738TIP3   OH247628   1.604   1.970  13.837  0.3660  0.2114  0.1500
 8738TIP3    H147629   1.692   1.936  13.819  0.2848  0.6165 -1.0363
 8738TIP3    H247630   1.551   1.891  13.851  0.5915 -0.0841 -0.6463
 8739TIP3   OH247631   6.224   3.233   5.799 -0.2029 -0.6132  0.1131
 8739TIP3    H147632   6.182   3.220   5.714 -0.1638 -0.7524  0.1146
 8739TIP3    H247633   6.173   3.302   5.840  0.4323  0.2147 -0.4665
 8740TIP3   OH247634   3.022   6.120   4.348 -0.2512 -0.0146 -0.4118
 8740TIP3    H147635   3.036   6.120   4.443 -0.0367  1.0073 -0.4411
 8740TIP3    H247636   3.028   6.028   4.323  0.5621 -0.1974  0.4464
 8741TIP3   OH247637   5.810   2.786   1.405 -0.4506 -0.3721 -0.1138
 8741TIP3    H147638   5.737   2.770   1.464  0.9320  1.3061  2.1070
 8741TIP3    H247639   5.888   2.761   1.456  0.6256 -0.8456 -1.9444
 8742TIP3   OH247640   0.315   3.514  13.131  0.2939 -0.0004 -0.2189
 8742TIP3    H147641   0.405   3.520  13.099  0.5293  0.1290  0.4790
 8742TIP3    H247642   0.315   3.440  13.190 -0.1614 -0.2623 -0.5447
 8743TIP3   OH247643   0.064   1.432  13.735  0.3120  0.2436  0.0862
 8743TIP3    H147644   0.014   1.510  13.760 -0.3385  0.5267 -1.9651
 8743TIP3    H247645   0.015   1.359  13.773 -0.0199  0.7268  0.5973
 8744TIP3   OH247646   3.133   5.860  12.383  0.3993 -0.0598  0.7372
 8744TIP3    H147647   3.143   5.834  12.475  1.9147  0.2044  0.6608
 8744TIP3    H247648   3.216   5.903  12.361  0.2470 -0.5895 -0.9183
 8745TIP3   OH247649   6.532   3.866  15.274  0.0475  0.1749  0.4470
 8745TIP3    H147650   6.482   3.873  15.355  0.8157  0.3923  0.9049
 8745TIP3    H247651   6.613   3.915  15.291  1.3073 -1.8406  0.4169
 8746TIP3   OH247652   4.339   0.859  13.997 -0.3069 -0.3503 -0.2871
 8746TIP3    H147653   4.398   0.930  13.974 -1.1800  0.7455  0.7787
 8746TIP3    H247654   4.381   0.815  14.071 -0.5031  0.0339  0.0571
 8747TIP3   OH247655   6.283   5.203  16.573 -0.6463  0.4635 -0.1065
 8747TIP3    H147656   6.378   5.217  16.580 -0.7128  0.6064  0.4787
 8747TIP3    H247657   6.274   5.109  16.556 -0.3520  0.6153 -1.1348
 8748TIP3   OH247658   3.254   3.841   3.054  0.5331  0.1412 -0.0356
 8748TIP3    H147659   3.275   3.913   3.113  1.7576  0.3388 -0.6887
 8748TIP3    H247660   3.338   3.802   3.033  0.0761 -0.1938 -1.2998
 8749TIP3   OH247661   6.350   1.106  16.715 -0.3634 -0.4052 -0.3137
 8749TIP3    H147662   6.380   1.086  16.804  0.2456 -1.0017 -0.6555
 8749TIP3    H247663   6.429   1.132  16.668 -0.8288  0.8087 -0.4321
 8750TIP3   OH247664   2.702   4.308  15.371 -0.4567  0.1197  0.0229
 8750TIP3    H147665   2.635   4.364  15.333 -1.5646 -0.6763  0.7769
 8750TIP3    H247666   2.660   4.268  15.447  1.6570  1.5043  1.9857
 8751TIP3   OH247667   3.537   1.985  14.345  0.4907 -0.3834 -0.0880
 8751TIP3    H147668   3.466   1.924  14.367  1.0840 -1.1581 -0.2832
 8751TIP3    H247669   3.571   1.952  14.261  1.3303 -0.2572  0.1942
 8752TIP3   OH247670   6.391   2.407   4.650  0.0666  0.5581  0.3473
 8752TIP3    H147671   6.331   2.447   4.587 -1.4828 -0.7891  0.9152
 8752TIP3    H247672   6.357   2.433   4.735  0.4148 -0.0312  0.6676
 8753TIP3   OH247673   6.419   0.222   4.284  0.2150 -0.2843  0.0308
 8753TIP3    H147674   6.445   0.302   4.238 -1.4007  1.0531  1.3676
 8753TIP3    H247675   6.369   0.254   4.360 -2.3311 -2.6105 -0.6033
 8754TIP3   OH247676   4.666   2.498   2.098 -0.6395 -0.3900 -0.7393
 8754TIP3    H147677   4.684   2.547   2.178 -0.8300  1.4512 -1.7960
 8754TIP3    H247678   4.682   2.407   2.122 -0.8866  0.1064  1.4437
 8755TIP3   OH247679   4.574   3.016  13.161 -0.0429  0.3806 -0.1913
 8755TIP3    H147680   4.542   3.010  13.071  0.1113  1.2277 -0.3075
 8755TIP3    H247681   4.628   3.095  13.162 -0.3683  0.5987  0.7503
 8756TIP3   OH247682   4.160   3.057   0.993  0.1366 -0.2432 -0.1179
 8756TIP3    H147683   4.115   3.027   1.072  1.5531 -0.2094  0.7099
 8756TIP3    H247684   4.189   3.146   1.014  1.1448 -0.4984 -0.4088
 8757TIP3   OH247685   0.304   3.260   1.602  0.0501  0.0856 -0.1221
 8757TIP3    H147686   0.261   3.181   1.635 -0.8176  1.6323  2.5943
 8757TIP3    H247687   0.234   3.310   1.560  0.5519 -0.4779 -1.6413
 8758TIP3   OH247688   2.070   6.091   4.745 -0.0380 -0.3564  0.0293
 8758TIP3    H147689   2.087   6.171   4.794 -1.6750  0.4855 -0.7605
 8758TIP3    H247690   2.158   6.057   4.724  0.6609  0.3095  1.8051
 8759TIP3   OH247691   4.456   5.588  12.863  0.2174 -0.5079 -0.1729
 8759TIP3    H147692   4.491   5.670  12.828  0.1080 -0.2990  0.2052
 8759TIP3    H247693   4.372   5.612  12.901 -0.6529 -1.1294 -1.6728
 8760TIP3   OH247694   1.647   3.580   2.590 -0.1979  0.4218 -0.3341
 8760TIP3    H147695   1.701   3.560   2.667  1.3818  0.2409 -1.4639
 8760TIP3    H247696   1.607   3.496   2.568  0.9468  0.0095 -0.9023
 8761TIP3   OH247697   0.097   0.893  13.323  0.4598  0.6033  0.4145
 8761TIP3    H147698   0.065   0.906  13.413  0.5004  1.2214  0.3412
 8761TIP3    H247699   0.178   0.843  13.334  1.6017  2.5098  0.8744
 8762TIP3   OH247700   3.716   0.190  10.967  0.1695  0.1096 -0.0587
 8762TIP3    H147701   3.671   0.109  10.942 -2.4845  0.8471  2.0549
 8762TIP3    H247702   3.808   0.173  10.949 -0.8136 -1.8360 -3.6325
 8763TIP3   OH247703   5.031   0.333   5.470 -0.2591 -0.2600 -0.0504
 8763TIP3    H147704   5.077   0.257   5.505  2.0209  0.0417 -2.2695
 8763TIP3    H247705   4.972   0.297   5.404 -2.9321 -0.5902  2.4335
 8764TIP3   OH247706   5.356   2.029  13.461  0.0400 -0.5123  0.3053
 8764TIP3    H147707   5.433   2.085  13.452  0.6153 -1.5206 -1.2286
 8764TIP3    H247708   5.372   1.956  13.403 -1.5873 -1.3151  0.8189
 8765TIP3   OH247709   3.820   4.008  13.458  0.0859  0.0657 -0.5606
 8765TIP3    H147710   3.868   4.076  13.506 -2.2168 -0.4664  2.6517
 8765TIP3    H247711   3.855   3.926  13.493  0.3336 -0.3788 -1.8379
 8766TIP3   OH247712   3.076   5.546  15.917 -0.1561  0.3988  0.1063
 8766TIP3    H147713   3.026   5.504  15.847  0.8868 -1.2226  0.2801
 8766TIP3    H247714   3.034   5.630  15.931 -0.4833  0.6711 -2.3518
 8767TIP3   OH247715   6.085   6.234  11.533  0.8225 -0.2553 -0.2763
 8767TIP3    H147716   6.022   6.176  11.575  0.7788 -1.5846 -2.1314
 8767TIP3    H247717   6.092   6.309  11.592 -0.1270 -1.5298  1.4873
 8768TIP3   OH247718   0.330   0.159   6.715  0.1942 -0.0071  0.2670
 8768TIP3    H147719   0.253   0.104   6.700  1.1318 -1.2528 -0.0402
 8768TIP3    H247720   0.387   0.141   6.640  0.9875  0.5591  0.7298
 8769TIP3   OH247721   5.953   0.664  16.123  0.4589 -1.1082 -0.3282
 8769TIP3    H147722   5.908   0.608  16.059  2.9258 -2.6557 -0.7398
 8769TIP3    H247723   5.965   0.609  16.200  0.7443 -0.3837  0.1498
 8770TIP3   OH247724   5.788   0.533   0.305 -0.1219  0.5281 -0.1609
 8770TIP3    H147725   5.838   0.454   0.328 -2.3494 -0.7552  0.3785
 8770TIP3    H247726   5.773   0.525   0.211 -0.7062  0.0790 -0.0339
 8771TIP3   OH247727   2.904   4.721   6.740 -0.4190  0.2039 -0.0433
 8771TIP3    H147728   2.883   4.793   6.800  0.6242  0.0575  0.5038
 8771TIP3    H247729   2.971   4.670   6.786  1.4363  0.9055 -1.9149
 8772TIP3   OH247730   6.066   6.729   5.926  0.4066  0.2385 -0.1778
 8772TIP3    H147731   6.076   6.811   5.974  0.6945  0.1284 -0.0435
 8772TIP3    H247732   6.012   6.674   5.983  0.4735  0.2252 -0.1265
 8773TIP3   OH247733   0.125   2.040   3.528  0.0498  0.2572  0.1767
 8773TIP3    H147734   0.138   1.961   3.474  0.2919  0.7221 -0.4454
 8773TIP3    H247735   0.208   2.051   3.574 -0.1354 -0.1037  0.6016
 8774TIP3   OH247736   4.543   4.127   1.376  0.7844 -0.7424  0.1453
 8774TIP3    H147737   4.523   4.121   1.469 -0.1525  0.8271  0.0637
 8774TIP3    H247738   4.637   4.108   1.370  0.6728 -1.7227  1.2890
 8775TIP3   OH247739   1.533   1.395   0.140 -0.2375 -0.6495  0.1487
 8775TIP3    H147740   1.455   1.435   0.100 -1.1939 -3.0255 -0.4447
 8775TIP3    H247741   1.524   1.414   0.234 -0.7326  0.3781 -0.0919
 8776TIP3   OH247742   3.482   0.083   3.055  0.6345  0.3772  0.1964
 8776TIP3    H147743   3.455   0.172   3.078 -1.7773 -0.2747  0.0686
 8776TIP3    H247744   3.548   0.095   2.987 -0.9493  2.0362 -1.1042
 8777TIP3   OH247745   1.330   3.413  12.394 -0.1638 -0.8568  0.1906
 8777TIP3    H147746   1.333   3.509  12.388 -0.8615 -0.9254 -1.4108
 8777TIP3    H247747   1.359   3.394  12.483  2.2493  0.7042 -0.2257
 8778TIP3   OH247748   0.761   5.085  15.060 -0.7737  0.2988  0.2276
 8778TIP3    H147749   0.776   5.033  15.139 -1.2020  2.4604  1.7756
 8778TIP3    H247750   0.674   5.059  15.030 -0.1359 -1.3734 -0.2173
 8779TIP3   OH247751   2.304   1.581  14.144 -0.2001  0.2049  0.1453
 8779TIP3    H147752   2.381   1.590  14.199 -1.1560 -4.2036  2.4120
 8779TIP3    H247753   2.339   1.559  14.057  1.1098 -0.0217  0.7248
 8780TIP3   OH247754   0.736   6.052  14.859  0.0091  0.5327  0.2789
 8780TIP3    H147755   0.681   6.037  14.782 -1.3352  0.2295  1.2905
 8780TIP3    H247756   0.748   6.147  14.862  1.0790  0.4616 -0.9797
 8781TIP3   OH247757   0.393   0.259  15.727  0.4888 -0.0064 -0.2680
 8781TIP3    H147758   0.370   0.306  15.807  2.4602  0.0889  0.2541
 8781TIP3    H247759   0.381   0.324  15.657  0.4522  0.4150  0.1252
 8782TIP3   OH247760   0.303   1.122  13.496 -0.4930  0.0532  0.1280
 8782TIP3    H147761   0.368   1.064  13.457  0.6877  0.7054  1.1016
 8782TIP3    H247762   0.301   1.096  13.588 -0.8982  0.7041  0.2999
 8783TIP3   OH247763   0.962   2.344  14.284  0.6154 -0.3370  0.3758
 8783TIP3    H147764   0.961   2.336  14.380  1.5094  0.2622  0.4466
 8783TIP3    H247765   0.945   2.437  14.268 -2.0813 -0.8644 -0.1492
 8784TIP3   OH247766   4.325   0.287  13.976 -0.5629  0.5017  0.3079
 8784TIP3    H147767   4.394   0.292  13.909  0.5283 -1.1665  1.2779
 8784TIP3    H247768   4.339   0.366  14.029 -0.5789  1.1285 -0.6022
 8785TIP3   OH247769   0.105   2.674   2.734  0.0392  0.1089  0.6838
 8785TIP3    H147770   0.199   2.673   2.750  0.5211  1.4730 -1.9457
 8785TIP3    H247771   0.079   2.582   2.740  1.4205 -0.2105  1.9975
 8786TIP3   OH247772   4.809   1.233  10.467  0.2120 -0.0817  0.0516
 8786TIP3    H147773   4.810   1.328  10.453  0.0014  0.0101  0.6347
 8786TIP3    H247774   4.777   1.223  10.557  0.2305 -0.7051 -0.0119
 8787TIP3   OH247775   3.219   3.594   6.116  0.2832 -0.1754 -0.3678
 8787TIP3    H147776   3.148   3.538   6.086 -1.6871  1.2845  1.3962
 8787TIP3    H247777   3.286   3.587   6.048 -1.5298 -1.6093 -2.0559
 8788TIP3   OH247778   4.553   0.085   1.927  0.2260  0.6575 -0.2198
 8788TIP3    H147779   4.459   0.096   1.940  0.3569  0.8690  0.5991
 8788TIP3    H247780   4.562   0.050   1.839 -0.6508  0.1714 -0.1134
 8789TIP3   OH247781   3.042   2.263  15.126  0.0022  0.1680  0.1405
 8789TIP3    H147782   2.963   2.291  15.171  0.2387  0.6503  0.2683
 8789TIP3    H247783   3.113   2.308  15.173  0.3160  0.0300 -0.1973
 8790TIP3   OH247784   1.677   0.529  11.164 -0.3134 -0.7541 -0.5163
 8790TIP3    H147785   1.711   0.466  11.100 -1.1480 -0.5043 -1.2119
 8790TIP3    H247786   1.616   0.479  11.217 -1.8026 -0.3217 -1.7529
 8791TIP3   OH247787   2.382   2.587   5.114 -0.1147  0.0177 -0.4664
 8791TIP3    H147788   2.357   2.517   5.053 -1.0521 -0.6445  0.6518
 8791TIP3    H247789   2.360   2.552   5.201  0.8814  1.0807  0.2246
 8792TIP3   OH247790   4.327   6.758   3.052  0.0406 -0.2059 -0.4653
 8792TIP3    H147791   4.308   6.724   3.139  1.7523 -1.1144 -0.4177
 8792TIP3    H247792   4.355   6.681   3.002 -0.4116  0.4015 -1.6585
 8793TIP3   OH247793   4.870   3.799  12.184 -0.3753  0.4362  0.2970
 8793TIP3    H147794   4.785   3.769  12.151  0.5413 -0.5243 -1.2304
 8793TIP3    H247795   4.891   3.738  12.255 -0.3986 -0.0647 -0.1263
 8794TIP3   OH247796   0.051   0.248   6.577  0.0407 -0.0971 -0.1876
 8794TIP3    H147797  -0.041   0.259   6.552 -0.2547  0.1494  0.9934
 8794TIP3    H247798   0.060   0.155   6.594  0.1945 -0.2361 -1.0179
 8795TIP3   OH247799   5.110   6.072   0.008 -0.3929 -0.2466 -0.3479
 8795TIP3    H147800   5.112   6.018   0.087  0.3935 -2.2666 -1.7273
 8795TIP3    H247801   5.171   6.030  -0.052 -0.9342  1.3032 -2.0370
 8796TIP3   OH247802   5.422   2.569  13.492 -0.0801  0.1331  0.1864
 8796TIP3    H147803   5.376   2.652  13.482  0.0017 -0.0551 -1.9766
 8796TIP3    H247804   5.511   2.594  13.518  0.6596  0.9044 -2.8792
 8797TIP3   OH247805   1.933   4.265  14.140 -0.0150 -0.2841  0.4106
 8797TIP3    H147806   2.003   4.298  14.197 -0.4575 -0.9606  1.3532
 8797TIP3    H247807   1.976   4.201  14.084 -0.1105 -1.5653  1.7902
 8798TIP3   OH247808   5.514   5.464   0.379 -0.0850 -0.2122  0.1679
 8798TIP3    H147809   5.509   5.370   0.359 -0.6608 -0.4384  1.3262
 8798TIP3    H247810   5.602   5.476   0.415 -0.0291 -0.3213  0.0668
 8799TIP3   OH247811   5.545   3.957   4.625  0.1639  0.3083 -0.2714
 8799TIP3    H147812   5.588   4.013   4.689 -2.3755  0.0085  1.8099
 8799TIP3    H247813   5.504   3.888   4.677 -0.9202 -0.6560 -2.3304
 8800TIP3   OH247814   1.657   5.005   3.787 -0.3600  0.2297 -0.5396
 8800TIP3    H147815   1.666   5.051   3.871  0.5085 -0.4549 -0.2576
 8800TIP3    H247816   1.573   4.960   3.794 -0.2588  0.1194 -0.0129
 8801TIP3   OH247817   4.783   5.204   0.672  0.5521  0.1015 -0.5650
 8801TIP3    H147818   4.827   5.190   0.588  2.5707 -1.4315  0.6940
 8801TIP3    H247819   4.852   5.235   0.730 -0.1733 -1.6506  1.2780
 8802TIP3   OH247820   5.880   1.023  13.537 -0.3865 -0.2871 -0.0503
 8802TIP3    H147821   5.836   1.022  13.622 -0.0776  1.3375  0.1379
 8802TIP3    H247822   5.927   1.107  13.535 -0.0781 -0.4865 -1.6637
 8803TIP3   OH247823   6.000   4.807  14.698 -0.1328 -0.4411  0.1053
 8803TIP3    H147824   5.930   4.775  14.756  1.0783 -0.2808  1.6786
 8803TIP3    H247825   6.079   4.801  14.751  0.8616  0.5539 -1.2569
 8804TIP3   OH247826   6.699   0.344  14.434 -0.1338  0.1692 -0.0550
 8804TIP3    H147827   6.760   0.276  14.405 -0.2531 -0.0063  0.1065
 8804TIP3    H247828   6.656   0.374  14.353  0.2947  0.4226 -0.1950
 8805TIP3   OH247829   3.111   3.689   4.189 -0.2500  0.2864  0.1764
 8805TIP3    H147830   3.184   3.751   4.185 -0.3797  0.3995 -0.5260
 8805TIP3    H247831   3.150   3.605   4.168 -0.0609  0.1114  1.1970
 8806TIP3   OH247832   1.519   5.284  14.150 -0.3011 -0.1943 -0.1427
 8806TIP3    H147833   1.545   5.350  14.085  1.0981 -1.0723 -0.5053
 8806TIP3    H247834   1.476   5.335  14.219  0.4755  1.0712 -0.5593
 8807TIP3   OH247835   2.074   5.828  15.969  0.4795 -0.2318 -0.2946
 8807TIP3    H147836   2.071   5.764  16.040 -1.6649 -1.3931 -1.3735
 8807TIP3    H247837   2.078   5.913  16.013  1.3421 -1.0172  1.1786
 8808TIP3   OH247838   0.824   6.438  13.164 -0.1212  0.9743 -0.0113
 8808TIP3    H147839   0.780   6.382  13.101 -1.7458  1.5460  0.6015
 8808TIP3    H247840   0.809   6.396  13.249  0.0552  1.4544  0.2620
 8809TIP3   OH247841   1.656   1.174  12.056  0.9886  0.9325 -0.2171
 8809TIP3    H147842   1.708   1.173  11.975  0.0065  2.5197 -0.8913
 8809TIP3    H247843   1.566   1.190  12.026  0.3869  0.0450  1.0887
 8810TIP3   OH247844   2.936   5.511  14.313 -0.1298 -0.7230  0.0059
 8810TIP3    H147845   2.969   5.484  14.399 -0.0198  0.2112  0.2589
 8810TIP3    H247846   2.909   5.602  14.325 -0.4572 -0.7031 -0.8561
 8811TIP3   OH247847   3.851   0.865   6.623  0.3947 -0.4101  0.5524
 8811TIP3    H147848   3.843   0.960   6.633 -0.5818 -0.6390  2.0443
 8811TIP3    H247849   3.762   0.834   6.610  0.8404 -1.0043 -1.2006
 8812TIP3   OH247850   0.506   1.612  13.762  0.4147 -0.2468 -0.8286
 8812TIP3    H147851   0.554   1.680  13.809  0.5737 -1.4358  0.7782
 8812TIP3    H247852   0.428   1.596  13.815  1.2459 -2.5166 -0.2545
 8813TIP3   OH247853   2.681   2.210  14.496  0.5372 -0.1303 -0.2141
 8813TIP3    H147854   2.700   2.148  14.566  0.4745 -1.2946 -1.2006
 8813TIP3    H247855   2.761   2.213  14.443 -0.4313 -1.6093 -1.8155
 8814TIP3   OH247856   5.773   3.165  14.087  0.2983 -0.2382 -0.1009
 8814TIP3    H147857   5.815   3.233  14.140  0.7885 -0.2509 -0.4755
 8814TIP3    H247858   5.703   3.212  14.041 -0.3222 -0.2825  0.7690
 8815TIP3   OH247859   1.962   5.875   4.904 -0.3315  0.2468 -0.0999
 8815TIP3    H147860   2.036   5.836   4.950  0.0721 -0.0888 -1.0403
 8815TIP3    H247861   1.999   5.950   4.858 -0.8098  0.8148  0.4222
 8816TIP3   OH247862   3.837   4.438   4.638  0.2715 -0.0440  0.3241
 8816TIP3    H147863   3.803   4.380   4.706  0.7809  0.8614  1.3577
 8816TIP3    H247864   3.853   4.521   4.683  2.5052 -0.0273 -0.4567
 8817TIP3   OH247865   2.805   2.683   2.994  0.1300 -0.4192  0.3455
 8817TIP3    H147866   2.773   2.610   3.047  1.2728 -1.3561 -0.2360
 8817TIP3    H247867   2.898   2.689   3.014 -0.0621  1.2734  0.8373
 8818TIP3   OH247868   2.362   0.860   2.051  0.1042 -0.0107  0.1607
 8818TIP3    H147869   2.446   0.841   2.007 -0.6169  0.2044 -1.3647
 8818TIP3    H247870   2.331   0.939   2.007 -0.0041  1.0092  2.0298
 8819TIP3   OH247871   0.840   6.406   3.791 -0.0872 -0.4002 -0.0800
 8819TIP3    H147872   0.844   6.492   3.748  2.5760  0.2280  1.3169
 8819TIP3    H247873   0.787   6.423   3.870 -1.0967 -0.4925 -0.7220
 8820TIP3   OH247874   5.766   5.582   2.873  0.0538  0.3145  0.1622
 8820TIP3    H147875   5.715   5.526   2.931  0.8195 -0.8728 -0.3010
 8820TIP3    H247876   5.703   5.616   2.810 -0.2838 -0.6293 -0.0178
 8821TIP3   OH247877   3.755   0.687   3.931 -0.6864 -0.0732 -0.7651
 8821TIP3    H147878   3.802   0.610   3.964  1.0066  0.5828 -1.5834
 8821TIP3    H247879   3.663   0.667   3.946 -0.1763 -1.5771  0.5028
 8822TIP3   OH247880   5.350   4.035  14.509 -0.3753  0.3112 -0.5899
 8822TIP3    H147881   5.378   4.060  14.598  1.1061  1.5318 -1.3818
 8822TIP3    H247882   5.363   3.940  14.506  1.5064  0.5264 -0.1611
 8823TIP3   OH247883   3.747   5.070   1.537 -0.2505 -0.6207  0.5164
 8823TIP3    H147884   3.825   5.023   1.566  0.4152  0.3344  0.3026
 8823TIP3    H247885   3.698   5.088   1.617  0.5905  0.2522  0.8406
 8824TIP3   OH247886   4.384   0.894   4.586  0.0297  0.3309  0.6847
 8824TIP3    H147887   4.294   0.921   4.569  0.3630  0.7625 -0.5185
 8824TIP3    H247888   4.388   0.878   4.680 -1.4914 -0.4393  0.6210
 8825TIP3   OH247889   3.840   3.991  15.305 -0.4423 -0.0132 -0.3366
 8825TIP3    H147890   3.851   3.901  15.273  0.1140 -0.3260  0.6983
 8825TIP3    H247891   3.749   3.996  15.334 -0.3736 -0.3676 -0.0510
 8826TIP3   OH247892   5.993   5.453   2.770  0.0829 -0.7388  0.1006
 8826TIP3    H147893   6.016   5.461   2.677  1.9834  2.3600  0.7748
 8826TIP3    H247894   5.929   5.523   2.785  1.1098 -0.0837  1.5099
 8827TIP3   OH247895   6.526   6.157  14.496 -0.2007 -0.0814  0.5866
 8827TIP3    H147896   6.452   6.214  14.474 -0.5696 -1.1284 -0.9471
 8827TIP3    H247897   6.603   6.209  14.477 -0.5434  0.3990  0.5091
 8828TIP3   OH247898   4.619   2.241   4.533  0.5290  0.4860 -0.2802
 8828TIP3    H147899   4.713   2.223   4.537  0.7237  1.5503  0.2233
 8828TIP3    H247900   4.609   2.327   4.574 -0.6637  0.4025 -0.3570
 8829TIP3   OH247901   3.340   6.641   3.183  0.0708  0.6140  0.0384
 8829TIP3    H147902   3.419   6.587   3.192 -0.9173 -1.3246 -2.2995
 8829TIP3    H247903   3.365   6.711   3.124 -0.7213 -1.7716 -3.2772
 8830TIP3   OH247904   5.895   1.001   5.474  0.8941 -0.5061  0.4526
 8830TIP3    H147905   5.841   0.922   5.467  0.2225  0.0235 -0.6716
 8830TIP3    H247906   5.886   1.029   5.564 -1.0067 -0.2469  0.1994
 8831TIP3   OH247907   5.911   5.055  16.888 -0.3511  0.5700  0.3732
 8831TIP3    H147908   5.896   5.083  16.798  0.1675  0.4080  0.2367
 8831TIP3    H247909   5.924   5.136  16.937 -1.1011  0.6849  0.3894
 8832TIP3   OH247910   4.131   0.330   4.618 -0.6750  0.2658  0.0231
 8832TIP3    H147911   4.129   0.340   4.713 -1.8880 -2.8410  0.4078
 8832TIP3    H247912   4.055   0.379   4.587 -0.7134  0.6659  0.7501
 8833TIP3   OH247913   6.572   0.076   3.633  0.0562  0.0075 -0.3134
 8833TIP3    H147914   6.513   0.071   3.708  2.3091 -2.7187  1.3921
 8833TIP3    H247915   6.611   0.163   3.639 -0.8688  0.3508  0.8548
 8834TIP3   OH247916   3.868   4.240   0.449 -0.8390 -0.1089  0.5837
 8834TIP3    H147917   3.816   4.159   0.440 -0.2064 -0.6153  1.4574
 8834TIP3    H247918   3.909   4.250   0.363 -0.5681 -0.9625  0.6063
 8835TIP3   OH247919   1.594   0.184  15.291 -0.1511 -0.1425  0.0327
 8835TIP3    H147920   1.668   0.188  15.352  0.3170 -0.9911 -0.4520
 8835TIP3    H247921   1.620   0.116  15.228 -0.4926  0.9100 -1.2650
 8836TIP3   OH247922   0.420   3.460   0.451  0.0484 -0.2989  0.3664
 8836TIP3    H147923   0.502   3.468   0.500 -0.6604  1.1398  1.3371
 8836TIP3    H247924   0.448   3.440   0.362  1.4724  0.4045  0.6353
 8837TIP3   OH247925   1.722   2.969   2.428  0.7080 -0.2936  0.2034
 8837TIP3    H147926   1.813   2.996   2.442  0.8148 -0.2665 -0.5374
 8837TIP3    H247927   1.674   3.006   2.502  1.0712  0.8370 -0.1168
 8838TIP3   OH247928   0.730   5.787  15.385 -0.3139  0.1414  0.2202
 8838TIP3    H147929   0.699   5.738  15.461 -1.7642  1.7553  0.7124
 8838TIP3    H247930   0.716   5.728  15.311 -1.9608 -0.2320  0.8039
 8839TIP3   OH247931   6.035   0.429  12.401  0.5402  0.3193 -0.2480
 8839TIP3    H147932   5.989   0.346  12.418 -0.3400  0.3390 -2.4045
 8839TIP3    H247933   6.003   0.488  12.469 -0.2266 -0.5799  0.1932
 8840TIP3   OH247934   4.966   4.504  10.621 -0.0191  0.2329  0.2474
 8840TIP3    H147935   4.919   4.460  10.550 -1.0374  0.4049  0.8149
 8840TIP3    H247936   5.033   4.555  10.577 -1.1129  0.9155 -0.6448
 8841TIP3   OH247937   2.323   2.463   6.582  0.4537 -0.0511 -0.1926
 8841TIP3    H147938   2.250   2.403   6.566  1.0625 -1.0576  0.7688
 8841TIP3    H247939   2.392   2.434   6.523  0.4173  0.3148 -0.4202
 8842TIP3   OH247940   6.390   4.581  12.905  0.0135 -0.2823  0.0191
 8842TIP3    H147941   6.432   4.512  12.854  1.2025 -0.0447  0.6515
 8842TIP3    H247942   6.349   4.534  12.978 -0.0330 -0.4170 -0.0944
 8843TIP3   OH247943   0.314   1.605   2.995  0.0300 -0.7242  0.4837
 8843TIP3    H147944   0.377   1.612   3.067  0.6751  1.3952 -0.2381
 8843TIP3    H247945   0.318   1.513   2.968  2.3715 -0.7684  0.8724
 8844TIP3   OH247946   6.669   5.317   5.803 -0.1182 -0.2281  0.8537
 8844TIP3    H147947   6.605   5.325   5.874 -0.8327 -0.9476  0.3008
 8844TIP3    H247948   6.690   5.407   5.779 -1.3995  0.0074  0.6140
 8845TIP3   OH247949   3.569   0.385  11.364  0.1819  0.0955  0.3965
 8845TIP3    H147950   3.618   0.400  11.283 -0.5353 -1.9467 -0.4550
 8845TIP3    H247951   3.481   0.417  11.345  0.1401  0.0539  0.5161
 8846TIP3   OH247952   0.617   0.965   3.636  0.5760 -0.2276  0.6017
 8846TIP3    H147953   0.550   0.902   3.662 -1.3877  1.7211  0.3108
 8846TIP3    H247954   0.588   1.000   3.552  1.5070  1.2702  0.8785
 8847TIP3   OH247955   6.643   4.340   4.142 -0.2118 -0.0592 -0.1796
 8847TIP3    H147956   6.581   4.363   4.211 -0.9659  0.2489 -0.9538
 8847TIP3    H247957   6.658   4.246   4.154  0.2609  0.1324  0.8715
 8848TIP3   OH247958   4.156   0.556   1.684  0.4391 -0.0878 -0.1606
 8848TIP3    H147959   4.160   0.630   1.743 -2.0938  0.5446 -0.7289
 8848TIP3    H247960   4.069   0.518   1.698  1.0801 -1.9670 -1.0315
 8849TIP3   OH247961   2.263   6.695  13.735 -0.4020  0.3716 -0.2159
 8849TIP3    H147962   2.330   6.635  13.703  0.7939  1.3609  0.4149
 8849TIP3    H247963   2.311   6.771  13.766 -1.7244  0.6125  1.3322
 8850TIP3   OH247964   4.507   5.053  14.611  0.2481 -0.0121 -0.2998
 8850TIP3    H147965   4.597   5.044  14.640  0.5297 -0.1857 -1.2037
 8850TIP3    H247966   4.514   5.083  14.520 -0.6075  0.4463 -0.2174
 8851TIP3   OH247967   6.458   5.858  16.740 -0.0320 -0.3936  0.5325
 8851TIP3    H147968   6.437   5.765  16.728 -1.5256  0.1434 -1.3892
 8851TIP3    H247969   6.467   5.869  16.834  1.7909 -2.8252  0.6908
 8852TIP3   OH247970   6.442   2.347   4.339 -0.1779 -0.1224 -0.0537
 8852TIP3    H147971   6.533   2.320   4.324 -0.5480 -0.8784 -0.9776
 8852TIP3    H247972   6.438   2.436   4.305  0.2959  0.0308  0.2752
 8853TIP3   OH247973   2.832   6.743  11.881 -0.4346 -0.3212  0.4086
 8853TIP3    H147974   2.897   6.676  11.900 -0.6997 -0.7904 -0.3271
 8853TIP3    H247975   2.750   6.708  11.916 -0.6116 -0.4785 -0.1514
 8854TIP3   OH247976   2.252   0.098   2.198  0.0384  0.7341  0.3271
 8854TIP3    H147977   2.277   0.034   2.131  0.6946  0.5231  0.7610
 8854TIP3    H247978   2.301   0.071   2.276  0.8422  2.1534  0.3283
 8855TIP3   OH247979   6.650   2.007  16.087  0.2556  0.2819  0.1539
 8855TIP3    H147980   6.684   2.047  16.168  2.1109  0.4000 -0.6489
 8855TIP3    H247981   6.653   2.078  16.023 -1.0995  0.1553 -0.0625
 8856TIP3   OH247982   3.457   1.702   6.625 -0.0040 -0.1309 -0.5513
 8856TIP3    H147983   3.493   1.715   6.537  1.1249 -2.8638 -0.5224
 8856TIP3    H247984   3.423   1.613   6.625 -0.5870  0.0516  1.6011
 8857TIP3   OH247985   4.098   5.787   4.681 -0.1196  0.6902  0.3709
 8857TIP3    H147986   4.093   5.881   4.662  0.7076  0.7783  0.5433
 8857TIP3    H247987   4.191   5.765   4.668 -0.3556 -0.1596  0.0564
 8858TIP3   OH247988   6.089   5.930  11.664 -0.6023  0.6919  0.1128
 8858TIP3    H147989   6.005   5.976  11.670 -0.0315  1.5813  1.4602
 8858TIP3    H247990   6.115   5.939  11.573 -0.9812  2.1660  0.1399
 8859TIP3   OH247991   0.746   3.340   5.351  0.6430  1.0568 -0.4661
 8859TIP3    H147992   0.838   3.365   5.360  0.6194  1.1613 -0.5229
 8859TIP3    H247993   0.698   3.409   5.397  0.6414  0.5937  0.2458
 8860TIP3   OH247994   5.999   2.791  15.533  0.2282  0.4270 -0.2307
 8860TIP3    H147995   6.051   2.806  15.454 -1.2409 -2.0404 -1.7325
 8860TIP3    H247996   6.014   2.698  15.554 -0.9724  0.5412  1.2163
 8861TIP3   OH247997   3.725   0.653   5.345  0.0126  0.0817  0.1039
 8861TIP3    H147998   3.658   0.679   5.282 -0.0331  0.8535  0.4676
 8861TIP3    H247999   3.802   0.704   5.320  0.3810 -0.5748 -0.1241
 8862TIP3   OH248000   2.563   5.370  14.470  0.2033 -0.4363  0.2633
 8862TIP3    H148001   2.561   5.312  14.546  1.3460  0.0262  0.6690
 8862TIP3    H248002   2.645   5.348  14.425  1.2010  1.5764  1.0288
 8863TIP3   OH248003   6.004   0.117   5.213 -0.2146 -0.5239 -0.2870
 8863TIP3    H148004   5.963   0.184   5.158  1.0824 -1.3432 -2.3082
 8863TIP3    H248005   6.095   0.147   5.222 -0.2322 -0.7915  0.8090
 8864TIP3   OH248006   3.173   2.387  10.601  0.5114  0.6505 -0.2607
 8864TIP3    H148007   3.176   2.437  10.520 -0.1413  0.6371 -0.2973
 8864TIP3    H248008   3.233   2.314  10.586  0.2784  0.5622 -0.7882
 8865TIP3   OH248009   5.427   3.304   0.303 -0.1599 -0.1142  0.0568
 8865TIP3    H148010   5.428   3.315   0.208 -0.3286 -2.4694 -0.2398
 8865TIP3    H248011   5.340   3.333   0.330 -0.8638 -1.4109 -0.7752
 8866TIP3   OH248012   3.525   1.812  14.735 -0.0992 -0.4068  0.2489
 8866TIP3    H148013   3.611   1.804  14.693  0.0464  0.8828  0.2886
 8866TIP3    H248014   3.463   1.812  14.662  0.2562  3.4972 -0.1464
 8867TIP3   OH248015   5.821   2.239  15.588  0.3664 -0.2347 -0.0813
 8867TIP3    H148016   5.763   2.200  15.522 -0.9795  0.0343  0.9135
 8867TIP3    H248017   5.823   2.175  15.659 -1.6400  1.3137  1.4457
 8868TIP3   OH248018   5.982   4.072   3.259  0.1791 -0.0055 -0.7731
 8868TIP3    H148019   6.006   3.981   3.242 -1.2961 -0.6279  0.3337
 8868TIP3    H248020   5.973   4.077   3.355  0.0827  1.2653 -0.8374
 8869TIP3   OH248021   5.573   1.531   1.515  0.0766  0.1021 -0.3200
 8869TIP3    H148022   5.658   1.492   1.492 -1.1747 -2.1025 -1.3896
 8869TIP3    H248023   5.517   1.456   1.534 -1.5886  1.5525  0.5996
 8870TIP3   OH248024   2.588   0.503  14.649  0.4725 -0.1153  0.2654
 8870TIP3    H148025   2.582   0.488  14.743 -0.0063 -0.9229  0.1158
 8870TIP3    H248026   2.543   0.428  14.610  0.6522  0.2203 -0.6060
 8871TIP3   OH248027   0.033   3.143  16.146  0.9800  1.2367 -0.7475
 8871TIP3    H148028   0.015   3.229  16.108 -3.0352 -0.5270 -3.1249
 8871TIP3    H248029   0.097   3.104  16.087 -0.9269  0.7352 -2.5437
 8872TIP3   OH248030   0.673   6.331  16.054  0.7195  0.3489 -0.0979
 8872TIP3    H148031   0.714   6.403  16.101  2.0465  0.6231 -1.6077
 8872TIP3    H248032   0.741   6.264  16.049 -0.2090 -0.6555  0.5060
 8873TIP3   OH248033   4.548   4.231  12.916 -0.1157  0.2839  0.1507
 8873TIP3    H148034   4.591   4.266  12.994 -0.8977  1.9970 -0.1740
 8873TIP3    H248035   4.455   4.252  12.929 -0.2107  0.7870 -1.3474
 8874TIP3   OH248036   5.114   5.859  12.101  0.0833 -0.3584 -0.8404
 8874TIP3    H148037   5.093   5.773  12.136  0.5972 -0.4727 -0.8172
 8874TIP3    H248038   5.209   5.864  12.104  0.1352 -0.3109 -2.0558
 8875TIP3   OH248039   6.621   1.078  12.645  0.0290 -0.2197  0.0782
 8875TIP3    H148040   6.637   1.172  12.643  0.0300 -0.2385 -1.1610
 8875TIP3    H248041   6.526   1.069  12.654 -0.2046 -0.0868 -2.0721
 8876TIP3   OH248042   2.819   5.622   3.840 -0.6474 -0.4101  0.5353
 8876TIP3    H148043   2.782   5.541   3.805  0.6509 -0.3408 -1.0753
 8876TIP3    H248044   2.834   5.677   3.762 -2.1763  1.6688  1.6400
 8877TIP3   OH248045   2.288   3.800  13.080 -0.1163 -0.3466 -0.5464
 8877TIP3    H148046   2.205   3.818  13.124  0.0524 -0.2099 -0.2748
 8877TIP3    H248047   2.285   3.852  13.000  0.6028  1.3711  0.5111
 8878TIP3   OH248048   0.522   3.033   0.132  0.5143  0.1138 -0.4897
 8878TIP3    H148049   0.464   3.047   0.206  0.1663 -0.0861 -0.7231
 8878TIP3    H248050   0.464   3.018   0.057  0.8600  0.4458 -0.8315
 8879TIP3   OH248051   3.114   6.372  16.963  0.5070  0.0316  0.5962
 8879TIP3    H148052   3.189   6.423  16.994  0.7256 -0.0260  0.1781
 8879TIP3    H248053   3.127   6.368  16.868 -1.0533  1.6634  0.2784
 8880TIP3   OH248054   6.086   5.979   2.376  0.4592 -0.0234  0.0942
 8880TIP3    H148055   6.022   6.049   2.366  0.3484  0.1116  1.6269
 8880TIP3    H248056   6.155   6.017   2.431  0.4327 -1.0856  0.8868
 8881TIP3   OH248057   5.152   5.263  11.655  0.0628 -0.8038 -0.1360
 8881TIP3    H148058   5.246   5.244  11.658  0.0163 -0.9806  0.3651
 8881TIP3    H248059   5.145   5.353  11.686  0.0402 -0.9083  0.1688
 8882TIP3   OH248060   6.206   6.277   2.273  0.3831  0.1308  0.1462
 8882TIP3    H148061   6.295   6.242   2.279  0.8255  1.2778  0.5667
 8882TIP3    H248062   6.206   6.329   2.193  0.5379  1.2900  0.8756
 8883TIP3   OH248063   0.128   6.643  16.234  0.9388 -0.0944 -0.2068
 8883TIP3    H148064   0.104   6.735  16.222  0.0429 -0.1673  0.9428
 8883TIP3    H248065   0.218   6.646  16.266  0.5564  0.4386  0.8420
 8884TIP3   OH248066   2.608   6.068   4.978 -0.1871  0.7758  0.4984
 8884TIP3    H148067   2.696   6.037   5.001 -0.0924  0.3948 -0.3774
 8884TIP3    H248068   2.549   6.000   5.011  0.0141 -0.3383 -1.3437
 8885TIP3   OH248069   3.043   6.225  14.041 -0.4279 -0.7029  0.0099
 8885TIP3    H148070   3.084   6.142  14.015  0.1790 -0.7793  1.2009
 8885TIP3    H248071   2.955   6.221  14.003 -0.0522 -1.4397 -0.8100
 8886TIP3   OH248072   1.859   1.943  14.893  0.5967  0.3038 -0.6144
 8886TIP3    H148073   1.764   1.957  14.892 -0.2576 -4.3412 -0.1957
 8886TIP3    H248074   1.881   1.923  14.802  1.0711  0.7229 -0.5938
 8887TIP3   OH248075   6.627   5.177   4.905 -0.1733 -0.1136  0.7266
 8887TIP3    H148076   6.721   5.162   4.920 -0.3026  1.0008  2.8434
 8887TIP3    H248077   6.586   5.096   4.935  0.1822 -1.2298 -1.6552
 8888TIP3   OH248078   4.959   0.163  16.422  0.4331 -0.1089 -0.4448
 8888TIP3    H148079   4.866   0.182  16.437  0.1193 -1.5416 -0.4637
 8888TIP3    H248080   4.975   0.085  16.474  0.5913 -2.2637 -3.5858
 8889TIP3   OH248081   6.364   2.066   5.803  0.3399  0.0759  0.0759
 8889TIP3    H148082   6.279   2.098   5.774 -0.0436  0.0355  1.1615
 8889TIP3    H248083   6.345   2.005   5.874  1.0354 -2.7725 -2.0723
 8890TIP3   OH248084   2.913   3.311   2.522  0.3149  0.1464 -0.2869
 8890TIP3    H148085   2.958   3.304   2.438 -0.8825  2.8368 -1.1940
 8890TIP3    H248086   2.882   3.222   2.539  2.2890 -0.8723 -1.6674
 8891TIP3   OH248087   2.901   3.893   1.868  0.5322  0.1472  0.2660
 8891TIP3    H148088   2.862   3.948   1.800 -1.0020 -0.8027  0.3586
 8891TIP3    H248089   2.995   3.902   1.855  0.3112  2.7647  0.2528
 8892TIP3   OH248090   2.909   3.546  13.301 -0.3208 -0.5601  0.5347
 8892TIP3    H148091   2.839   3.506  13.250 -0.8356 -1.0730  1.6328
 8892TIP3    H248092   2.882   3.536  13.392  0.5253  0.4528  0.9189
 8893TIP3   OH248093   3.152   5.602  11.675 -0.2167  0.1638 -0.3901
 8893TIP3    H148094   3.093   5.674  11.652 -0.8944 -0.8788 -2.0374
 8893TIP3    H248095   3.239   5.641  11.673 -0.5349  0.8369 -1.7143
 8894TIP3   OH248096   3.695   6.199   2.618 -0.4091  0.1306 -0.1695
 8894TIP3    H148097   3.777   6.225   2.577  0.1018  0.8185  1.2510
 8894TIP3    H248098   3.630   6.260   2.584 -0.6253 -1.2388 -2.3255
 8895TIP3   OH248099   3.335   0.588  16.566 -0.0399 -0.3459 -0.4191
 8895TIP3    H148100   3.351   0.596  16.472 -0.6424  1.9778 -0.3511
 8895TIP3    H248101   3.254   0.636  16.582 -1.4386 -3.0401  0.8968
 8896TIP3   OH248102   6.592   4.815   0.865 -0.6606  0.2700  0.1912
 8896TIP3    H148103   6.656   4.760   0.910  0.2467  0.7883 -0.4472
 8896TIP3    H248104   6.528   4.753   0.829 -0.4691 -0.2557  0.7465
 8897TIP3   OH248105   0.409   0.628   6.042 -0.6440 -0.3564  0.2474
 8897TIP3    H148106   0.348   0.593   6.108  0.0882  0.8324  1.5890
 8897TIP3    H248107   0.422   0.719   6.068 -0.8138  0.3108 -1.9270
 8898TIP3   OH248108   3.584   2.480   0.586  0.6472 -0.2310 -0.4793
 8898TIP3    H148109   3.664   2.469   0.535 -0.2262  0.6385 -2.0381
 8898TIP3    H248110   3.579   2.574   0.604 -0.1579 -0.2522 -0.5961
 8899TIP3   OH248111   0.834   0.914  12.429 -0.5262  0.4290 -0.6329
 8899TIP3    H148112   0.860   0.868  12.349 -1.1169  0.4349 -0.8264
 8899TIP3    H248113   0.739   0.919  12.425 -0.7463 -1.4681  1.1037
 8900TIP3   OH248114   3.131   0.705  11.147 -0.0851 -0.4824  0.4170
 8900TIP3    H148115   3.042   0.737  11.161 -0.2091 -0.2938 -0.6931
 8900TIP3    H248116   3.131   0.675  11.055  0.5250 -2.0193  0.8996
 8901TIP3   OH248117   4.021   6.524   3.671  0.3348 -0.3667 -0.3232
 8901TIP3    H148118   3.980   6.440   3.692  0.1826 -0.2002  0.0508
 8901TIP3    H248119   4.034   6.566   3.756 -0.0531  0.2043 -0.5478
 8902TIP3   OH248120   4.686   1.577   2.054 -0.2880  0.2049  0.3281
 8902TIP3    H148121   4.699   1.512   1.985 -1.1966 -0.2432  0.5772
 8902TIP3    H248122   4.631   1.534   2.119 -2.2265  1.7078 -0.2419
 8903TIP3   OH248123   6.517   6.674   5.241 -0.0361 -0.0136  0.6065
 8903TIP3    H148124   6.558   6.613   5.302  0.5130  0.1046  0.3572
 8903TIP3    H248125   6.423   6.653   5.246  0.1693 -1.0214  0.3629
 8904TIP3   OH248126   2.125   2.956  11.940  0.1033 -0.1352  0.2385
 8904TIP3    H148127   2.096   2.977  11.851  2.2054  1.2421 -0.1706
 8904TIP3    H248128   2.089   3.027  11.994  1.3771  0.7469 -0.0347
 8905TIP3   OH248129   0.533   3.177   1.472  0.3078 -0.0957 -0.5382
 8905TIP3    H148130   0.460   3.196   1.531  0.1990 -0.4169 -0.5686
 8905TIP3    H248131   0.496   3.186   1.384  0.5011  0.5020 -0.5551
 8906TIP3   OH248132   2.189   0.574  12.506 -0.1097  0.0455  0.2032
 8906TIP3    H148133   2.209   0.565  12.599 -1.3189  2.0078  0.6749
 8906TIP3    H248134   2.094   0.584  12.502 -0.1621 -0.9133 -1.3199
 8907TIP3   OH248135   2.171   6.423   2.945  0.0007  0.7965 -0.3705
 8907TIP3    H148136   2.165   6.390   3.035 -1.5026  1.5290 -0.1877
 8907TIP3    H248137   2.140   6.513   2.950 -0.2532  0.7965 -1.6556
 8908TIP3   OH248138   4.211   4.347   2.772 -0.4229  0.7492  0.2956
 8908TIP3    H148139   4.192   4.257   2.798  1.0414  1.0635  2.6179
 8908TIP3    H248140   4.146   4.400   2.817 -1.7261  0.8265 -1.6269
 8909TIP3   OH248141   3.369   5.734  12.548  0.2247  0.0324 -0.5220
 8909TIP3    H148142   3.335   5.652  12.513 -1.3750  1.0056 -1.2696
 8909TIP3    H248143   3.296   5.774  12.594  0.5776  1.7212 -1.3849
 8910TIP3   OH248144   0.013   0.327  16.068  0.1306 -0.1215  0.1528
 8910TIP3    H148145  -0.002   0.332  15.974  1.4123 -1.1188 -0.1221
 8910TIP3    H248146   0.014   0.418  16.097 -0.8311  0.1638 -0.7037
 8911TIP3   OH248147   5.487   0.281  11.877 -0.2404 -0.3488  0.1332
 8911TIP3    H148148   5.475   0.373  11.852  1.3929 -0.4804 -1.2140
 8911TIP3    H248149   5.417   0.264  11.940 -1.1622  1.5372 -0.3499
 8912TIP3   OH248150   4.774   4.369   6.552  0.1274  0.3547  0.5969
 8912TIP3    H148151   4.746   4.278   6.566  0.3574  0.2497  0.3598
 8912TIP3    H248152   4.866   4.363   6.528 -0.6422  0.4233 -2.5063
 8913TIP3   OH248153   0.125   5.067  14.173  0.3986  0.5787  0.2310
 8913TIP3    H148154   0.112   4.981  14.133 -0.9314  1.0121 -0.2817
 8913TIP3    H248155   0.220   5.077  14.176  0.5481  0.1491 -1.9809
 8914TIP3   OH248156   5.864   5.798  15.338 -0.0089  0.3759 -0.5777
 8914TIP3    H148157   5.867   5.894  15.331 -1.6589  0.4191 -0.8812
 8914TIP3    H248158   5.771   5.778  15.349  0.2360 -1.2675 -1.4454
 8915TIP3   OH248159   1.312   0.746  14.564  0.0257  0.0489 -0.0094
 8915TIP3    H148160   1.400   0.709  14.555  0.7184  1.8673 -1.1157
 8915TIP3    H248161   1.254   0.677  14.530  1.3129  0.1039 -2.4985
 8916TIP3   OH248162   1.128   6.594  13.472  0.6210  0.0877  0.5482
 8916TIP3    H148163   1.065   6.652  13.515  0.8522  0.2115  0.7209
 8916TIP3    H248164   1.083   6.510  13.467 -1.2426  1.1724 -3.1990
 8917TIP3   OH248165   4.809   5.153   5.169 -0.0750  0.4200  0.3057
 8917TIP3    H148166   4.732   5.151   5.227 -1.0431 -1.1258 -0.9853
 8917TIP3    H248167   4.874   5.203   5.218 -1.6402  1.1086  1.7612
 8918TIP3   OH248168   0.509   6.325  11.015 -0.5471  0.3907 -0.0531
 8918TIP3    H148169   0.422   6.288  11.000  0.7543 -1.8779 -2.5865
 8918TIP3    H248170   0.516   6.397  10.951 -1.4601  2.2431  1.8864
 8919TIP3   OH248171   1.087   2.597  15.596  0.3642  0.7268 -0.0962
 8919TIP3    H148172   1.024   2.669  15.594 -1.5711 -0.9046  0.5746
 8919TIP3    H248173   1.112   2.584  15.505 -1.9376 -0.0005 -0.6689
 8920TIP3   OH248174   2.397   0.127  11.670  0.1259  0.0035 -0.4457
 8920TIP3    H148175   2.321   0.071  11.652  0.3528  0.0436 -1.6115
 8920TIP3    H248176   2.393   0.194  11.602 -0.1000  1.3804  0.8957
 8921TIP3   OH248177   6.107   6.224   1.626 -0.0409 -0.2547 -0.2024
 8921TIP3    H148178   6.043   6.200   1.560 -2.8812 -1.1300  2.7345
 8921TIP3    H248179   6.059   6.281   1.686  2.5671  0.8830  0.8813
 8922TIP3   OH248180   6.099   3.081   3.747  0.7413 -0.0458 -0.0532
 8922TIP3    H148181   6.047   3.146   3.700 -0.1951 -0.1463  0.8191
 8922TIP3    H248182   6.185   3.121   3.756  1.0991 -0.2382 -2.2771
 8923TIP3   OH248183   0.213   2.191   4.513  0.3537  0.4123  0.4179
 8923TIP3    H148184   0.275   2.132   4.557  0.4552  0.6380  0.5791
 8923TIP3    H248185   0.133   2.139   4.505 -0.5492  1.2210  3.3227
 8924TIP3   OH248186   3.658   3.698   2.154  0.2475  0.4884 -0.1732
 8924TIP3    H148187   3.621   3.614   2.181  0.5398  0.6575  0.7718
 8924TIP3    H248188   3.749   3.678   2.133  0.5133  0.7142  0.7778
 8925TIP3   OH248189   4.120   4.995  14.563 -0.2338 -0.4247 -0.0006
 8925TIP3    H148190   4.067   4.919  14.587  1.7045 -1.9610 -0.4155
 8925TIP3    H248191   4.182   4.961  14.498  1.3527  1.2597  0.5847
 8926TIP3   OH248192   1.238   0.760  12.002  0.1788  0.4105 -0.3507
 8926TIP3    H148193   1.265   0.668  12.006 -0.0470  0.3755  0.5743
 8926TIP3    H248194   1.253   0.786  11.911  1.5913 -0.1294 -0.2792
 8927TIP3   OH248195   2.882   2.192  11.403 -0.0692  0.1316  0.5191
 8927TIP3    H148196   2.898   2.264  11.464 -0.3637  0.0695  0.6716
 8927TIP3    H248197   2.835   2.233  11.330  1.4302  0.4643 -0.2855
 8928TIP3   OH248198   4.320   5.833  14.704  0.5125  0.0788  0.3097
 8928TIP3    H148199   4.381   5.767  14.672  1.6156  0.7586  0.9655
 8928TIP3    H248200   4.358   5.916  14.677 -0.4996  0.4801  0.1010
 8929TIP3   OH248201   5.693   5.499  14.042  0.2653 -0.1877  0.7258
 8929TIP3    H148202   5.598   5.496  14.027  0.2267 -0.2218  0.9781
 8929TIP3    H248203   5.706   5.453  14.124  0.6550 -1.4187 -0.0107
 8930TIP3   OH248204   2.981   6.107   1.284 -0.3460 -0.6688  1.1183
 8930TIP3    H148205   3.043   6.150   1.343 -0.0274  1.6984 -0.8509
 8930TIP3    H248206   2.910   6.079   1.341  1.3701 -1.2435  3.0584
 8931TIP3   OH248207   2.093   5.718  12.749  0.2710  0.0624  0.3337
 8931TIP3    H148208   2.109   5.758  12.664 -0.5602  0.6923  0.4716
 8931TIP3    H248209   2.002   5.689  12.745  0.1044  0.4670  1.1547
 8932TIP3   OH248210   4.507   3.732  13.983 -0.0402  0.6548  0.1425
 8932TIP3    H148211   4.420   3.731  14.024  0.3445 -0.9506  0.9587
 8932TIP3    H248212   4.549   3.809  14.021 -0.6457  0.7029  0.7412
 8933TIP3   OH248213   3.042   6.288  15.416 -0.0354 -0.4557  0.0971
 8933TIP3    H148214   3.073   6.269  15.504  1.1673  0.3253 -0.1325
 8933TIP3    H248215   2.972   6.225  15.400 -0.6771 -0.1995  1.8270
 8934TIP3   OH248216   4.914   5.226  13.387 -0.3971  0.0743 -0.4471
 8934TIP3    H148217   4.847   5.243  13.322 -0.2976  0.4851 -0.4400
 8934TIP3    H248218   4.942   5.312  13.417 -1.5947 -0.1172  1.3166
 8935TIP3   OH248219   2.978   0.569  16.361  0.0432  0.3719 -0.8408
 8935TIP3    H148220   2.895   0.589  16.403  0.9815  0.2277  1.1444
 8935TIP3    H248221   3.043   0.621  16.409  0.9697  1.2755 -3.0242
 8936TIP3   OH248222   6.568   4.227   5.689 -0.1346  0.2691 -0.7728
 8936TIP3    H148223   6.619   4.175   5.627 -0.1631  0.1100 -0.6629
 8936TIP3    H248224   6.587   4.188   5.774  0.1276  0.6699 -0.6490
 8937TIP3   OH248225   3.746   1.290   1.578 -0.0279  0.1844  0.3252
 8937TIP3    H148226   3.662   1.245   1.565  0.8103 -1.6933  1.2467
 8937TIP3    H248227   3.743   1.363   1.516 -1.8454 -0.5475 -0.5041
 8938TIP3   OH248228   1.417   2.822  15.500  0.5627  0.1819  0.3061
 8938TIP3    H148229   1.370   2.895  15.460  0.5186  1.7745  3.1233
 8938TIP3    H248230   1.508   2.851  15.501  0.8339 -0.6385 -0.3191
 8939TIP3   OH248231   2.547   0.647   1.114  0.3499 -0.0723 -0.2396
 8939TIP3    H148232   2.468   0.593   1.118 -0.5923  1.4259  1.8231
 8939TIP3    H248233   2.606   0.608   1.177  1.0906 -0.8754 -1.4062
 8940TIP3   OH248234   5.725   0.800  16.789  0.0748 -0.0612  0.3375
 8940TIP3    H148235   5.686   0.877  16.746 -1.8972  0.7169  3.3365
 8940TIP3    H248236   5.756   0.746  16.717 -0.8655  2.3210 -1.9685
 8941TIP3   OH248237   2.637   6.274  16.516  0.2014 -0.2021  0.1592
 8941TIP3    H148238   2.677   6.191  16.539  0.9439  0.5425  1.6130
 8941TIP3    H248239   2.580   6.295  16.590 -0.5838  0.1992 -0.5514
 8942TIP3   OH248240   5.383   4.080   2.141  0.3160  0.3793 -0.1677
 8942TIP3    H148241   5.420   4.139   2.207 -0.6098  0.5332  0.2225
 8942TIP3    H248242   5.425   3.996   2.158  0.1352  0.4365  0.5839
 8943TIP3   OH248243   2.423   0.640   5.581  0.1504  0.3128 -0.2368
 8943TIP3    H148244   2.380   0.642   5.667 -0.5977 -1.4168 -0.5543
 8943TIP3    H248245   2.353   0.660   5.519  0.3426 -0.0879 -0.5793
 8944TIP3   OH248246   5.318   6.287  13.237 -0.4213 -0.4415 -0.3466
 8944TIP3    H148247   5.244   6.330  13.280 -0.4360 -1.0792  0.2775
 8944TIP3    H248248   5.394   6.313  13.289 -0.6043 -2.2891  0.8996
 8945TIP3   OH248249   3.129   1.187  12.900  0.1068 -0.0001  0.4030
 8945TIP3    H148250   3.173   1.148  12.976  1.1094 -1.5811 -0.9400
 8945TIP3    H248251   3.038   1.197  12.927  0.8418  1.2874  2.4745
 8946TIP3   OH248252   3.272   1.779   1.528 -0.4680 -0.2535  0.7683
 8946TIP3    H148253   3.265   1.684   1.534 -0.8700 -0.3098 -0.3083
 8946TIP3    H248254   3.326   1.805   1.602  2.0171 -1.6022 -0.5251
 8947TIP3   OH248255   2.196   0.857  13.923 -0.2272 -0.1619 -0.3976
 8947TIP3    H148256   2.288   0.844  13.948 -0.1243 -1.0113 -1.1871
 8947TIP3    H248257   2.152   0.881  14.005  0.4553 -1.0273  0.2312
 8948TIP3   OH248258   2.254   6.123   1.440 -0.5585 -0.1379  0.5247
 8948TIP3    H148259   2.279   6.191   1.377 -1.1804 -1.6627 -1.4589
 8948TIP3    H248260   2.328   6.116   1.499  0.0115  1.4278  0.0063
 8949TIP3   OH248261   0.371   2.720   3.183  0.3888  0.3204 -0.7486
 8949TIP3    H148262   0.359   2.774   3.262 -1.4066  0.5574 -1.1566
 8949TIP3    H248263   0.377   2.630   3.216 -1.0773  0.3430 -0.3653
 8950TIP3   OH248264   1.073   4.298  13.337  0.3268 -0.0955  0.7014
 8950TIP3    H148265   1.000   4.330  13.283  0.2710  0.1790  0.9400
 8950TIP3    H248266   1.053   4.205  13.350  1.2558 -0.6108 -1.2603
 8951TIP3   OH248267   1.859   5.506   2.723 -0.1831 -0.2055 -0.2212
 8951TIP3    H148268   1.948   5.489   2.694 -0.7838 -0.9052 -1.7123
 8951TIP3    H248269   1.824   5.569   2.659 -0.9911 -0.5050 -0.0870
 8952TIP3   OH248270   4.087   5.434   3.462  0.8304  0.2355  0.0942
 8952TIP3    H148271   3.999   5.455   3.492  0.9514 -0.6594  1.0971
 8952TIP3    H248272   4.107   5.503   3.398 -0.9943 -0.1625 -0.9435
 8953TIP3   OH248273   2.195   0.127  10.451 -0.5195  0.4120 -0.6204
 8953TIP3    H148274   2.160   0.068  10.518  0.5823  1.3747  0.8164
 8953TIP3    H248275   2.120   0.148  10.396 -1.7085  0.5609  1.0316
 8954TIP3   OH248276   3.529   4.360  11.866 -0.6038  0.0822  0.1096
 8954TIP3    H148277   3.496   4.421  11.800 -1.3724  0.6308  1.0010
 8954TIP3    H248278   3.547   4.414  11.943  1.0088 -0.4429  0.1163
 8955TIP3   OH248279   0.289   4.775  11.567  0.4274  0.5194 -0.3396
 8955TIP3    H148280   0.375   4.802  11.599 -0.3267  0.3513  1.8940
 8955TIP3    H248281   0.253   4.854  11.527  0.8908  1.0873  0.3463
 8956TIP3   OH248282   3.039   6.645  15.516 -0.1245 -0.0121 -0.0900
 8956TIP3    H148283   3.034   6.561  15.563  3.3721  0.6355  1.6506
 8956TIP3    H248284   3.019   6.711  15.583  0.5214  0.7059 -0.5938
 8957TIP3   OH248285   0.156   0.398  14.792  0.2413  0.6840  0.1224
 8957TIP3    H148286   0.206   0.428  14.716  0.8373  0.5672  0.4614
 8957TIP3    H248287   0.103   0.325  14.759 -1.2287  2.0958 -0.7093
 8958TIP3   OH248288   3.653   4.185  16.596  0.2461 -0.0944  0.2285
 8958TIP3    H148289   3.738   4.190  16.640  0.5194 -0.3987 -0.2577
 8958TIP3    H248290   3.621   4.275  16.595  1.6542  0.4260 -1.6648
 8959TIP3   OH248291   1.357   1.492  11.281  0.3821 -0.0249  0.1790
 8959TIP3    H148292   1.429   1.511  11.221 -0.5065  1.0115 -0.5745
 8959TIP3    H248293   1.394   1.507  11.368  0.4965  2.5296 -0.2832
 8960TIP3   OH248294   3.424   5.344   2.519 -0.0948 -0.0708 -0.1407
 8960TIP3    H148295   3.393   5.290   2.446 -1.1007 -0.5493  0.6321
 8960TIP3    H248296   3.372   5.315   2.594  1.5044 -0.1709  0.9523
 8961TIP3   OH248297   3.810   6.380   3.461 -0.3976  0.3719 -0.3478
 8961TIP3    H148298   3.778   6.462   3.498 -0.1815  0.2427  0.1265
 8961TIP3    H248299   3.733   6.342   3.419 -0.4818  0.8488 -0.6284
 8962TIP3   OH248300   1.664   2.134  11.751 -0.5399  0.2951  0.1093
 8962TIP3    H148301   1.608   2.078  11.805  0.4405 -0.7092  0.1046
 8962TIP3    H248302   1.618   2.139  11.667  0.1070 -1.8245 -0.4176
 8963TIP3   OH248303   5.341   5.473   3.577 -0.0629 -0.4537 -0.0176
 8963TIP3    H148304   5.284   5.547   3.599 -0.0285  0.0464 -1.5713
 8963TIP3    H248305   5.281   5.407   3.541  0.2223 -0.2690 -0.8287
 8964TIP3   OH248306   0.610   4.138  16.501  0.0836  0.0786 -0.3150
 8964TIP3    H148307   0.562   4.081  16.441  1.0729 -0.8783 -0.2270
 8964TIP3    H248308   0.570   4.121  16.587 -0.4601  0.4558 -0.4953
 8965TIP3   OH248309   1.068   1.904   2.793 -0.2980  0.1487 -0.4090
 8965TIP3    H148310   1.000   1.840   2.772 -0.4815  0.3419 -0.4011
 8965TIP3    H248311   1.020   1.982   2.821 -0.1285  0.9656 -2.3000
 8966TIP3   OH248312   5.194   4.216   5.507  0.7770 -0.1931  0.1475
 8966TIP3    H148313   5.176   4.124   5.485 -1.9752  0.0518  1.1691
 8966TIP3    H248314   5.210   4.215   5.601  4.0326 -0.0362 -0.3453
 8967TIP3   OH248315   3.861   0.271   1.231  0.3031  0.0536  0.3314
 8967TIP3    H148316   3.904   0.207   1.174  0.3343  0.2577  0.1253
 8967TIP3    H248317   3.779   0.229   1.256  0.7920 -0.4928  1.0272
 8968TIP3   OH248318   2.099   5.643  11.700  0.7377  0.1578  0.5084
 8968TIP3    H148319   2.147   5.673  11.622  0.9525 -3.3013 -0.7904
 8968TIP3    H248320   2.071   5.554  11.678 -0.8181 -0.2125  3.7111
 8969TIP3   OH248321   5.921   4.025   4.083  1.0180 -0.1330 -0.2485
 8969TIP3    H148322   5.905   3.941   4.127  1.9006 -0.2479 -0.1464
 8969TIP3    H248323   5.979   4.002   4.010  2.0672  0.5567  0.3727
 8970TIP3   OH248324   1.533   5.311   3.844 -0.5346 -0.6142  0.8194
 8970TIP3    H148325   1.452   5.266   3.866 -1.3397  0.2964 -0.2079
 8970TIP3    H248326   1.602   5.255   3.878 -1.3790 -3.9473 -2.5985
 8971TIP3   OH248327   1.367   0.697   0.768  0.6106 -0.1101 -0.2233
 8971TIP3    H148328   1.395   0.779   0.809  1.0891 -0.4189  0.0676
 8971TIP3    H248329   1.272   0.705   0.760  0.6780  0.5455 -0.3534
 8972TIP3   OH248330   1.888   3.158  15.493  0.0877  0.6301  0.4137
 8972TIP3    H148331   1.975   3.191  15.473  0.2202  0.2099  0.2952
 8972TIP3    H248332   1.831   3.234  15.485  0.7331  1.3796  2.5430
 8973TIP3   OH248333   4.834   5.268  15.582 -0.1763 -0.1278 -0.3241
 8973TIP3    H148334   4.828   5.326  15.506  1.9379 -0.1744 -0.5653
 8973TIP3    H248335   4.801   5.320  15.655  0.7206  1.0416 -0.7261
 8974TIP3   OH248336   1.480   1.486   1.106 -0.6527 -0.6222  0.3314
 8974TIP3    H148337   1.439   1.558   1.058  0.5074  0.5590  1.0625
 8974TIP3    H248338   1.573   1.510   1.111 -0.5770 -1.1866  2.2883
 8975TIP3   OH248339   4.124   2.036   4.244  0.3161  0.0758  0.4337
 8975TIP3    H148340   4.061   2.109   4.249  0.5457  0.3899 -1.0034
 8975TIP3    H248341   4.158   2.040   4.155  0.9421 -1.3053  0.6011
 8976TIP3   OH248342   3.973   0.865  11.720  0.6310 -0.0070  0.4725
 8976TIP3    H148343   3.947   0.775  11.738 -0.4983 -0.0023 -1.0713
 8976TIP3    H248344   4.045   0.857  11.657  0.8782  0.1584  0.7304
 8977TIP3   OH248345   5.979   2.156  14.528  0.3407 -0.3084 -0.0100
 8977TIP3    H148346   6.040   2.206  14.582  1.0920 -1.8376  0.5715
 8977TIP3    H248347   5.973   2.206  14.446  1.7848  0.2480  0.2092
 8978TIP3   OH248348   5.497   3.828  16.746 -0.3716 -0.2847 -0.4861
 8978TIP3    H148349   5.405   3.801  16.743 -0.4459  0.0370 -1.1055
 8978TIP3    H248350   5.502   3.904  16.687  0.5576 -1.0940 -1.4597
 8979TIP3   OH248351   6.327   0.585   1.762  0.1944  0.8757 -0.4029
 8979TIP3    H148352   6.290   0.509   1.717 -0.4342 -0.7540  2.6630
 8979TIP3    H248353   6.285   0.661   1.721 -2.9578 -0.7044 -0.2226
 8980TIP3   OH248354   0.443   1.460   2.722 -0.4130 -0.5505 -0.2514
 8980TIP3    H148355   0.516   1.423   2.772 -0.1923 -0.6721 -0.6593
 8980TIP3    H248356   0.365   1.435   2.772 -0.1135  0.4829  0.7498
 8981TIP3   OH248357   1.335   3.742  14.748 -0.3800 -0.2587  0.3683
 8981TIP3    H148358   1.409   3.754  14.689  0.2637 -0.0946  1.1871
 8981TIP3    H248359   1.299   3.830  14.760 -2.3177 -0.6773 -2.0409
 8982TIP3   OH248360   5.347   3.397  12.226 -0.1909  0.1210 -0.0946
 8982TIP3    H148361   5.312   3.421  12.140  0.0578 -1.6939 -0.7067
 8982TIP3    H248362   5.272   3.364  12.274 -0.0660 -0.1218 -0.0685
 8983TIP3   OH248363   0.084   5.838   6.270 -0.2290 -0.1547  0.6925
 8983TIP3    H148364   0.153   5.845   6.204  0.8191 -1.3218  1.6301
 8983TIP3    H248365   0.006   5.813   6.221  0.8961 -2.5504  0.0410
 8984TIP3   OH248366   0.872   4.282  16.931  0.1171  0.2701  0.2399
 8984TIP3    H148367   0.868   4.329  16.848 -0.7502  0.1531  0.2166
 8984TIP3    H248368   0.912   4.198  16.909 -0.3543  0.1352 -0.0993
 8985TIP3   OH248369   3.499   6.198  14.873 -0.5565  0.0016  0.4136
 8985TIP3    H148370   3.551   6.266  14.831 -0.2765 -0.1814  0.4673
 8985TIP3    H248371   3.465   6.146  14.800  0.4691 -0.7141  0.4334
 8986TIP3   OH248372   6.045   2.247   0.327  0.5827  0.3341 -0.4247
 8986TIP3    H148373   5.983   2.187   0.286  0.4115 -0.2055  0.6139
 8986TIP3    H248374   6.117   2.254   0.264  0.4864 -0.7512 -0.6596
 8987TIP3   OH248375   0.081   0.286   0.238 -0.1366 -0.6776 -0.3033
 8987TIP3    H148376   0.125   0.352   0.185  2.0262 -3.0945 -1.6118
 8987TIP3    H248377  -0.010   0.287   0.207  0.1857  0.7346 -1.2334
 8988TIP3   OH248378   3.602   6.757  10.833 -0.0774 -0.1264  0.0110
 8988TIP3    H148379   3.647   6.693  10.779 -0.1782  0.5364 -0.8761
 8988TIP3    H248380   3.572   6.708  10.910  1.0703 -0.8300  0.0223
 8989TIP3   OH248381   5.789   5.013   3.649  0.1562  0.1472 -0.5450
 8989TIP3    H148382   5.835   4.933   3.674 -0.0730  0.2682  0.3006
 8989TIP3    H248383   5.754   4.995   3.562 -0.2885 -0.8376 -0.1715
 8990TIP3   OH248384   6.617   5.208  14.821 -0.2044 -0.3369  0.5652
 8990TIP3    H148385   6.532   5.234  14.858 -0.4310  0.4850 -0.4929
 8990TIP3    H248386   6.620   5.253  14.736  1.6020  0.2229  0.9125
 8991TIP3   OH248387   3.924   3.977  14.376 -0.0960 -0.0324  0.2991
 8991TIP3    H148388   3.856   3.965  14.442 -0.9239 -3.9407 -1.1648
 8991TIP3    H248389   4.006   3.969  14.424 -0.6569  0.0654  1.2943
 8992TIP3   OH248390   6.325   3.296  14.867 -0.2557 -0.3739 -0.0477
 8992TIP3    H148391   6.385   3.353  14.917 -2.7657  0.8229  1.7104
 8992TIP3    H248392   6.270   3.356  14.818 -1.1297 -1.3956 -0.3346
 8993TIP3   OH248393   4.096   1.313  11.856 -0.1625  0.5750 -0.4670
 8993TIP3    H148394   4.190   1.327  11.871 -0.5442  1.0998  1.5096
 8993TIP3    H248395   4.066   1.268  11.935 -1.3867 -0.4909 -1.5282
 8994TIP3   OH248396   2.806   2.512   6.521  0.3118 -0.0795 -0.5493
 8994TIP3    H148397   2.728   2.480   6.476 -0.6284  0.7933  0.4331
 8994TIP3    H248398   2.790   2.606   6.533  1.2312 -0.0143  0.2211
 8995TIP3   OH248399   3.623   5.509   4.383 -0.0156 -0.2632  0.7291
 8995TIP3    H148400   3.636   5.591   4.334 -0.1303  0.8442  2.4969
 8995TIP3    H248401   3.712   5.480   4.404 -0.0015  0.0957  1.1840
 8996TIP3   OH248402   1.699   3.706  11.569 -0.0177 -0.1901 -0.6355
 8996TIP3    H148403   1.698   3.728  11.662 -1.7480 -1.7179 -0.2627
 8996TIP3    H248404   1.621   3.749  11.534  1.6333  1.9529 -1.7979
 8997TIP3   OH248405   0.362   3.974  13.589 -0.1887 -0.2681 -0.0266
 8997TIP3    H148406   0.440   3.932  13.623 -0.1629  0.4324  0.8074
 8997TIP3    H248407   0.358   3.948  13.497  0.5893 -0.9335  0.1278
 8998TIP3   OH248408   0.724   0.069  11.885  0.3631 -0.3322  0.2554
 8998TIP3    H148409   0.712   0.001  11.819 -1.8015 -0.5266  0.8300
 8998TIP3    H248410   0.802   0.042  11.934 -0.1295 -2.0589  0.1000
 8999TIP3   OH248411   5.906   5.738   0.958 -0.0062  0.0053 -0.3024
 8999TIP3    H148412   5.948   5.681   0.894 -0.4050  0.1134 -0.6565
 8999TIP3    H248413   5.907   5.687   1.039  0.7737 -0.0083 -0.3153
 9000TIP3   OH248414   3.980   2.059  12.710  0.5745 -0.4588  0.0498
 9000TIP3    H148415   3.897   2.065  12.758  0.7312  1.0598  0.1471
 9000TIP3    H248416   3.977   1.973  12.668 -0.6414 -0.7985  0.8103
 9001TIP3   OH248417   5.748   2.719   0.460  0.0113 -0.1654 -0.1354
 9001TIP3    H148418   5.679   2.710   0.526 -0.2690 -1.6780 -0.6206
 9001TIP3    H248419   5.764   2.630   0.429  0.3343  0.4951 -1.9197
 9002TIP3   OH248420   5.667   0.238  13.774 -0.1710  0.1385  0.3482
 9002TIP3    H148421   5.631   0.153  13.748  0.3623 -0.4441  1.4799
 9002TIP3    H248422   5.624   0.301  13.715  0.5799 -1.0578 -1.5212
 9003TIP3   OH248423   0.300   6.433   0.898  0.1549 -0.4418 -0.5248
 9003TIP3    H148424   0.347   6.501   0.850  0.0555  3.1462  4.0831
 9003TIP3    H248425   0.212   6.432   0.858  0.5909  1.1558 -1.5674
 9004TIP3   OH248426   3.687   3.517   6.126  0.4718  0.2745 -0.6968
 9004TIP3    H148427   3.728   3.577   6.064  0.2321  1.9464  0.7333
 9004TIP3    H248428   3.712   3.551   6.212 -0.0317 -1.4265  0.1464
 9005TIP3   OH248429   3.788   1.629   4.410 -0.7456  0.0356 -0.0208
 9005TIP3    H148430   3.873   1.587   4.398 -0.9187  0.3145 -2.3993
 9005TIP3    H248431   3.790   1.705   4.351 -2.1370  0.8277  0.9189
 9006TIP3   OH248432   4.234   3.932   1.407  0.3609 -0.0820 -0.5499
 9006TIP3    H148433   4.306   3.989   1.433  0.0779 -0.5545  1.3553
 9006TIP3    H248434   4.267   3.844   1.421 -0.5420 -0.3036  0.2212
 9007TIP3   OH248435   1.698   5.059  14.692  0.4273 -0.0086 -0.6600
 9007TIP3    H148436   1.691   4.976  14.646  1.5188 -0.6642  0.3282
 9007TIP3    H248437   1.792   5.072  14.705  0.2374  1.0912 -0.2875
 9008TIP3   OH248438   3.932   6.311   0.251 -0.0483 -0.4444  0.0329
 9008TIP3    H148439   3.910   6.217   0.252 -1.2398 -0.2122 -2.5209
 9008TIP3    H248440   3.877   6.349   0.319 -0.7226 -1.3469 -0.0043
 9009TIP3   OH248441   1.295   6.083   2.108  0.5373 -0.0829 -0.4657
 9009TIP3    H148442   1.222   6.055   2.164  0.1929 -0.0265 -0.8790
 9009TIP3    H248443   1.294   6.179   2.113  0.0940 -0.0516 -1.0785
 9010TIP3   OH248444   2.507   3.228   1.397  0.3184  0.6921 -0.0739
 9010TIP3    H148445   2.529   3.319   1.416 -0.2385  1.0580 -1.1374
 9010TIP3    H248446   2.546   3.212   1.311 -1.3135  0.5627 -0.8161
 9011TIP3   OH248447   5.515   4.120  17.198  0.0761 -0.0316  0.1526
 9011TIP3    H148448   5.436   4.139  17.248 -0.4715 -0.4732 -0.5383
 9011TIP3    H248449   5.483   4.089  17.113  0.9731  1.6893 -0.8579
 9012TIP3   OH248450   2.797   5.384  11.397  0.2794 -0.5495  0.3124
 9012TIP3    H148451   2.822   5.401  11.488  1.1809  0.9095 -0.1890
 9012TIP3    H248452   2.851   5.444  11.346 -2.4489  0.8818 -0.9955
 9013TIP3   OH248453   2.717   6.473  12.301 -0.1369 -0.0468  0.1988
 9013TIP3    H148454   2.721   6.479  12.397 -0.9178  0.5192  0.2035
 9013TIP3    H248455   2.646   6.533  12.276  1.3878  1.3480 -0.8882
 9014TIP3   OH248456   1.789   6.640   2.072  0.0142  0.4405 -0.0481
 9014TIP3    H148457   1.804   6.655   2.165  1.4274  0.0871 -0.2068
 9014TIP3    H248458   1.830   6.556   2.055 -0.4312  0.4029 -0.9529
 9015TIP3   OH248459   3.826   0.742  13.273 -0.0316  0.5754 -0.0686
 9015TIP3    H148460   3.778   0.744  13.190 -1.9707 -2.7488  0.8979
 9015TIP3    H248461   3.759   0.754  13.340  0.5757 -2.9218  1.2558
 9016TIP3   OH248462   6.260   1.760   4.599  0.0540 -0.2464 -0.1796
 9016TIP3    H148463   6.216   1.695   4.654 -0.0921 -0.6803 -0.8090
 9016TIP3    H248464   6.353   1.745   4.614  0.0694 -1.7561 -1.6352
 9017TIP3   OH248465   2.478   5.816  16.654  0.1797 -0.0442 -0.9573
 9017TIP3    H148466   2.531   5.763  16.714  0.7348  0.2869 -1.1547
 9017TIP3    H248467   2.420   5.865  16.711  3.2298  3.0946 -0.3982
 9018TIP3   OH248468   0.520   2.694   0.039  0.3625  0.2216  0.2750
 9018TIP3    H148469   0.558   2.607   0.051  1.2654  0.6605  0.6360
 9018TIP3    H248470   0.581   2.739  -0.019 -0.8696  0.1276 -1.1215
 9019TIP3   OH248471   4.078   1.605  14.927 -0.3195  0.1830  0.2893
 9019TIP3    H148472   4.092   1.650  15.011  2.7771  0.2474 -0.2003
 9019TIP3    H248473   4.075   1.513  14.950 -2.7260  0.3677  0.8241
 9020TIP3   OH248474   4.174   4.135  15.629  0.2126 -0.1206  0.8046
 9020TIP3    H148475   4.103   4.135  15.565  0.8326 -0.5554  0.1054
 9020TIP3    H248476   4.165   4.219  15.675 -1.1783 -0.4908  1.2229
 9021TIP3   OH248477   3.937   4.466  14.089 -0.0249 -0.5965  0.0605
 9021TIP3    H148478   3.917   4.383  14.133  0.1219 -0.5709  0.1778
 9021TIP3    H248479   4.032   4.474  14.095  0.0115 -0.6623 -0.3856
 9022TIP3   OH248480   3.612   1.410   1.175 -0.1030 -0.1459 -0.1775
 9022TIP3    H148481   3.613   1.459   1.093 -1.5984 -0.8440 -0.6366
 9022TIP3    H248482   3.622   1.319   1.148 -0.2843 -0.3520  0.4417
 9023TIP3   OH248483   3.215   5.826  14.762  0.1881 -0.3191  0.1159
 9023TIP3    H148484   3.225   5.922  14.760 -1.3213 -0.1746 -2.3554
 9023TIP3    H248485   3.137   5.811  14.815  0.9547 -0.2513  1.2827
 9024TIP3   OH248486   4.509   0.832   5.415  0.1738 -0.0795  0.5991
 9024TIP3    H148487   4.548   0.761   5.364  0.4642  0.6712 -0.2229
 9024TIP3    H248488   4.579   0.897   5.424 -0.1584  0.2098  1.1622
 9025TIP3   OH248489   6.355   5.180  13.573  0.6804 -0.0121 -0.2079
 9025TIP3    H148490   6.279   5.234  13.550 -1.3775 -2.7440  0.0243
 9025TIP3    H248491   6.359   5.183  13.668  0.0182 -1.0111 -0.1511
 9026TIP3   OH248492   2.806   4.077  12.719 -0.1136 -0.0893  0.1302
 9026TIP3    H148493   2.768   3.990  12.727 -1.5754  0.6086  0.8990
 9026TIP3    H248494   2.849   4.093  12.803 -2.6774  1.2386  1.2270
 9027TIP3   OH248495   5.853   3.753   5.613  0.1318 -0.3234  0.2089
 9027TIP3    H148496   5.809   3.724   5.693 -0.2913  0.7638  0.3799
 9027TIP3    H248497   5.923   3.811   5.644 -0.7560  1.0220 -0.2454
 9028TIP3   OH248498   3.536   2.906   3.827  0.0468  0.1686 -0.5255
 9028TIP3    H148499   3.485   2.988   3.830  0.1617  0.2390 -0.5136
 9028TIP3    H248500   3.510   2.865   3.745  0.7479  0.6991 -1.0078
 9029TIP3   OH248501   5.210   5.262  14.941  0.5075  0.1595  0.1849
 9029TIP3    H148502   5.255   5.257  15.025  1.5211 -0.2989 -0.3833
 9029TIP3    H248503   5.252   5.334  14.895  2.5679 -2.0060 -1.4448
 9030TIP3   OH248504   0.925   1.655  15.256  0.2154  0.1593 -0.1835
 9030TIP3    H148505   0.895   1.567  15.236  0.9297 -0.0180 -0.5135
 9030TIP3    H248506   0.845   1.708  15.263 -0.2190 -0.5387  0.1645
 9031TIP3   OH248507   5.883   0.242  12.725  0.0101  0.6068  0.4230
 9031TIP3    H148508   5.889   0.337  12.714  0.3946  0.5719  0.3246
 9031TIP3    H248509   5.948   0.206  12.665  1.1919  0.3618  1.8339
 9032TIP3   OH248510   5.293   5.640  16.738 -0.7300  0.1304  0.2311
 9032TIP3    H148511   5.286   5.580  16.664  2.2063  0.1792 -0.1519
 9032TIP3    H248512   5.311   5.725  16.699  1.9847 -0.0530  0.9931
 9033TIP3   OH248513   2.484   0.240   2.744 -0.1430 -0.5378  0.2590
 9033TIP3    H148514   2.459   0.315   2.797  1.1318  0.1287 -0.0660
 9033TIP3    H248515   2.406   0.185   2.741 -0.9173  0.5238  0.9255
 9034TIP3   OH248516   6.420   2.297   5.106 -0.1927  0.1735  0.6815
 9034TIP3    H148517   6.353   2.329   5.046 -0.6408  0.1126  1.1429
 9034TIP3    H248518   6.392   2.328   5.192  1.5450  2.0737  0.6009
 9035TIP3   OH248519   1.957   5.623  14.321  0.1731 -0.1144  0.2083
 9035TIP3    H148520   1.920   5.701  14.281  0.0487  1.0478  2.4981
 9035TIP3    H248521   1.962   5.644  14.415  0.1641 -2.8253  0.8664
 9036TIP3   OH248522   0.690   6.310   5.936  0.4903 -0.1556 -0.2818
 9036TIP3    H148523   0.646   6.256   6.002 -0.7325  0.2484 -0.7547
 9036TIP3    H248524   0.641   6.392   5.935  1.0425  0.1731 -1.0755
 9037TIP3   OH248525   0.525   3.880  13.376  0.3685  0.4322  0.1160
 9037TIP3    H148526   0.563   3.861  13.290  0.6108  0.2643  0.2633
 9037TIP3    H248527   0.522   3.796  13.420  0.1588  0.5038  0.2407
 9038TIP3   OH248528   6.417   1.745  16.666  0.3333  0.0149  0.7941
 9038TIP3    H148529   6.441   1.765  16.756  1.5064 -0.4177  0.5983
 9038TIP3    H248530   6.498   1.760  16.616 -0.5105  1.0372 -0.3093
 9039TIP3   OH248531   5.034   3.685   4.589  0.6043 -0.5294 -0.3350
 9039TIP3    H148532   4.947   3.663   4.555 -0.0399  2.8286 -1.0455
 9039TIP3    H248533   5.087   3.608   4.572 -1.7512 -1.8973 -1.6758
 9040TIP3   OH248534   2.717   0.839  15.369  0.4080  0.1194 -0.6979
 9040TIP3    H148535   2.717   0.934  15.357 -2.7436  0.3156  0.3265
 9040TIP3    H248536   2.669   0.806  15.293 -0.2363 -0.4521 -0.0516
 9041TIP3   OH248537   2.439   2.165   4.370  0.3124  0.5797  0.1336
 9041TIP3    H148538   2.348   2.187   4.391 -0.5119 -1.7242 -0.8150
 9041TIP3    H248539   2.441   2.069   4.370  2.9272  0.5975  0.8376
 9042TIP3   OH248540   2.475   0.530  12.818  0.4034  0.5981 -0.2415
 9042TIP3    H148541   2.388   0.512  12.784  0.5971 -1.0106  0.0612
 9042TIP3    H248542   2.529   0.459  12.784  1.5024  1.3320 -0.0558
 9043TIP3   OH248543   5.878   2.929   3.304 -0.1827  0.5264 -0.9160
 9043TIP3    H148544   5.971   2.938   3.323 -0.4639  1.0901  0.2374
 9043TIP3    H248545   5.834   2.959   3.384 -1.3306 -1.9583 -0.5730
 9044TIP3   OH248546   6.033   3.196   5.035  0.5895 -0.0329 -0.5964
 9044TIP3    H148547   6.103   3.247   5.076 -0.9104  1.7749 -0.2050
 9044TIP3    H248548   6.064   3.180   4.946  0.7136  2.3850 -1.0183
 9045TIP3   OH248549   6.112   1.243   5.233 -0.8513 -0.0890 -0.2059
 9045TIP3    H148550   6.157   1.248   5.318 -0.9048 -1.9640 -0.0370
 9045TIP3    H248551   6.144   1.319   5.184 -1.4397  1.4947  1.7760
 9046TIP3   OH248552   2.146   5.418  16.824  0.0604 -0.1334  0.5186
 9046TIP3    H148553   2.240   5.406  16.840  0.2084  1.5615  1.0941
 9046TIP3    H248554   2.105   5.339  16.859  1.0453  0.3352  2.8652
 9047TIP3   OH248555   1.690   3.670   2.226 -0.3107 -0.5767 -0.0815
 9047TIP3    H148556   1.596   3.656   2.237 -0.2076 -1.1653  0.0219
 9047TIP3    H248557   1.696   3.751   2.175 -0.9049 -1.3981 -1.4780
 9048TIP3   OH248558   5.765   0.558  14.693 -0.2350  0.4767  0.3446
 9048TIP3    H148559   5.677   0.566  14.658 -0.2795  1.1629  0.6140
 9048TIP3    H248560   5.759   0.492  14.761 -0.0579 -1.2289 -1.2468
 9049TIP3   OH248561   1.082   4.894   6.537  1.2789 -0.3902 -0.0874
 9049TIP3    H148562   1.064   4.812   6.491  2.3033  0.7736 -2.7113
 9049TIP3    H248563   1.157   4.874   6.593  0.4917 -1.6483  0.5328
 9050TIP3   OH248564   2.489   5.435   1.509  0.2732  0.5958  0.3477
 9050TIP3    H148565   2.574   5.435   1.466 -0.5134 -0.9117 -1.2826
 9050TIP3    H248566   2.446   5.515   1.479  0.3243  0.3202 -0.4544
 9051TIP3   OH248567   1.100   4.255  12.910 -0.8354  0.2078  0.1555
 9051TIP3    H148568   1.088   4.181  12.970  1.8798 -1.8614 -1.6866
 9051TIP3    H248569   1.122   4.214  12.826  3.6701  3.0423 -0.2439
 9052TIP3   OH248570   3.205   0.321   5.325  0.2014  0.1959  0.3172
 9052TIP3    H148571   3.247   0.404   5.350 -0.3742  1.0227 -1.3505
 9052TIP3    H248572   3.121   0.323   5.371  1.7050 -1.2119  3.2298
 9053TIP3   OH248573   6.230   2.457   3.766 -0.3057  0.2240  0.0574
 9053TIP3    H148574   6.285   2.421   3.696 -0.2810  1.9530 -0.8421
 9053TIP3    H248575   6.143   2.422   3.747  0.0204 -0.6545  0.1420
 9054TIP3   OH248576   1.144   5.365  15.172 -0.0152  0.1319 -0.1039
 9054TIP3    H148577   1.163   5.424  15.099  0.2573  0.6733  0.4063
 9054TIP3    H248578   1.224   5.314  15.183  0.4109  0.9584  0.6709
 9055TIP3   OH248579   0.533   3.190  11.173  0.0367 -0.3681 -0.6916
 9055TIP3    H148580   0.618   3.230  11.192 -0.5137  1.4598 -1.9605
 9055TIP3    H248581   0.470   3.255  11.202 -0.9389 -1.4536 -0.3575
 9056TIP3   OH248582   0.264   1.235  13.784  0.3082 -0.2065  0.2627
 9056TIP3    H148583   0.201   1.257  13.853 -1.0041 -1.9138 -0.3413
 9056TIP3    H248584   0.297   1.319  13.753  0.3035  0.6006  2.4050
 9057TIP3   OH248585   2.364   4.658  16.416  0.6658  0.4854  0.2551
 9057TIP3    H148586   2.390   4.703  16.336 -1.9137  0.3349 -0.7093
 9057TIP3    H248587   2.269   4.668  16.420  0.4313 -1.8815  1.8322
 9058TIP3   OH248588   5.789   2.263  14.835 -0.0938 -0.2255  0.3300
 9058TIP3    H148589   5.730   2.189  14.826  0.2553 -0.1845 -2.8404
 9058TIP3    H248590   5.756   2.328  14.774  0.6683  1.5465  1.7457
 9059TIP3   OH248591   0.270   3.701  11.774  0.1695  0.1560 -0.1752
 9059TIP3    H148592   0.201   3.742  11.721 -0.8062  0.0580  1.0024
 9059TIP3    H248593   0.224   3.635  11.825  1.1863 -0.0560  0.4728
 9060TIP3   OH248594   3.995   3.662  13.515  0.0246  0.3261  0.2652
 9060TIP3    H148595   4.033   3.747  13.540 -0.6341  0.5349  0.5521
 9060TIP3    H248596   3.982   3.616  13.597 -0.5580  0.3433  0.1839
 9061TIP3   OH248597   6.385   1.417  15.144  0.6762  0.0424  0.0490
 9061TIP3    H148598   6.380   1.505  15.106 -1.1583 -0.1824 -0.2705
 9061TIP3    H248599   6.456   1.375  15.097 -0.4584  0.3405 -1.9825
 9062TIP3   OH248600   1.394   4.853  13.881  0.0771 -0.2562 -0.2965
 9062TIP3    H148601   1.399   4.945  13.855  1.6114 -1.0479 -3.0487
 9062TIP3    H248602   1.485   4.828  13.898 -0.1233 -1.6895 -1.2696
 9063TIP3   OH248603   3.147   2.222  12.664  0.7326 -0.4500  0.8826
 9063TIP3    H148604   3.219   2.217  12.601 -2.6981 -1.8180 -3.2334
 9063TIP3    H248605   3.109   2.308  12.650 -1.4621 -1.6220 -0.7059
 9064TIP3   OH248606   3.121   0.351  16.251 -0.0412 -0.5624  0.2675
 9064TIP3    H148607   3.216   0.350  16.262 -0.1551 -0.2358  1.3328
 9064TIP3    H248608   3.091   0.424  16.306 -0.7763  0.1991 -1.1397
 9065TIP3   OH248609   0.064   0.797  14.916  0.3747  0.4919 -0.2007
 9065TIP3    H148610   0.136   0.764  14.862 -0.3987 -0.3545 -0.7268
 9065TIP3    H248611   0.101   0.871  14.963  2.5902 -1.9609  2.0975
 9066TIP3   OH248612   0.631   3.679   5.750  0.8117 -0.3809 -0.2172
 9066TIP3    H148613   0.634   3.593   5.707 -1.1202 -0.2599 -0.6251
 9066TIP3    H248614   0.618   3.659   5.843  3.4504 -0.5956  0.1411
 9067TIP3   OH248615   2.077   4.158  13.926  0.2378  0.2248  0.4271
 9067TIP3    H148616   2.060   4.070  13.891 -0.8509  0.9534 -0.9270
 9067TIP3    H248617   2.119   4.142  14.010  0.1051 -1.6030  0.1749
 9068TIP3   OH248618   5.873   3.742   3.639 -0.2755  0.0127  0.3250
 9068TIP3    H148619   5.827   3.801   3.579 -0.9704  0.1386  0.9901
 9068TIP3    H248620   5.911   3.675   3.582 -2.1082 -0.6580 -0.1268
 9069TIP3   OH248621   5.925   0.187   2.068  0.0193  0.1951  0.0379
 9069TIP3    H148622   5.862   0.153   2.132 -0.3070  0.6289 -0.0498
 9069TIP3    H248623   5.994   0.226   2.122  0.9685 -1.5801  0.1644
 9070TIP3   OH248624   5.222   3.346   6.505  0.3282  0.9153 -0.1527
 9070TIP3    H148625   5.273   3.326   6.583  0.5398  1.5937 -0.1074
 9070TIP3    H248626   5.159   3.413   6.534  0.3072  1.0592 -0.5255
 9071TIP3   OH248627   5.776   4.682   3.986  0.4518  0.3060 -0.0296
 9071TIP3    H148628   5.701   4.685   3.927  0.5080 -0.8069 -0.1752
 9071TIP3    H248629   5.774   4.766   4.032  0.8845  1.5331 -2.1834
 9072TIP3   OH248630   2.984   6.520  16.671  0.4049 -0.4644 -0.3433
 9072TIP3    H148631   3.030   6.597  16.638  0.2357  0.4162  1.4156
 9072TIP3    H248632   3.047   6.449  16.664  0.3919 -0.2994 -2.4696
 9073TIP3   OH248633   6.403   4.143   4.569 -0.4740 -0.5395  0.3776
 9073TIP3    H148634   6.404   4.074   4.635 -1.8514 -0.8528  0.0835
 9073TIP3    H248635   6.481   4.126   4.516 -0.5950 -1.6632  0.5405
 9074TIP3   OH248636   0.274   2.187   6.060 -0.1226  0.1407 -0.2913
 9074TIP3    H148637   0.293   2.253   6.127 -0.3694  0.4476 -0.5229
 9074TIP3    H248638   0.352   2.131   6.058 -1.2320 -1.5726  2.2460
 9075TIP3   OH248639   6.159   0.134   1.890 -0.2904  0.5365 -0.8117
 9075TIP3    H148640   6.220   0.198   1.925 -0.1285 -0.2710  0.4100
 9075TIP3    H248641   6.104   0.109   1.964 -0.9198 -0.1017 -1.4770
 9076TIP3   OH248642   0.314   1.709   0.582  0.1103 -0.1415  0.5379
 9076TIP3    H148643   0.353   1.641   0.637 -0.2400  0.7361  1.8988
 9076TIP3    H248644   0.244   1.663   0.534  0.4369 -0.9250  0.7971
 9077TIP3   OH248645   3.600   0.307  15.238  0.0336 -0.7079  0.1920
 9077TIP3    H148646   3.600   0.389  15.188  1.5832 -1.0221 -0.3430
 9077TIP3    H248647   3.530   0.319  15.303  1.7881  1.9877  1.6711
 9078TIP3   OH248648   1.016   3.517   5.686 -0.7721 -0.0766 -0.4599
 9078TIP3    H148649   0.972   3.570   5.619  0.1548 -0.2207 -1.1920
 9078TIP3    H248650   0.972   3.432   5.681  0.3376 -0.5929 -2.0097
 9079TIP3   OH248651   1.538   0.459   2.586  0.2875  0.0409  0.9253
 9079TIP3    H148652   1.499   0.396   2.526  1.3845  0.5400 -0.3574
 9079TIP3    H248653   1.510   0.544   2.552  1.6599  0.3649  0.5572
 9080TIP3   OH248654   2.243   3.080   5.889 -0.1077 -0.3307 -0.0099
 9080TIP3    H148655   2.320   3.028   5.867  1.3944  1.5158  0.8186
 9080TIP3    H248656   2.217   3.047   5.975 -0.3782 -1.0793 -0.3696
 9081TIP3   OH248657   4.664   0.171   0.249 -0.3095 -0.7821  0.7541
 9081TIP3    H148658   4.573   0.162   0.278 -1.2283  1.0419 -1.4606
 9081TIP3    H248659   4.680   0.094   0.194 -1.9461  0.9906 -2.3442
 9082TIP3   OH248660   1.155   1.026   4.687  0.0787  0.3835 -0.0433
 9082TIP3    H148661   1.164   1.038   4.592  0.0186 -0.6067 -0.1797
 9082TIP3    H248662   1.061   1.014   4.701  0.0629  0.7562  0.1707
 9083TIP3   OH248663   5.914   2.802   5.973 -0.1171 -0.0625 -0.2419
 9083TIP3    H148664   5.940   2.846   6.054 -0.5019 -1.6482  0.7640
 9083TIP3    H248665   5.993   2.756   5.945 -0.2028 -0.1429 -0.3475
 9084TIP3   OH248666   6.333   4.215  11.597 -0.2149  0.0128 -0.2322
 9084TIP3    H148667   6.286   4.203  11.679 -1.8448  1.4092 -0.9274
 9084TIP3    H248668   6.392   4.289  11.614  0.6745 -0.7795  0.1801
 9085TIP3   OH248669   2.897   2.826  11.886  0.2891  0.3062  0.2808
 9085TIP3    H148670   2.912   2.836  11.792  1.9879 -2.2761  0.2133
 9085TIP3    H248671   2.936   2.903  11.926  1.4488  0.3842 -0.9798
 9086TIP3   OH248672   0.383   4.285   2.644 -0.4467  0.1702 -0.2804
 9086TIP3    H148673   0.455   4.233   2.609  0.9699  2.2474 -0.5611
 9086TIP3    H248674   0.410   4.306   2.733 -0.5673  1.1850 -0.4770
 9087TIP3   OH248675   4.695   4.103  16.581  0.6531  0.0304 -0.1111
 9087TIP3    H148676   4.642   4.039  16.628 -0.0435  0.1218 -0.7518
 9087TIP3    H248677   4.772   4.116  16.636  0.0525 -0.1737  0.7871
 9088TIP3   OH248678   4.260   4.945   2.693  0.0630  0.6047 -0.6634
 9088TIP3    H148679   4.256   5.036   2.663 -0.8383  0.3641 -1.2856
 9088TIP3    H248680   4.279   4.895   2.614  0.5066  0.2383 -0.3279
 9089TIP3   OH248681   3.019   6.328   0.714 -0.0511  0.2411 -0.3912
 9089TIP3    H148682   2.977   6.243   0.727 -2.7827  1.4264 -1.1128
 9089TIP3    H248683   3.025   6.337   0.619  0.2178  0.8902 -0.3114
 9090TIP3   OH248684   1.686   3.441   0.250  0.4596  0.2126  0.1635
 9090TIP3    H148685   1.776   3.410   0.249 -0.4118 -2.4619 -0.1190
 9090TIP3    H248686   1.650   3.407   0.333 -1.3382 -2.1273 -1.4854
 9091TIP3   OH248687   4.305   4.282   4.450  0.1533  0.3969 -0.0633
 9091TIP3    H148688   4.332   4.373   4.463 -0.2643  0.5149 -0.0086
 9091TIP3    H248689   4.346   4.235   4.522 -0.2409  0.6677  0.3465
 9092TIP3   OH248690   6.392   6.766   3.459 -0.4881  0.9012  0.0074
 9092TIP3    H148691   6.447   6.762   3.381 -0.2262  1.9222  0.1417
 9092TIP3    H248692   6.447   6.807   3.525 -0.7530  0.1538  0.7060
 9093TIP3   OH248693   1.306   1.159  14.190  0.3302 -0.1705  0.5245
 9093TIP3    H148694   1.346   1.171  14.104 -0.1818 -0.6459  0.2153
 9093TIP3    H248695   1.335   1.235  14.241 -0.0712  0.5560 -0.3241
 9094TIP3   OH248696   3.289   3.379   4.154  0.1702 -0.4583 -0.6879
 9094TIP3    H148697   3.294   3.308   4.219  1.1100 -0.5252 -0.8285
 9094TIP3    H248698   3.375   3.420   4.157 -0.2181  0.3762 -0.9543
 9095TIP3   OH248699   0.462   2.434  13.092 -0.2322 -0.3514 -0.1836
 9095TIP3    H148700   0.404   2.508  13.107  0.7240  0.4253 -0.2321
 9095TIP3    H248701   0.516   2.462  13.018 -1.4361 -2.0402 -1.7355
 9096TIP3   OH248702   0.335   4.297  13.396 -0.1064 -0.5138 -0.6580
 9096TIP3    H148703   0.363   4.208  13.374  1.2244 -0.3367  0.2264
 9096TIP3    H248704   0.359   4.308  13.488  1.3397  1.3378 -1.2012
 9097TIP3   OH248705   4.341   6.142   5.457  0.0539 -0.2925 -0.0438
 9097TIP3    H148706   4.378   6.217   5.412 -0.6871  0.3882  0.4824
 9097TIP3    H248707   4.285   6.179   5.525  1.0852 -1.2837  1.3996
 9098TIP3   OH248708   0.460   6.480  14.993  0.0353 -0.0783  0.2458
 9098TIP3    H148709   0.385   6.427  15.020 -0.6456  0.6116 -0.2718
 9098TIP3    H248710   0.511   6.493  15.073 -0.6393 -0.1704  0.6942
 9099TIP3   OH248711   6.185   2.691  11.840  0.5957 -0.0610  0.3902
 9099TIP3    H148712   6.117   2.717  11.778  0.9781  0.1533  0.0574
 9099TIP3    H248713   6.177   2.754  11.912  0.3076 -0.1637  0.4496
 9100TIP3   OH248714   4.943   1.359  14.916 -0.3740 -0.2063  0.3145
 9100TIP3    H148715   4.964   1.410  14.838  1.6601 -1.1073  0.2419
 9100TIP3    H248716   4.956   1.420  14.989  0.8211 -0.2427  0.1429
 9101TIP3   OH248717   6.701   4.531  14.279  0.3544  0.4748 -0.2777
 9101TIP3    H148718   6.736   4.448  14.247  1.5354  1.4148 -1.4676
 9101TIP3    H248719   6.653   4.566  14.205 -0.1010  0.8941  0.2112
 9102TIP3   OH248720   4.295   2.763  12.432  0.1546 -0.1756  0.0500
 9102TIP3    H148721   4.210   2.802  12.454 -0.8132 -1.3102 -1.5043
 9102TIP3    H248722   4.274   2.670  12.417  1.7735 -0.5655  0.1813
 9103TIP3   OH248723   1.433   3.771  11.447 -0.5124 -0.8786 -0.0861
 9103TIP3    H148724   1.391   3.775  11.533 -2.2501  1.5337 -0.9824
 9103TIP3    H248725   1.361   3.759  11.385  0.5078 -0.6250 -1.3515
 9104TIP3   OH248726   5.674   2.409  15.300  0.0610  0.0337  0.6497
 9104TIP3    H148727   5.654   2.345  15.369 -0.9834 -0.7283 -0.3360
 9104TIP3    H248728   5.746   2.369  15.250 -0.7508 -0.4992 -0.1104
 9105TIP3   OH248729   1.668   6.771  12.512  0.2559  0.3867  0.4889
 9105TIP3    H148730   1.716   6.734  12.586 -0.1993  1.0005  1.0950
 9105TIP3    H248731   1.593   6.815  12.551  0.3527  1.2551 -0.2797
 9106TIP3   OH248732   5.976   2.396  13.545  0.3917 -0.2286  0.2445
 9106TIP3    H148733   5.980   2.309  13.507 -1.7285 -0.3190  0.1730
 9106TIP3    H248734   5.954   2.381  13.637  2.3298  0.1395  0.7907
 9107TIP3   OH248735   3.565   2.874  15.369 -0.2411  0.0338 -0.6272
 9107TIP3    H148736   3.598   2.827  15.445 -0.4065  0.8192 -0.0581
 9107TIP3    H248737   3.480   2.907  15.396 -1.0127 -1.0566 -1.7219
 9108TIP3   OH248738   1.355   5.639   1.859 -0.2542 -0.2921 -0.2485
 9108TIP3    H148739   1.451   5.636   1.856 -0.2156  0.0321  0.6061
 9108TIP3    H248740   1.333   5.729   1.833 -0.3021 -0.2248  0.0218
 9109TIP3   OH248741   2.798   3.000   2.846 -0.6409 -0.2596  0.2676
 9109TIP3    H148742   2.819   2.933   2.780 -0.5722 -0.4436  0.4737
 9109TIP3    H248743   2.842   2.969   2.925  0.5315  0.7429  0.0136
 9110TIP3   OH248744   1.325   0.597  16.935  0.1283 -0.3823 -0.3550
 9110TIP3    H148745   1.415   0.580  16.906  0.3091 -0.1811  0.0792
 9110TIP3    H248746   1.324   0.691  16.955  0.6981 -0.9602  2.6322
 9111TIP3   OH248747   4.157   5.427   4.808  0.5373  0.6587 -0.0229
 9111TIP3    H148748   4.151   5.336   4.837 -1.4447  0.5520 -0.6496
 9111TIP3    H248749   4.186   5.421   4.717 -1.9837  0.4723 -0.8635
 9112TIP3   OH248750   0.505   4.865   4.673  0.1800  0.2432 -0.8047
 9112TIP3    H148751   0.438   4.902   4.730 -0.3660 -0.7112 -0.8213
 9112TIP3    H248752   0.541   4.791   4.723 -0.5427 -0.8138 -1.8272
 9113TIP3   OH248753   6.073   4.034  10.818 -0.3458  0.2920 -0.0441
 9113TIP3    H148754   6.036   4.113  10.780  1.3000  2.4615  2.6860
 9113TIP3    H248755   6.000   3.993  10.864 -0.4648  1.9995  1.3194
 9114TIP3   OH248756   4.097   1.006  13.992  0.2102 -0.5848 -0.0451
 9114TIP3    H148757   4.140   1.039  14.071 -0.1624  1.6940 -0.7724
 9114TIP3    H248758   4.164   0.951  13.951  0.9417 -0.5432  1.0494
 9115TIP3   OH248759   6.304   6.542   1.894 -0.0660  0.0463  0.2170
 9115TIP3    H148760   6.365   6.611   1.922 -1.3542  0.7010  1.5274
 9115TIP3    H248761   6.243   6.586   1.835  0.3351 -0.4505 -0.5713
 9116TIP3   OH248762   3.416   6.192   6.436 -0.6173 -0.5019 -0.0765
 9116TIP3    H148763   3.510   6.172   6.440 -0.7159 -1.2424 -1.1568
 9116TIP3    H248764   3.412   6.285   6.414 -0.1254 -0.5009 -0.1654
 9117TIP3   OH248765   2.778   0.949  16.148  0.0190 -0.1353  0.2046
 9117TIP3    H148766   2.764   1.043  16.162  0.2448 -0.3741  2.1063
 9117TIP3    H248767   2.695   0.908  16.172  0.2548 -0.5192  0.3664
 9118TIP3   OH248768   4.981   3.042   2.957 -0.4051 -0.0572  0.2766
 9118TIP3    H148769   5.010   3.064   3.045  1.2480 -1.7414  0.1825
 9118TIP3    H248770   5.044   3.086   2.899 -1.8760  1.6070 -0.1203
 9119TIP3   OH248771   6.322   4.429   4.015  0.2534 -0.0420  0.1156
 9119TIP3    H148772   6.327   4.347   3.967 -0.9200  0.0976 -0.2658
 9119TIP3    H248773   6.326   4.403   4.107  2.3382 -0.3235 -0.0253
 9120TIP3   OH248774   1.688   4.948  15.061  0.2592 -0.4514  0.7267
 9120TIP3    H148775   1.615   4.899  15.099 -0.1275  0.3943  1.0790
 9120TIP3    H248776   1.650   5.032  15.035  2.1337  2.0181  5.4552
 9121TIP3   OH248777   0.701   6.384   4.228  0.2335 -0.2701 -0.5229
 9121TIP3    H148778   0.781   6.346   4.263  2.0697  1.8243 -2.2968
 9121TIP3    H248779   0.721   6.477   4.218 -1.5486 -0.1319 -3.3834
 9122TIP3   OH248780   4.142   3.777  17.016 -0.1063 -1.0331 -0.3016
 9122TIP3    H148781   4.059   3.740  17.046  0.4831 -2.2067 -0.0826
 9122TIP3    H248782   4.118   3.862  16.978 -1.3320 -1.1293  0.2203
 9123TIP3   OH248783   3.495   2.900  11.377  0.6551 -0.6430 -0.4095
 9123TIP3    H148784   3.563   2.950  11.332  0.5595 -1.6954 -1.7488
 9123TIP3    H248785   3.414   2.923  11.330 -0.0954  1.3418  1.7718
 9124TIP3   OH248786   6.540   1.563   3.381  0.0874  0.1512  0.4474
 9124TIP3    H148787   6.625   1.524   3.399  0.1334 -0.3263 -0.7828
 9124TIP3    H248788   6.559   1.641   3.330 -0.2090  0.0595  0.1947
 9125TIP3   OH248789   4.359   0.253  17.018 -0.2617 -0.3863 -0.2148
 9125TIP3    H148790   4.385   0.343  17.000  0.8067 -0.6807 -0.1815
 9125TIP3    H248791   4.339   0.216  16.932  0.0836 -0.3492 -0.3134
 9126TIP3   OH248792   2.840   2.501   5.153 -0.0838  0.0878 -0.0293
 9126TIP3    H148793   2.932   2.474   5.143 -0.7645 -1.6219 -1.9437
 9126TIP3    H248794   2.800   2.431   5.204 -0.1649  1.2468  1.5401
 9127TIP3   OH248795   4.513   2.221   0.263  0.4733 -0.1273  0.3767
 9127TIP3    H148796   4.585   2.222   0.326 -0.8038  1.0638  1.8877
 9127TIP3    H248797   4.438   2.190   0.315 -0.2612 -0.6257 -0.9710
 9128TIP3   OH248798   5.601   1.607   0.049 -0.3222 -0.1330  0.8137
 9128TIP3    H148799   5.662   1.657   0.103  0.2163  2.1008 -1.7333
 9128TIP3    H248800   5.517   1.652   0.059 -0.0680  0.6953 -0.7058
 9129TIP3   OH248801   1.620   1.987   4.861 -0.4435 -0.0548  0.2175
 9129TIP3    H148802   1.536   1.986   4.817 -0.6596  1.5438  0.5571
 9129TIP3    H248803   1.685   1.989   4.791 -0.7561  1.3549 -0.0321
 9130TIP3   OH248804   6.430   6.710  11.829  0.0381 -0.7515 -0.0625
 9130TIP3    H148805   6.426   6.615  11.825  2.9858 -0.8593 -1.2369
 9130TIP3    H248806   6.494   6.735  11.762 -0.8145  2.0808  0.0868
 9131TIP3   OH248807   0.472   1.872  13.675 -0.1744  0.4550 -0.4317
 9131TIP3    H148808   0.469   1.787  13.720 -2.0385  1.2888  1.0839
 9131TIP3    H248809   0.553   1.869  13.623  0.7268 -1.5133  1.0290
 9132TIP3   OH248810   4.519   2.852  14.235 -0.1605  0.0543  0.1537
 9132TIP3    H148811   4.532   2.803  14.316  2.0071  0.6523  0.1905
 9132TIP3    H248812   4.531   2.788  14.166 -0.1931 -0.0679  0.2603
 9133TIP3   OH248813   5.062   2.550   5.519  0.2238  0.0565 -0.1774
 9133TIP3    H148814   4.982   2.542   5.571  0.7095 -1.1936  0.4059
 9133TIP3    H248815   5.132   2.557   5.584  0.9730 -2.7357 -0.5814
 9134TIP3   OH248816   4.235   3.089   2.463 -0.1272  0.0652  0.1959
 9134TIP3    H148817   4.162   3.027   2.457 -1.3143  1.5135 -0.6536
 9134TIP3    H248818   4.279   3.082   2.378  0.9049 -0.9818  0.7925
 9135TIP3   OH248819   6.492   4.411  11.662  0.2724  0.3896 -0.0256
 9135TIP3    H148820   6.575   4.455  11.642  0.6163 -0.6512 -0.9790
 9135TIP3    H248821   6.445   4.473  11.717  0.6149  2.0895 -1.5817
 9136TIP3   OH248822   6.548   0.688  13.535 -0.0071 -0.0462  0.0614
 9136TIP3    H148823   6.579   0.640  13.458  0.0427 -0.2067  0.1813
 9136TIP3    H248824   6.549   0.623  13.605 -0.8360 -0.1141  0.0155
 9137TIP3   OH248825   1.751   1.858  14.177  0.1099  0.0336 -0.0215
 9137TIP3    H148826   1.677   1.802  14.154  0.4649 -0.0507 -1.0082
 9137TIP3    H248827   1.828   1.801  14.170  0.2637  0.0815  1.1270
 9138TIP3   OH248828   3.755   1.039   4.044  0.2208 -0.2447 -0.1929
 9138TIP3    H148829   3.770   1.087   3.962  1.0319 -0.5262 -0.2143
 9138TIP3    H248830   3.768   1.104   4.112 -0.0278 -0.1118 -0.2722
 9139TIP3   OH248831   4.763   4.811   2.301  0.4918 -0.2964 -0.3673
 9139TIP3    H148832   4.786   4.801   2.393 -0.2200 -0.5952 -0.2190
 9139TIP3    H248833   4.783   4.726   2.262  0.0090 -0.4346 -0.3168
 9140TIP3   OH248834   1.409   0.014   3.612 -0.7934 -0.3161 -0.0410
 9140TIP3    H148835   1.417   0.104   3.582 -0.6703 -0.0433  0.8162
 9140TIP3    H248836   1.316   0.004   3.634 -0.7140 -0.2462  0.3355
 9141TIP3   OH248837   3.380   0.012   5.340  0.3197  0.1900  0.9161
 9141TIP3    H148838   3.427  -0.011   5.260 -0.5617 -2.3542  1.1082
 9141TIP3    H248839   3.291  -0.020   5.326 -0.2643  1.1478  2.2905
 9142TIP3   OH248840   1.145   3.421   5.004  0.0712  0.7625  0.4396
 9142TIP3    H148841   1.198   3.479   4.949  1.0647 -0.1645  0.4115
 9142TIP3    H248842   1.071   3.476   5.032 -1.3337  0.8382 -3.0954
 9143TIP3   OH248843   4.856   1.232   3.974 -0.1463  0.6777  0.4071
 9143TIP3    H148844   4.779   1.271   3.934 -0.1990 -0.1133 -0.2787
 9143TIP3    H248845   4.927   1.294   3.955 -0.6504  1.5383  1.2738
 9144TIP3   OH248846   4.309   2.881  13.178  0.5349  0.6551 -0.0410
 9144TIP3    H148847   4.331   2.970  13.205  0.6455  0.4158  0.6525
 9144TIP3    H248848   4.323   2.827  13.256  1.0316 -0.0655 -0.6176
 9145TIP3   OH248849   2.250   0.833  14.847 -0.4457 -0.0389  0.7880
 9145TIP3    H148850   2.237   0.780  14.925  0.6115 -1.0798  0.2727
 9145TIP3    H248851   2.310   0.902  14.875 -1.8448  0.9386  1.4657
 9146TIP3   OH248852   1.526   5.931   2.115  0.0712  0.1174  0.2712
 9146TIP3    H148853   1.511   5.901   2.025 -0.5619  2.6328 -0.4917
 9146TIP3    H248854   1.450   5.985   2.135  1.3771  1.5842  1.4164
 9147TIP3   OH248855   0.997   6.002   5.756  0.0443 -0.1343 -0.0105
 9147TIP3    H148856   0.998   5.932   5.821  2.6763 -0.9598 -0.9022
 9147TIP3    H248857   1.067   6.061   5.783 -1.0750  1.3175 -0.2099
 9148TIP3   OH248858   2.722   1.393  13.607 -0.3210 -0.4258 -0.0577
 9148TIP3    H148859   2.810   1.416  13.577 -0.1576 -0.5724  0.3078
 9148TIP3    H248860   2.737   1.337  13.683 -0.7421  0.0444  0.3711
 9149TIP3   OH248861   3.203   3.844   3.401  0.0636  0.1580  0.0937
 9149TIP3    H148862   3.243   3.911   3.346 -1.6827  2.0535  1.0808
 9149TIP3    H248863   3.109   3.853   3.384 -0.2201 -1.8052  0.5294
 9150TIP3   OH248864   0.260   6.512   3.809  0.6283  0.2427 -0.0618
 9150TIP3    H148865   0.294   6.550   3.889  1.4079 -0.6292  0.0380
 9150TIP3    H248866   0.331   6.455   3.777 -1.3042 -2.9317  1.0342
 9151TIP3   OH248867   0.098   2.066  12.311  0.4222 -0.9140  0.0063
 9151TIP3    H148868   0.157   2.141  12.302 -2.0719  1.2194  0.5631
 9151TIP3    H248869   0.134   2.015  12.383  2.3677 -0.4343 -0.6152
 9152TIP3   OH248870   6.751   0.915  13.579 -0.8203  0.1163 -0.2833
 9152TIP3    H148871   6.737   0.908  13.673  0.0902  0.2428 -0.1399
 9152TIP3    H248872   6.707   0.839  13.542  3.3305 -2.9329  0.7014
 9153TIP3   OH248873   5.504   0.645  13.470 -0.4067 -0.0185  0.5069
 9153TIP3    H148874   5.576   0.708  13.472 -0.0703 -0.4111  0.9898
 9153TIP3    H248875   5.467   0.653  13.382  1.6718 -1.4542 -0.5210
 9154TIP3   OH248876   0.627   5.414   1.572  0.0707 -0.7358 -0.4300
 9154TIP3    H148877   0.584   5.399   1.657  0.2279  2.7506  0.3489
 9154TIP3    H248878   0.719   5.393   1.587 -0.1842 -1.6892 -0.1933
 9155TIP3   OH248879   1.518   1.578  16.819  0.2664 -0.0969  0.2177
 9155TIP3    H148880   1.463   1.656  16.812  0.5983  0.1414  0.2753
 9155TIP3    H248881   1.535   1.553  16.728 -0.3023 -0.4297  0.1973
 9156TIP3   OH248882   2.702   0.018   3.490 -0.2604  0.5638 -0.2535
 9156TIP3    H148883   2.753   0.079   3.437  0.2483  1.3850  1.1603
 9156TIP3    H248884   2.766  -0.041   3.529 -0.4426  1.2526  1.0932
 9157TIP3   OH248885   5.939   6.466  13.147  0.4547  0.4499 -0.2901
 9157TIP3    H148886   5.991   6.546  13.144  0.9620  0.1648  0.6558
 9157TIP3    H248887   5.980   6.413  13.216 -1.0837  0.2205  0.4780
 9158TIP3   OH248888   3.266   3.069   1.188  0.3253  0.1153 -0.0042
 9158TIP3    H148889   3.278   3.035   1.276 -1.2651  2.3531  1.1302
 9158TIP3    H248890   3.307   3.156   1.190  0.2140  0.2284 -1.4443
 9159TIP3   OH248891   3.886   3.182   2.621 -0.4174 -0.1813 -0.4954
 9159TIP3    H148892   3.801   3.150   2.651 -0.5648  0.3665 -0.3201
 9159TIP3    H248893   3.932   3.208   2.701 -0.4097  0.3040 -0.6531
 9160TIP3   OH248894   0.850   3.543  13.781 -0.3769 -0.6022 -0.0759
 9160TIP3    H148895   0.821   3.512  13.866 -0.9391 -0.1539 -0.1023
 9160TIP3    H248896   0.917   3.480  13.754 -0.7748 -1.2049  0.3317
 9161TIP3   OH248897   4.750   0.743   4.176 -0.2130  0.0274 -0.1422
 9161TIP3    H148898   4.825   0.755   4.233  1.5599 -0.8757 -2.1719
 9161TIP3    H248899   4.731   0.830   4.141  0.0219  0.2306  0.2422
 9162TIP3   OH248900   0.148   3.074  11.155 -0.3188  0.1208  0.7361
 9162TIP3    H148901   0.110   3.159  11.178  0.9221  0.5428  1.2803
 9162TIP3    H248902   0.189   3.045  11.236  1.3124  0.1025 -0.0870
 9163TIP3   OH248903   4.099   6.076   4.682 -0.1948  0.1604 -0.0345
 9163TIP3    H148904   4.175   6.135   4.685 -0.4141  0.4699 -0.5938
 9163TIP3    H248905   4.031   6.126   4.637 -1.2478  0.4748  1.8303
 9164TIP3   OH248906   1.356   0.277  11.511  0.6253 -0.4838 -0.0429
 9164TIP3    H148907   1.287   0.278  11.578  1.1098 -0.9274  0.4715
 9164TIP3    H248908   1.382   0.185  11.505  2.7768 -0.0097  1.4567
 9165TIP3   OH248909   2.782   0.348  12.392 -0.2229 -0.1476 -0.0215
 9165TIP3    H148910   2.785   0.440  12.418 -2.4976 -0.1101  0.2024
 9165TIP3    H248911   2.820   0.301  12.466  1.7802  0.6591 -0.5098
 9166TIP3   OH248912   0.412   2.112   6.560  0.0560 -0.2519 -0.4554
 9166TIP3    H148913   0.391   2.129   6.652  1.0664  0.1008 -0.2784
 9166TIP3    H248914   0.431   2.199   6.524 -1.3021 -0.2676 -1.2585
 9167TIP3   OH248915   1.753   2.556   6.219  0.0436 -0.4492  1.1854
 9167TIP3    H148916   1.681   2.597   6.267 -0.1858  0.3073  0.2055
 9167TIP3    H248917   1.721   2.468   6.198 -1.8104  0.8729 -1.8507
 9168TIP3   OH248918   6.476   3.663   0.111 -0.3097 -0.2115 -0.1869
 9168TIP3    H148919   6.467   3.572   0.083 -0.7425 -0.4703  0.7581
 9168TIP3    H248920   6.522   3.707   0.039  0.2694 -1.2688 -0.4663
 9169TIP3   OH248921   3.779   2.739  11.358  0.2152  0.2510 -0.3960
 9169TIP3    H148922   3.755   2.823  11.396  0.4517  0.0078  0.3009
 9169TIP3    H248923   3.704   2.682  11.376 -0.4567  0.6351 -1.9286
 9170TIP3   OH248924   3.322   6.313  11.774 -0.0794  0.0145  0.0910
 9170TIP3    H148925   3.229   6.293  11.762  0.1925 -0.2751 -1.7319
 9170TIP3    H248926   3.360   6.302  11.687  1.5316  0.8775  0.6650
 9171TIP3   OH248927   4.068   4.732   2.444 -0.0189  0.0825  0.5201
 9171TIP3    H148928   4.040   4.813   2.488 -1.9068 -0.7966  0.9877
 9171TIP3    H248929   4.047   4.748   2.352 -0.1167  0.2375  0.5672
 9172TIP3   OH248930   3.031   1.786   1.371  0.1209  0.4943  0.2979
 9172TIP3    H148931   3.094   1.802   1.440 -0.0516 -1.2958  0.9069
 9172TIP3    H248932   2.969   1.859   1.377  0.2902  0.5270  1.8123
 9173TIP3   OH248933   2.269   3.557   2.787  1.0715 -0.1467 -0.2021
 9173TIP3    H148934   2.267   3.505   2.707 -0.2177  1.2227 -1.0700
 9173TIP3    H248935   2.344   3.615   2.778  1.1381 -0.2433 -0.2610
 9174TIP3   OH248936   6.691   3.515  11.523  0.2411 -0.2472  0.4658
 9174TIP3    H148937   6.753   3.454  11.483 -0.2528 -0.0553 -0.6145
 9174TIP3    H248938   6.674   3.581  11.456 -1.0360 -0.2344  0.7739
 9175TIP3   OH248939   1.267   1.684   2.777  0.0289  0.6288  0.4406
 9175TIP3    H148940   1.263   1.638   2.693 -0.3927 -1.3553  1.5215
 9175TIP3    H248941   1.199   1.751   2.771  0.2186  0.7090 -0.9205
 9176TIP3   OH248942   1.867   1.307   3.515 -0.2333 -1.0066  0.0114
 9176TIP3    H148943   1.844   1.363   3.589  0.8007 -0.0071 -0.4165
 9176TIP3    H248944   1.946   1.261   3.544  0.7507  0.1265 -0.8355
 9177TIP3   OH248945   1.568   6.467   0.249  0.1726 -0.1662 -0.1662
 9177TIP3    H148946   1.655   6.497   0.276  0.3939 -0.4101 -0.5925
 9177TIP3    H248947   1.552   6.511   0.166 -0.6609  0.8702  0.5354
 9178TIP3   OH248948   4.832   5.360   4.110  0.0711  0.3457 -0.1047
 9178TIP3    H148949   4.894   5.421   4.149  0.7017 -1.2092  1.3713
 9178TIP3    H248950   4.750   5.377   4.155  0.4869 -0.5531  1.0196
 9179TIP3   OH248951   2.554   4.803   6.391 -0.3274 -0.3550 -0.0425
 9179TIP3    H148952   2.583   4.753   6.467  1.4266  0.2768 -0.2717
 9179TIP3    H248953   2.587   4.892   6.406  0.4228 -0.3229 -1.7345
 9180TIP3   OH248954   1.516   3.268   3.192 -0.2525  0.2532  0.3938
 9180TIP3    H148955   1.609   3.245   3.198 -1.0753 -4.3058 -2.0417
 9180TIP3    H248956   1.509   3.317   3.110 -0.1286 -0.1056  0.1688
 9181TIP3   OH248957   1.965   2.757  12.599 -0.0631 -1.1812 -0.1863
 9181TIP3    H148958   2.008   2.832  12.558 -0.1607 -1.4549 -0.7969
 9181TIP3    H248959   1.948   2.785  12.689  0.4619 -0.6991 -0.2337
 9182TIP3   OH248960   1.135   3.546  15.890 -0.3162  0.0397 -0.4418
 9182TIP3    H148961   1.128   3.637  15.859 -1.3424 -0.3119 -1.2894
 9182TIP3    H248962   1.164   3.497  15.813 -2.3004 -0.7553 -0.7123
 9183TIP3   OH248963   6.683   0.788   0.239  0.0210 -0.0215 -0.5312
 9183TIP3    H148964   6.595   0.751   0.253  0.5342 -1.1008 -0.1343
 9183TIP3    H248965   6.673   0.881   0.259 -1.3225  0.1019 -1.6875
 9184TIP3   OH248966   5.040   2.657   1.562  0.3831  0.1889  0.5023
 9184TIP3    H148967   5.095   2.597   1.511 -0.0250  0.4536 -0.2654
 9184TIP3    H248968   4.956   2.656   1.516  0.9240  2.7490 -0.6170
 9185TIP3   OH248969   3.602   3.004  14.468  0.0735  0.4876  0.0236
 9185TIP3    H148970   3.605   2.928  14.410  0.2392  0.6491 -0.1808
 9185TIP3    H248971   3.509   3.023  14.478  0.0656  0.9068 -0.7807
 9186TIP3   OH248972   5.860   1.473  12.589  0.2325  0.3188  0.9132
 9186TIP3    H148973   5.808   1.458  12.510 -0.2928 -0.3545  1.3779
 9186TIP3    H248974   5.810   1.431  12.659  2.1724 -1.7870  1.1197
 9187TIP3   OH248975   2.732   3.402   5.594  0.3708  0.1056  0.8819
 9187TIP3    H148976   2.776   3.472   5.546  1.3052 -0.9347  0.1980
 9187TIP3    H248977   2.716   3.440   5.681  1.3060  0.9971  0.6778
 9188TIP3   OH248978   4.867   5.718   5.340  0.3105  0.1099 -0.0498
 9188TIP3    H148979   4.821   5.637   5.365 -1.9239  1.0190 -1.0851
 9188TIP3    H248980   4.846   5.730   5.248 -1.0080  2.9168  0.5740
 9189TIP3   OH248981   3.796   6.590   2.647 -0.6787  0.6669  0.1416
 9189TIP3    H148982   3.827   6.577   2.558  0.1278  0.2257  0.4802
 9189TIP3    H248983   3.852   6.659   2.683 -1.4985  1.3850  0.0665
 9190TIP3   OH248984   4.343   3.188  17.238  0.0872 -0.5713 -0.4296
 9190TIP3    H148985   4.436   3.180  17.259  0.4975  3.7642 -0.1829
 9190TIP3    H248986   4.341   3.193  17.142  0.2141  0.2703 -0.3901
 9191TIP3   OH248987   6.339   0.089  13.069  0.3894  0.2769  0.3095
 9191TIP3    H148988   6.355   0.127  13.155  2.4947  1.8817 -0.7273
 9191TIP3    H248989   6.263   0.136  13.035  0.9718  1.2887  0.3797
 9192TIP3   OH248990   0.513   4.602  12.780 -0.1290 -0.0817 -0.7193
 9192TIP3    H148991   0.498   4.618  12.687  0.6752  2.8640 -0.3840
 9192TIP3    H248992   0.497   4.687  12.822  1.6185 -0.8268  1.5618
 9193TIP3   OH248993   0.228   5.273  14.406  0.1300 -0.0974 -0.0087
 9193TIP3    H148994   0.196   5.270  14.316 -1.6703 -0.1927  0.6162
 9193TIP3    H248995   0.242   5.366  14.424 -3.4683  0.3329  0.9301
 9194TIP3   OH248996   0.967   1.067  14.423 -0.3630 -0.4659  0.0730
 9194TIP3    H148997   0.972   1.078  14.328  0.0829  0.1042  0.1592
 9194TIP3    H248998   1.057   1.068  14.453 -0.5383  0.3378  0.6030
 9195TIP3   OH248999   5.957   5.230   0.522  0.0822  0.5886 -0.0041
 9195TIP3    H149000   6.033   5.219   0.579  0.4141  0.2591 -0.5084
 9195TIP3    H249001   5.927   5.140   0.505 -0.4275  0.7158  0.2015
 9196TIP3   OH249002   3.963   1.821  16.191 -0.4297  0.1016 -0.4283
 9196TIP3    H149003   4.034   1.769  16.152 -0.7689  0.0717 -1.0097
 9196TIP3    H249004   3.970   1.906  16.148 -1.2010 -0.1266 -1.0085
 9197TIP3   OH249005   0.281   1.750  16.855  0.0012 -0.3791 -0.0271
 9197TIP3    H149006   0.287   1.846  16.850  0.1486 -0.3341  0.8472
 9197TIP3    H249007   0.195   1.730  16.819 -0.6780  0.2227  1.2126
 9198TIP3   OH249008   3.817   3.692  16.339 -0.6438 -0.4338 -0.0724
 9198TIP3    H149009   3.899   3.692  16.290 -0.4037  1.3006  0.2905
 9198TIP3    H249010   3.750   3.666  16.275  0.1605 -1.7104 -0.4023
 9199TIP3   OH249011   4.686   5.708  13.102  0.3709 -0.0056  0.6445
 9199TIP3    H149012   4.726   5.736  13.184  1.0182  1.6050 -0.1963
 9199TIP3    H249013   4.592   5.724  13.115  0.4691  0.2598  1.0549
 9200TIP3   OH249014   6.530   6.633   0.405  0.5445  0.1587  0.1512
 9200TIP3    H149015   6.569   6.558   0.449 -1.1383 -0.8343 -0.0045
 9200TIP3    H249016   6.603   6.694   0.391  2.0147 -1.6678 -0.2245
 9201TIP3   OH249017   6.756   2.650  17.095  0.1232  0.5331 -0.4843
 9201TIP3    H149018   6.744   2.562  17.131  1.2464  0.6133  0.1012
 9201TIP3    H249019   6.671   2.693  17.110 -0.3526 -0.3614 -0.5516
 9202TIP3   OH249020   0.223   0.629  12.889  0.3834 -0.1516  0.5717
 9202TIP3    H149021   0.176   0.702  12.928  0.4292 -0.4714  1.2283
 9202TIP3    H249022   0.165   0.598  12.819 -0.2391 -0.3382  1.1659
 9203TIP3   OH249023   5.411   0.963  17.213  1.1582 -0.9026  0.4144
 9203TIP3    H149024   5.359   0.971  17.293  0.1988  0.5610 -0.3268
 9203TIP3    H249025   5.482   1.026  17.224  0.0045  0.6037 -0.6382
 9204TIP3   OH249026   2.591   0.490   4.291 -0.1509  0.6942 -0.3377
 9204TIP3    H149027   2.550   0.446   4.366  0.5508  0.0137 -0.3427
 9204TIP3    H249028   2.592   0.582   4.315 -0.9805  0.6238 -0.0076
 9205TIP3   OH249029   0.077   2.067  16.937  0.0466  0.5638  0.4643
 9205TIP3    H149030  -0.017   2.064  16.918  0.2057 -0.4418 -0.2211
 9205TIP3    H249031   0.118   2.085  16.853  0.4499  1.3596  0.8296
 9206TIP3   OH249032   6.260   6.684  14.874  0.2820 -0.1264  0.2476
 9206TIP3    H149033   6.344   6.704  14.914  0.9922 -0.1351 -1.1823
 9206TIP3    H249034   6.254   6.744  14.800 -1.5590  0.7347  1.0670
 9207TIP3   OH249035   5.861   0.253   1.169 -0.2192 -0.6379  0.2267
 9207TIP3    H149036   5.859   0.173   1.116 -0.8690 -0.4079 -0.1052
 9207TIP3    H249037   5.824   0.320   1.112  2.1234  0.3404 -0.2071
 9208TIP3   OH249038   2.259   6.295  15.144  0.7432 -0.2694  0.1598
 9208TIP3    H149039   2.226   6.380  15.172  1.5547  0.4860 -1.1410
 9208TIP3    H249040   2.245   6.238  15.220 -0.8910  0.7200  0.6358
 9209TIP3   OH249041   2.246   0.673   5.370 -0.1839  0.4069 -0.3512
 9209TIP3    H149042   2.159   0.653   5.407  0.6097 -0.4346  1.1200
 9209TIP3    H249043   2.227   0.721   5.289 -1.9935  1.8728  0.8876
 9210TIP3   OH249044   5.003   0.785  11.716  0.0327 -0.6071  0.6909
 9210TIP3    H149045   5.053   0.861  11.748 -0.7725  0.8798 -1.4319
 9210TIP3    H249046   4.956   0.753  11.792 -0.4194  1.7029  1.4211
 9211TIP3   OH249047   1.830   1.849   2.493  0.5293  0.1176 -0.2408
 9211TIP3    H149048   1.818   1.940   2.520  1.7136  0.6292 -1.3917
 9211TIP3    H249049   1.896   1.814   2.553  2.2509  0.8944 -1.6356
 9212TIP3   OH249050   4.100   3.923   1.006 -0.4297 -0.3881  0.0972
 9212TIP3    H149051   4.159   3.992   0.976 -1.1578  0.0782 -0.2728
 9212TIP3    H249052   4.157   3.848   1.021  0.4251  0.3741  0.8120
 9213TIP3   OH249053   0.095   0.456   5.454 -0.1638  0.0643  0.2765
 9213TIP3    H149054   0.128   0.498   5.533 -0.9998  1.2301  0.0242
 9213TIP3    H249055   0.059   0.372   5.484  0.1300  0.2011  1.0175
 9214TIP3   OH249056   6.077   4.480   3.396 -0.6541 -0.2898 -0.1027
 9214TIP3    H149057   6.080   4.475   3.492 -0.8975  1.5056  0.0109
 9214TIP3    H249058   6.014   4.412   3.371 -1.8958  0.3586  1.1428
 9215TIP3   OH249059   2.164   2.915  16.293 -0.1732  0.0769  0.4365
 9215TIP3    H149060   2.246   2.955  16.267  1.1207 -2.9832 -0.4295
 9215TIP3    H249061   2.109   2.920  16.215 -0.1410  0.4510  0.4373
 9216TIP3   OH249062   2.170   2.113   3.222 -0.0101  0.1630 -0.4560
 9216TIP3    H149063   2.218   2.172   3.164 -0.0303  0.2007 -0.4347
 9216TIP3    H249064   2.238   2.058   3.261 -0.1528 -0.9189 -1.7090
 9217TIP3   OH249065   6.196   3.643   2.403  0.1756  0.6637  0.4532
 9217TIP3    H149066   6.182   3.669   2.495  1.1559  1.3754  0.4054
 9217TIP3    H249067   6.107   3.636   2.367 -0.1854  3.2179  0.6982
 9218TIP3   OH249068   1.903   6.047   1.794  0.0781 -0.2204  0.3575
 9218TIP3    H149069   1.848   6.125   1.784  0.9135  0.3202 -0.1201
 9218TIP3    H249070   1.919   6.018   1.705  0.3479 -0.5374  0.5088
 9219TIP3   OH249071   0.805   6.155   3.673 -0.1908 -0.4309  0.3071
 9219TIP3    H149072   0.824   6.244   3.701 -0.3045  0.1762 -1.4392
 9219TIP3    H249073   0.826   6.100   3.748  0.0566  1.0510  1.3348
 9220TIP3   OH249074   3.536   2.386   3.192  0.1867  0.1185 -0.2640
 9220TIP3    H149075   3.629   2.363   3.196  0.0412 -0.7628 -1.4971
 9220TIP3    H249076   3.533   2.465   3.140  0.2835  0.4079  0.1663
 9221TIP3   OH249077   1.242   4.356   1.733  0.5363  0.2962 -0.3493
 9221TIP3    H149078   1.224   4.262   1.728  2.2198  0.0452 -1.9578
 9221TIP3    H249079   1.211   4.381   1.820  2.4610 -2.2662  1.1365
 9222TIP3   OH249080   3.554   2.411   3.547 -0.3822  0.2476 -0.5260
 9222TIP3    H149081   3.481   2.411   3.485  0.1530  0.9155 -1.1565
 9222TIP3    H249082   3.628   2.444   3.497  0.0216  0.9329  0.5054
 9223TIP3   OH249083   6.612   1.029   1.067  0.0512 -0.1427 -0.0330
 9223TIP3    H149084   6.609   0.948   1.118  1.1295 -1.2944 -1.7474
 9223TIP3    H249085   6.537   1.023   1.008  0.6950 -0.3664 -0.8360
 9224TIP3   OH249086   4.183   1.725   3.624 -0.0687 -0.0223 -0.3429
 9224TIP3    H149087   4.264   1.759   3.663  1.0253 -4.5136  1.6518
 9224TIP3    H249088   4.114   1.774   3.669  1.4116  0.7363  1.2010
 9225TIP3   OH249089   0.820   3.881  11.436 -0.2536  0.6840 -0.0213
 9225TIP3    H149090   0.766   3.915  11.508  0.6321 -0.1969  1.0781
 9225TIP3    H249091   0.902   3.930  11.443 -0.0859  0.4415 -0.2993
 9226TIP3   OH249092   3.453   2.736   5.920  0.0964 -0.2301 -0.0082
 9226TIP3    H149093   3.494   2.663   5.966 -1.5373 -0.9568  0.3442
 9226TIP3    H249094   3.447   2.805   5.986  1.4297  0.1556 -0.2763
 9227TIP3   OH249095   6.469   5.632   1.905  0.0179  0.3703 -0.0879
 9227TIP3    H149096   6.518   5.577   1.844 -0.6382 -0.4827  0.1422
 9227TIP3    H249097   6.397   5.667   1.852 -0.2913 -0.0039  0.0904
 9228TIP3   OH249098   4.373   4.395  11.031 -0.2711 -0.0394 -0.3237
 9228TIP3    H149099   4.406   4.342  10.959  0.9662  0.1895  0.0581
 9228TIP3    H249100   4.352   4.480  10.991  1.1533  0.3456 -0.2940
 9229TIP3   OH249101   5.357   3.770  14.428 -0.0566  0.6142 -0.1554
 9229TIP3    H149102   5.348   3.699  14.491 -2.2903  0.4823 -0.5962
 9229TIP3    H249103   5.434   3.746  14.377 -0.7788 -1.5115 -0.3099
 9230TIP3   OH249104   4.215   3.523  14.920 -0.0482  0.3709 -0.0741
 9230TIP3    H149105   4.181   3.436  14.901 -0.5872 -0.0234  2.5368
 9230TIP3    H249106   4.308   3.509  14.938 -0.1387  0.3141  0.3625
 9231TIP3   OH249107   3.717   3.338  14.192  0.2200  0.4407  0.1925
 9231TIP3    H149108   3.674   3.262  14.153 -1.2643  1.6872 -0.6312
 9231TIP3    H249109   3.653   3.373  14.253  0.6708  1.4088  0.1123
 9232TIP3   OH249110   4.767   4.927   5.362  0.6172 -0.0513  0.2042
 9232TIP3    H149111   4.688   4.981   5.359 -1.2397 -2.7317 -0.6638
 9232TIP3    H249112   4.833   4.984   5.402 -1.7962  2.1555  1.2054
 9233TIP3   OH249113   0.131   2.593   3.124  0.0566 -0.4557  0.2482
 9233TIP3    H149114   0.148   2.601   3.031  0.2610  2.0008  0.4522
 9233TIP3    H249115   0.192   2.655   3.165 -1.5381  0.1156  1.8301
 9234TIP3   OH249116   2.581   3.454   6.821  0.2180 -0.1614  0.2613
 9234TIP3    H149117   2.590   3.484   6.731 -0.4118  0.2896  0.3403
 9234TIP3    H249118   2.643   3.382   6.829 -0.6658 -1.0524 -0.9015
 9235TIP3   OH249119   0.665   1.999  15.427  0.2583  0.3190 -0.0422
 9235TIP3    H149120   0.721   2.025  15.500  0.9947  0.1362 -0.5249
 9235TIP3    H249121   0.727   1.964  15.362 -0.3992  0.3605 -0.6905
 9236TIP3   OH249122   0.208   3.858  10.344  0.3195 -0.2713 -0.1124
 9236TIP3    H149123   0.268   3.910  10.290 -0.2790 -1.1200 -1.6177
 9236TIP3    H249124   0.266   3.806  10.400  0.9236  2.4634  1.8956
 9237TIP3   OH249125   1.966   1.463   0.457  0.1054 -0.4447  0.3153
 9237TIP3    H149126   2.035   1.400   0.476  1.4256  1.3581  1.6784
 9237TIP3    H249127   1.890   1.409   0.434  1.0440 -2.5273  1.8996
 9238TIP3   OH249128   5.823   6.216  12.562  0.5355  0.2014 -0.3068
 9238TIP3    H149129   5.801   6.218  12.655 -0.3041 -1.4273 -0.4535
 9238TIP3    H249130   5.919   6.217  12.560  0.5521  0.5408  0.5717
 9239TIP3   OH249131   2.295   4.773  14.639  0.1017 -0.8243  0.1289
 9239TIP3    H149132   2.249   4.774  14.555 -0.7369 -1.0184  0.5750
 9239TIP3    H249133   2.359   4.703  14.630 -0.8990 -1.7639  0.1125
 9240TIP3   OH249134   5.932   2.753  11.684 -0.3846 -0.1105 -0.4321
 9240TIP3    H149135   5.863   2.815  11.706 -0.7845 -0.9161  0.6797
 9240TIP3    H249136   5.904   2.714  11.601 -1.2767 -0.4273  0.0073
 9241TIP3   OH249137   5.544   1.180  10.241 -0.3160  0.3790 -0.6421
 9241TIP3    H149138   5.529   1.238  10.315 -2.1687 -1.0616  0.1364
 9241TIP3    H249139   5.616   1.123  10.270 -1.7063 -0.8398  0.4592
 9242TIP3   OH249140   0.205   0.476   0.078 -0.3198  0.1973 -0.3003
 9242TIP3    H149141   0.122   0.468   0.031  0.1503 -1.4696 -0.9192
 9242TIP3    H249142   0.268   0.502   0.011 -0.2622  1.0895  0.0923
 9243TIP3   OH249143   3.344   1.736  16.717  0.7435  0.3634  0.0788
 9243TIP3    H149144   3.249   1.728  16.704  0.6661  2.1505 -0.7366
 9243TIP3    H249145   3.369   1.657  16.765 -1.3704  0.4629  1.4257
 9244TIP3   OH249146   3.116   6.716   5.346 -0.1589 -0.0895 -0.3132
 9244TIP3    H149147   3.067   6.648   5.391 -0.8311  1.4208  1.2875
 9244TIP3    H249148   3.058   6.746   5.276 -0.1061 -0.7347 -0.6313
 9245TIP3   OH249149   2.804   3.185  13.249 -0.7118  0.2534 -0.5508
 9245TIP3    H149150   2.718   3.154  13.278 -0.3070  0.2348  0.6487
 9245TIP3    H249151   2.831   3.248  13.315 -0.0353  0.6799 -1.2139
 9246TIP3   OH249152   2.874   1.994   1.436 -0.8977  0.2665 -0.3803
 9246TIP3    H149153   2.821   1.987   1.515 -0.9661  0.8719 -0.3734
 9246TIP3    H249154   2.905   2.084   1.435 -0.6098  0.1673 -0.8621
 9247TIP3   OH249155   0.374   2.444  14.190 -0.8694  0.6765 -0.3834
 9247TIP3    H149156   0.460   2.402  14.186 -0.6603  1.1803 -1.2448
 9247TIP3    H249157   0.331   2.402  14.265  0.6678  1.4517  0.9604
 9248TIP3   OH249158   1.203   5.874  13.663 -0.1414  0.2976  0.0860
 9248TIP3    H149159   1.179   5.957  13.705 -0.8878  0.1005  0.0631
 9248TIP3    H249160   1.162   5.879  13.577  1.3878  0.6992 -0.6227
 9249TIP3   OH249161   5.041   0.818   0.805  0.0301 -0.0032 -0.8374
 9249TIP3    H149162   4.994   0.883   0.753  1.5005  0.1062 -2.0833
 9249TIP3    H249163   5.075   0.866   0.879 -2.1377 -0.1688  0.3059
 9250TIP3   OH249164   4.778   0.361   0.026 -0.7991 -0.0790 -0.3639
 9250TIP3    H149165   4.754   0.329   0.113 -1.3308  3.6889  0.9645
 9250TIP3    H249166   4.707   0.331  -0.030 -2.5160  0.7197  1.2923
 9251TIP3   OH249167   6.506   1.997  13.193 -0.1255  0.2589  0.2728
 9251TIP3    H149168   6.559   2.062  13.239 -0.5594  0.4255  0.5359
 9251TIP3    H249169   6.494   1.926  13.256 -2.9428  1.6404  1.3641
 9252TIP3   OH249170   3.054   6.225   1.601 -0.2181 -0.3460  0.1283
 9252TIP3    H149171   3.068   6.277   1.680 -0.7023 -0.6014  0.3855
 9252TIP3    H249172   2.974   6.175   1.619 -0.8163  0.2195 -0.8528
 9253TIP3   OH249173   0.529   5.316  14.773 -0.5775  0.1041 -0.2142
 9253TIP3    H149174   0.439   5.321  14.740 -0.8088 -1.1955  0.1877
 9253TIP3    H249175   0.582   5.300  14.695 -0.8750 -0.7082 -0.2531
 9254TIP3   OH249176   3.615   5.391  17.171  0.3787 -0.8148 -0.5438
 9254TIP3    H149177   3.560   5.469  17.159  0.4210 -0.7336 -0.2242
 9254TIP3    H249178   3.623   5.354  17.083  0.9043 -0.0848 -0.8083
 9255TIP3   OH249179   4.045   1.119   6.342  0.1977  0.1296 -0.4674
 9255TIP3    H149180   4.036   1.033   6.382 -0.2572 -0.2371 -1.3392
 9255TIP3    H249181   3.955   1.148   6.327  0.2296  2.2025  2.8126
 9256TIP3   OH249182   6.072   6.408   5.212  0.2669  0.7057 -0.4861
 9256TIP3    H149183   6.022   6.365   5.280 -0.7274  0.4816 -1.3514
 9256TIP3    H249184   6.150   6.354   5.202 -0.8408 -0.7572 -1.3780
 9257TIP3   OH249185   1.784   3.948  15.297  0.3353  0.5948 -0.6461
 9257TIP3    H149186   1.759   3.923  15.386 -1.2869  2.1349 -0.6307
 9257TIP3    H249187   1.826   4.033  15.307 -0.1656  0.9348 -1.3674
 9258TIP3   OH249188   2.222   0.594  15.326 -0.2629  0.0874 -0.3419
 9258TIP3    H149189   2.198   0.512  15.369  1.7388 -1.3077 -1.7807
 9258TIP3    H249190   2.225   0.658  15.397  1.4498 -1.8228  1.3665
 9259TIP3   OH249191   6.612   3.998  13.710 -0.8109 -0.1144  0.5039
 9259TIP3    H149192   6.641   4.034  13.626  1.2148  0.0024  1.2298
 9259TIP3    H249193   6.532   3.950  13.689 -1.2031  1.2240 -1.2178
 9260TIP3   OH249194   3.775   6.610  12.379 -0.2241 -0.4821 -0.3820
 9260TIP3    H149195   3.749   6.613  12.471  1.2017 -1.0105  0.0525
 9260TIP3    H249196   3.870   6.619  12.381 -0.2466  0.1881 -1.8530
 9261TIP3   OH249197   0.582   0.422  12.853 -0.0874 -0.1882  0.0556
 9261TIP3    H149198   0.492   0.397  12.873 -0.0265 -0.1094  0.4386
 9261TIP3    H249199   0.635   0.372  12.915  0.1357 -0.2611 -0.1941
 9262TIP3   OH249200   5.054   2.313  15.893 -0.2117  0.1298  0.5400
 9262TIP3    H149201   5.083   2.279  15.809  0.3531 -0.2380  0.8738
 9262TIP3    H249202   5.120   2.379  15.916 -1.6755  1.9660 -0.4287
 9263TIP3   OH249203   3.198   4.949  11.765  0.3003  0.3672 -0.1086
 9263TIP3    H149204   3.241   4.912  11.688  0.6325 -0.0972  0.2969
 9263TIP3    H249205   3.122   4.995  11.730  0.1616 -0.2745 -0.6726
 9264TIP3   OH249206   0.412   3.138  13.175  0.1896  0.2363  0.6238
 9264TIP3    H149207   0.418   3.109  13.266  2.6049 -0.8128  0.1716
 9264TIP3    H249208   0.363   3.068  13.131  0.3420  0.0119  0.8099
 9265TIP3   OH249209   2.628   6.660   5.387 -0.0710 -0.3541 -0.0225
 9265TIP3    H149210   2.617   6.737   5.332 -1.2917  0.1204  0.8610
 9265TIP3    H249211   2.604   6.586   5.331  0.9022 -0.0799 -0.8063
 9266TIP3   OH249212   5.104   1.964   5.801 -0.3525 -0.0460  0.8096
 9266TIP3    H149213   5.157   1.994   5.875  1.1270 -1.3476  0.3270
 9266TIP3    H249214   5.069   1.880   5.830 -1.2611  0.3046  0.7182
 9267TIP3   OH249215   4.655   5.623   1.503 -0.4181 -0.5271 -0.2045
 9267TIP3    H149216   4.711   5.615   1.580  0.3759 -2.9949 -0.9773
 9267TIP3    H249217   4.597   5.696   1.523  1.8760  0.9252  1.3690
 9268TIP3   OH249218   3.309   2.998  11.848 -0.3024 -0.0516 -0.3381
 9268TIP3    H149219   3.268   2.990  11.762 -1.2577 -1.6238  0.2531
 9268TIP3    H249220   3.236   2.995  11.910  0.5329 -0.7815  0.6182
 9269TIP3   OH249221   3.100   2.441  14.924 -0.3170 -0.0167 -0.1899
 9269TIP3    H149222   3.083   2.491  15.004 -2.2433  0.4662 -0.8476
 9269TIP3    H249223   3.102   2.350  14.952 -1.8316  0.0823  0.3170
 9270TIP3   OH249224   4.536   3.381  13.122 -0.5422  0.1152  0.1662
 9270TIP3    H149225   4.625   3.361  13.094 -0.9012  0.4659 -1.2713
 9270TIP3    H249226   4.480   3.338  13.057 -1.3738  2.6265 -0.8734
 9271TIP3   OH249227   3.281   4.406   2.765  0.1534  0.7110  0.4835
 9271TIP3    H149228   3.222   4.453   2.707 -0.9898 -1.3858 -0.0953
 9271TIP3    H249229   3.358   4.388   2.711 -0.1001  0.4612  0.2046
 9272TIP3   OH249230   0.659   1.806   0.306 -0.2792 -0.0548 -0.5930
 9272TIP3    H149231   0.674   1.827   0.213 -0.0207  0.9047 -0.3382
 9272TIP3    H249232   0.593   1.870   0.334 -0.9794 -0.8844 -0.3274
 9273TIP3   OH249233   5.789   4.903  15.583  0.2769  0.5573 -0.0001
 9273TIP3    H149234   5.819   4.978  15.533 -0.5038  0.6811 -0.2839
 9273TIP3    H249235   5.722   4.938  15.642 -1.4012 -0.2283 -1.4125
 9274TIP3   OH249236   0.096   5.776  12.180 -0.0441 -0.0678 -0.1996
 9274TIP3    H149237   0.132   5.691  12.206  0.7056  0.5037  0.6330
 9274TIP3    H249238   0.065   5.762  12.090  2.5481 -0.4950 -1.0787
 9275TIP3   OH249239   6.487   2.936  16.796 -0.1300  0.0867 -0.2044
 9275TIP3    H149240   6.444   2.967  16.876 -1.1853 -1.9134  0.0571
 9275TIP3    H249241   6.414   2.911  16.739  0.6477 -0.3014 -1.0308
 9276TIP3   OH249242   6.548   5.150  15.975 -0.1411 -0.0719 -0.1359
 9276TIP3    H149243   6.580   5.061  15.961  1.3776  0.4914 -0.3819
 9276TIP3    H249244   6.460   5.151  15.937 -0.1712 -1.4588 -0.1240
 9277TIP3   OH249245   3.058   1.626  16.716 -0.4214  0.4892  0.5282
 9277TIP3    H149246   2.965   1.643  16.731 -1.8390 -4.9733 -0.8952
 9277TIP3    H249247   3.089   1.589  16.798 -0.6708 -1.6728 -0.3134
 9278TIP3   OH249248   3.785   6.278  15.595 -0.2624 -0.2337 -0.1486
 9278TIP3    H149249   3.833   6.314  15.521  0.0986  0.3390  0.3549
 9278TIP3    H249250   3.766   6.354  15.651  1.3982 -0.9494  1.4359
 9279TIP3   OH249251   4.117   2.910   2.837  0.4139  0.3796 -0.0425
 9279TIP3    H149252   4.141   2.835   2.892 -0.6095 -0.0899 -0.2041
 9279TIP3    H249253   4.021   2.904   2.831  0.4245  1.0753 -0.9498
 9280TIP3   OH249254   2.630   2.682   4.990  0.2044 -0.1163  0.5381
 9280TIP3    H149255   2.693   2.620   5.028 -0.9534 -0.8630  1.2796
 9280TIP3    H249256   2.546   2.655   5.026 -0.8695 -0.5274 -2.2072
 9281TIP3   OH249257   1.826   4.398   2.618  0.3435  0.2413  0.1589
 9281TIP3    H149258   1.895   4.414   2.554 -0.2229  0.9573 -0.2840
 9281TIP3    H249259   1.795   4.485   2.643  0.3175 -0.0395  1.1439
 9282TIP3   OH249260   4.152   2.062   3.277  0.4764  0.3182 -0.1827
 9282TIP3    H149261   4.131   2.124   3.206  1.8284 -0.6570 -1.4687
 9282TIP3    H249262   4.239   2.089   3.306 -0.0529  0.6765  1.0859
 9283TIP3   OH249263   5.016   2.095   1.098 -0.5438 -0.2613  0.0567
 9283TIP3    H149264   4.966   2.126   1.022  0.1913 -1.1539 -0.8151
 9283TIP3    H249265   5.105   2.129   1.084  0.1824 -2.3563 -0.7172
 9284TIP3   OH249266   2.095   0.859  14.313 -0.2118  0.2571 -0.4252
 9284TIP3    H149267   2.081   0.941  14.266 -0.5952  0.3397 -0.1672
 9284TIP3    H249268   2.188   0.861  14.335 -0.2228  0.6388 -0.3963
 9285TIP3   OH249269   3.504   5.552  13.020  0.6595  0.6547  0.5289
 9285TIP3    H149270   3.443   5.595  13.079 -1.4463 -2.3268  0.6461
 9285TIP3    H249271   3.450   5.519  12.949  2.1259 -1.7971  0.4705
 9286TIP3   OH249272   3.179   2.413  12.297  0.3401  0.1115  0.0540
 9286TIP3    H149273   3.263   2.367  12.288  0.2700  0.2888 -1.8691
 9286TIP3    H249274   3.132   2.391  12.216 -0.9807  0.9718  0.5884
 9287TIP3   OH249275   0.189   3.646  13.867  0.0262 -0.3955  0.2738
 9287TIP3    H149276   0.249   3.652  13.942  1.9415  1.0570 -1.3129
 9287TIP3    H249277   0.190   3.734  13.829 -0.0846 -1.3703 -2.0640
 9288TIP3   OH249278   1.787   1.097   4.978  0.1410  0.6091 -0.3193
 9288TIP3    H149279   1.841   1.028   5.016 -0.8697 -0.4315 -0.7507
 9288TIP3    H249280   1.723   1.050   4.924 -0.7383  1.8713 -0.3810
 9289TIP3   OH249281   3.108   6.742   2.313 -0.0971 -0.7441 -0.0613
 9289TIP3    H149282   3.184   6.790   2.279 -0.9960 -0.3758 -1.5891
 9289TIP3    H249283   3.126   6.651   2.291 -0.8420 -0.4678 -1.9140
 9290TIP3   OH249284   4.211   2.118  12.814 -0.4730  0.4921  0.3176
 9290TIP3    H149285   4.203   2.127  12.908  0.8289 -2.6297  0.8062
 9290TIP3    H249286   4.121   2.119  12.781 -1.0125  0.0058  1.7757
 9291TIP3   OH249287   1.359   5.948   0.255 -0.2826  0.2589  0.0232
 9291TIP3    H149288   1.370   6.042   0.243 -0.3514  0.2495 -0.1131
 9291TIP3    H249289   1.344   5.914   0.167  0.5973  0.0084 -0.0370
 9292TIP3   OH249290   3.363   4.713  13.493  0.2361 -0.0300 -0.2950
 9292TIP3    H149291   3.422   4.747  13.426  0.9824  0.1035  0.4187
 9292TIP3    H249292   3.365   4.618  13.480  0.3692 -0.0051 -0.4717
 9293TIP3   OH249293   5.975   6.229  16.503 -0.0109 -0.3292  0.8703
 9293TIP3    H149294   5.926   6.305  16.535 -0.2720  0.0196 -0.3315
 9293TIP3    H249295   6.053   6.266  16.462 -0.7285 -0.6348 -0.7707
 9294TIP3   OH249296   2.038   1.206   5.015  0.3341 -0.0859  0.6500
 9294TIP3    H149297   2.099   1.147   4.971 -0.6865 -1.4223  1.0094
 9294TIP3    H249298   1.952   1.170   4.996 -0.5587  3.1659 -1.9500
 9295TIP3   OH249299   2.631   6.212   0.749  0.1156  0.3985  0.1363
 9295TIP3    H149300   2.639   6.298   0.791  0.9335 -0.0304  0.8548
 9295TIP3    H249301   2.674   6.223   0.664  0.3723  0.6428  0.2975
 9296TIP3   OH249302   2.988   6.222  17.162 -0.0335  0.0918  0.0599
 9296TIP3    H149303   3.078   6.191  17.150  0.1479 -0.0447  1.6843
 9296TIP3    H249304   2.991   6.316  17.143  0.5407  0.1664  0.5232
 9297TIP3   OH249305   5.045   2.170  15.107  0.1347  1.1313  0.0444
 9297TIP3    H149306   5.043   2.173  15.203  0.2036  0.1728  0.0754
 9297TIP3    H249307   5.032   2.078  15.085  0.2004  1.3324 -0.8704
 9298TIP3   OH249308   2.086   2.441   2.281 -0.3604  0.3375 -0.1318
 9298TIP3    H149309   2.002   2.481   2.305  0.4131  0.4926  2.4920
 9298TIP3    H249310   2.062   2.353   2.253 -1.4938  0.6711 -0.2681
 9299TIP3   OH249311   2.121   0.944   3.912  0.7501 -0.2099 -0.2986
 9299TIP3    H149312   2.179   1.000   3.964 -0.8953 -0.3210  1.7071
 9299TIP3    H249313   2.049   1.001   3.886  0.2627 -0.8018 -0.2649
 9300TIP3   OH249314   5.354   1.506   5.419  0.1824  0.6122  0.4500
 9300TIP3    H149315   5.319   1.441   5.480  0.0171 -0.9534 -1.2427
 9300TIP3    H249316   5.304   1.586   5.437 -2.1394 -0.7279  0.1574
 9301TIP3   OH249317   1.294   1.272   3.132  0.0900 -0.0678  0.7504
 9301TIP3    H149318   1.339   1.207   3.078 -0.7941 -0.1068  0.0481
 9301TIP3    H249319   1.291   1.351   3.077  0.8045  0.4526  1.4456
 9302TIP3   OH249320   2.497   3.120  12.833  0.5048 -0.0196 -0.4963
 9302TIP3    H149321   2.493   3.056  12.762 -0.6849  0.7202 -1.1159
 9302TIP3    H249322   2.557   3.081  12.897  1.9344 -0.4950 -2.0850
 9303TIP3   OH249323   2.392   1.334  14.479  0.8290  0.0143  0.0379
 9303TIP3    H149324   2.327   1.280  14.524 -0.5767  1.2677 -0.4354
 9303TIP3    H249325   2.420   1.281  14.404 -0.8492  0.0799 -0.6666
 9304TIP3   OH249326   4.652   6.623  13.759 -0.3247 -0.7883  0.0494
 9304TIP3    H149327   4.677   6.633  13.668 -0.9470  0.7608  0.0280
 9304TIP3    H249328   4.666   6.530  13.779  4.0351 -0.2807 -0.3124
 9305TIP3   OH249329   0.337   4.218   1.124  0.2489 -0.1580  0.1671
 9305TIP3    H149330   0.366   4.309   1.131 -1.3612  0.2448  1.9193
 9305TIP3    H249331   0.417   4.167   1.137  1.2431  0.9716 -1.1926
 9306TIP3   OH249332   3.964   3.470   0.872  0.9868 -0.5154 -0.2260
 9306TIP3    H149333   3.947   3.468   0.966  1.9684  0.0600 -0.0366
 9306TIP3    H249334   3.974   3.562   0.851 -1.8181 -0.3969 -1.3851
 9307TIP3   OH249335   6.355   1.318  14.075 -0.0171  0.1803  0.3781
 9307TIP3    H149336   6.394   1.332  14.161 -2.3662  0.4574  1.4166
 9307TIP3    H249337   6.291   1.389  14.065 -0.3375 -0.3110 -1.2544
 9308TIP3   OH249338   4.470   6.756  12.256  0.3674 -0.0520  0.3245
 9308TIP3    H149339   4.511   6.747  12.170  0.2045  0.9680  0.1321
 9308TIP3    H249340   4.521   6.824  12.300  1.5038 -1.7377  1.6827
 9309TIP3   OH249341   2.230   2.761  15.010  0.0064 -0.1828  0.2139
 9309TIP3    H149342   2.323   2.744  14.998  0.1893  0.7613  0.2669
 9309TIP3    H249343   2.191   2.742  14.925  0.5825  1.6748 -0.4845
 9310TIP3   OH249344   3.081   5.471  15.234 -0.0037 -0.2598 -0.0883
 9310TIP3    H149345   3.097   5.563  15.255  1.8732 -0.5322 -0.1894
 9310TIP3    H249346   3.144   5.451  15.165  0.4488 -1.9294  0.7873
 9311TIP3   OH249347   1.389   3.350  14.480  0.2768  0.7225  0.6317
 9311TIP3    H149348   1.393   3.436  14.436  0.6754 -0.5433 -1.9213
 9311TIP3    H249349   1.303   3.348  14.521 -0.1584  1.9495 -0.1804
 9312TIP3   OH249350   6.625   5.913  12.989  0.2747  0.1506  0.0276
 9312TIP3    H149351   6.660   5.944  13.072  1.8328 -0.3347 -0.4348
 9312TIP3    H249352   6.662   5.972  12.923 -0.7325  0.3639 -0.3662
 9313TIP3   OH249353   2.348   3.151  15.107  0.8399 -0.1108  0.7435
 9313TIP3    H149354   2.337   3.127  15.199  0.2906 -0.9854  0.4512
 9313TIP3    H249355   2.310   3.238  15.100  0.3151 -0.3008  1.2097
 9314TIP3   OH249356   5.141   1.176  14.318  0.0450  0.6383  0.0807
 9314TIP3    H149357   5.090   1.220  14.386  0.7011  0.9233  0.3919
 9314TIP3    H249358   5.210   1.130  14.365  0.6176  0.9922 -0.4008
 9315TIP3   OH249359   4.197   2.398  12.712 -0.3864  0.5709 -0.2512
 9315TIP3    H149360   4.182   2.305  12.729 -0.1538  0.6264  0.2820
 9315TIP3    H249361   4.286   2.414  12.744  0.2791  0.5581 -2.0681
 9316TIP3   OH249362   2.730   2.504   2.682 -0.3413  0.0340  0.3172
 9316TIP3    H149363   2.711   2.514   2.776 -0.0786 -1.1410  0.4944
 9316TIP3    H249364   2.658   2.453   2.648  1.1843 -2.3100  0.5140
 9317TIP3   OH249365   6.283   6.252   3.182 -0.2997 -0.0458 -0.4256
 9317TIP3    H149366   6.355   6.211   3.230 -0.7032 -0.5855 -0.2778
 9317TIP3    H249367   6.326   6.306   3.116  0.2592  0.6946  0.5362
 9318TIP3   OH249368   0.474   3.833   4.262 -0.2100 -0.3634 -0.5911
 9318TIP3    H149369   0.560   3.869   4.282  0.5320 -1.5719 -1.6001
 9318TIP3    H249370   0.488   3.739   4.252 -2.2208 -1.0879  2.5607
 9319TIP3   OH249371   3.229   2.882  12.224  0.1621  0.4951 -0.2036
 9319TIP3    H149372   3.319   2.847  12.229  0.1039  0.2726 -0.6809
 9319TIP3    H249373   3.189   2.833  12.152 -1.0181 -0.9463  1.3943
 9320TIP3   OH249374   5.425   3.088   2.829  0.3415  0.4915  0.1919
 9320TIP3    H149375   5.374   3.105   2.750  1.3324  0.6468 -0.4275
 9320TIP3    H249376   5.514   3.073   2.797  0.5638 -0.4069  1.1980
 9321TIP3   OH249377   1.636   3.776   0.522  0.5029  0.5603 -0.5943
 9321TIP3    H149378   1.574   3.808   0.587  0.8883 -0.9667  0.5289
 9321TIP3    H249379   1.608   3.818   0.440 -2.4038 -0.5741 -0.2500
 9322TIP3   OH249380   3.820   1.713  15.142  0.0330 -0.5743  0.2354
 9322TIP3    H149381   3.914   1.698  15.146  0.1183  0.1522  1.1299
 9322TIP3    H249382   3.810   1.795  15.094 -0.1546 -0.6964  0.0626
 9323TIP3   OH249383   5.319   0.210  15.699 -0.6458 -0.3770  0.1963
 9323TIP3    H149384   5.231   0.239  15.724 -0.6312  0.4845 -0.7466
 9323TIP3    H249385   5.377   0.250  15.763 -0.8877 -0.5597  0.5320
 9324TIP3   OH249386   2.638   4.145   4.181  0.3974 -0.0859 -0.3433
 9324TIP3    H149387   2.731   4.121   4.184 -0.3442 -3.1757 -0.0013
 9324TIP3    H249388   2.621   4.186   4.265  1.2581 -0.3096 -0.0535
 9325TIP3   OH249389   3.134   6.001  15.897  0.1372  0.6472  0.5350
 9325TIP3    H149390   3.197   5.931  15.877  0.7800  0.6318  2.4520
 9325TIP3    H249391   3.051   5.956  15.911  0.5212  0.2426  1.6312
 9326TIP3   OH249392   2.204   2.687   6.711 -0.1889 -0.3141 -0.0796
 9326TIP3    H149393   2.223   2.743   6.635  0.7617 -0.8354 -0.2259
 9326TIP3    H249394   2.252   2.607   6.694 -0.1692 -0.5196  0.9722
 9327TIP3   OH249395   4.509   1.124   3.802  0.5773  0.0785  0.4606
 9327TIP3    H149396   4.465   1.060   3.747 -0.5136 -0.7859  2.2920
 9327TIP3    H249397   4.481   1.209   3.767 -1.3507 -0.4604  0.6541
 9328TIP3   OH249398   5.935   6.115  15.448  0.0838 -0.2805  0.4920
 9328TIP3    H149399   5.881   6.096  15.525  0.3635 -0.8690  0.5407
 9328TIP3    H249400   6.003   6.174  15.480 -1.3647  1.6410  0.1330
 9329TIP3   OH249401   4.767   5.818   4.516 -0.5077  0.3224  0.0274
 9329TIP3    H149402   4.698   5.815   4.581 -1.1110 -1.0989 -0.6543
 9329TIP3    H249403   4.783   5.912   4.501 -2.2062  0.6556  0.2668
 9330TIP3   OH249404   6.598   1.495  14.946 -0.1756 -0.1567  0.1214
 9330TIP3    H149405   6.663   1.564  14.956 -2.7989  2.3990  0.1713
 9330TIP3    H249406   6.579   1.492  14.852  0.9023 -1.7967 -0.0735
 9331TIP3   OH249407   5.281   4.483  11.224  0.4363 -0.0908 -0.0067
 9331TIP3    H149408   5.200   4.530  11.202  0.3865  1.0994  2.5513
 9331TIP3    H249409   5.334   4.488  11.144 -0.9203  1.4900 -0.8455
 9332TIP3   OH249410   1.416   5.770   6.521  0.4188  0.7679  0.7069
 9332TIP3    H149411   1.456   5.847   6.480 -0.3499 -0.8605 -3.3374
 9332TIP3    H249412   1.489   5.709   6.535  0.1584 -0.2696 -2.1413
 9333TIP3   OH249413   5.644   4.398  12.357  0.7352 -0.2015 -0.1382
 9333TIP3    H149414   5.686   4.380  12.441 -0.4175  0.3827  0.5901
 9333TIP3    H249415   5.596   4.317  12.337 -0.6804  0.3800  0.8211
 9334TIP3   OH249416   3.646   0.693   0.488  0.4895  0.0757  0.2523
 9334TIP3    H149417   3.601   0.736   0.560  0.8463  1.3849 -0.2871
 9334TIP3    H249418   3.624   0.746   0.411 -2.2570 -2.9558 -1.1291
 9335TIP3   OH249419   4.236   1.372  11.613  0.3383  0.0531  0.2297
 9335TIP3    H149420   4.320   1.348  11.651  0.7804 -0.6208 -1.1316
 9335TIP3    H249421   4.174   1.366  11.686  1.3261 -0.2098  1.0606
 9336TIP3   OH249422   0.830   5.427  11.272 -0.4938 -0.5626  0.4298
 9336TIP3    H149423   0.816   5.382  11.188  0.5279 -0.4473  0.1970
 9336TIP3    H249424   0.819   5.519  11.251  0.5166 -0.4786  0.2672
 9337TIP3   OH249425   5.628   2.327   0.321  0.4235 -0.1658  0.4010
 9337TIP3    H149426   5.674   2.285   0.394  0.3989 -0.2117  0.3903
 9337TIP3    H249427   5.676   2.298   0.243  1.0651  0.6914  0.4770
 9338TIP3   OH249428   0.725   0.752   4.308  0.0855 -0.0461 -0.0799
 9338TIP3    H149429   0.813   0.744   4.272  1.3985  1.0291  2.8082
 9338TIP3    H249430   0.730   0.822   4.372 -2.8854  0.0492  0.1445
 9339TIP3   OH249431   1.382   0.882  14.262  0.8177 -0.5733 -0.4265
 9339TIP3    H149432   1.333   0.946  14.314  1.6983  1.6425 -2.2287
 9339TIP3    H249433   1.472   0.890  14.292  1.0840 -0.3153 -1.2868
 9340TIP3   OH249434   3.590   3.544   5.409 -0.4184 -0.0545 -0.4134
 9340TIP3    H149435   3.535   3.559   5.486 -1.4641 -3.1333 -0.4727
 9340TIP3    H249436   3.620   3.453   5.418  2.8667  0.8486 -1.5428
 9341TIP3   OH249437   5.638   3.984   1.918 -0.2937  0.7289  0.7818
 9341TIP3    H149438   5.622   3.960   2.009  0.6244 -1.2524  0.4307
 9341TIP3    H249439   5.592   3.918   1.867  1.0131  0.5508 -0.1924
 9342TIP3   OH249440   6.231   2.347  12.594 -0.1473 -0.4024  0.0497
 9342TIP3    H149441   6.180   2.325  12.516 -1.3058  1.1692  0.3435
 9342TIP3    H249442   6.314   2.300  12.583  0.9322  2.2053 -3.5976
 9343TIP3   OH249443   0.091   3.911   3.175 -0.0365  0.0613 -0.0037
 9343TIP3    H149444   0.063   3.886   3.263  1.2633 -2.6449 -0.3015
 9343TIP3    H249445   0.018   3.886   3.118  0.2602 -0.8231 -0.0056
 9344TIP3   OH249446   1.422   4.508   5.675 -0.1811  0.0646 -0.2158
 9344TIP3    H149447   1.329   4.493   5.690  0.1051  0.4197  1.9883
 9344TIP3    H249448   1.455   4.423   5.645 -1.1020 -0.2035 -0.4921
 9345TIP3   OH249449   1.742   6.330   1.995 -0.0510  0.4425  0.1102
 9345TIP3    H149450   1.825   6.293   2.025 -0.2559 -0.2998 -0.2110
 9345TIP3    H249451   1.682   6.318   2.068  0.5282  2.4089  0.9231
 9346TIP3   OH249452   1.006   2.747  13.712 -0.0902  0.3745 -0.7622
 9346TIP3    H149453   1.054   2.664  13.711  1.4828  1.2607 -0.8008
 9346TIP3    H249454   0.930   2.730  13.767  1.2467 -0.5400  0.8344
 9347TIP3   OH249455   0.863   2.407   2.864  0.0852 -0.5736 -0.2580
 9347TIP3    H149456   0.901   2.389   2.950 -1.5222  0.6533  0.7365
 9347TIP3    H249457   0.919   2.476   2.827  0.5093 -0.7906 -0.0296
 9348TIP3   OH249458   1.894   2.618   5.981 -0.0622 -0.0122 -0.3824
 9348TIP3    H149459   1.833   2.602   6.053  0.3092  0.8989  0.1433
 9348TIP3    H249460   1.843   2.667   5.917 -0.0093  0.3517 -0.1449
 9349TIP3   OH249461   4.115   0.606  13.371  0.2081 -0.1530  0.0461
 9349TIP3    H149462   4.204   0.614  13.338  0.1804  0.3212  0.0713
 9349TIP3    H249463   4.065   0.669  13.318  0.0961  0.3604  0.7556
 9350TIP3   OH249464   5.165   4.173   0.757 -0.2274  0.1185  0.2804
 9350TIP3    H149465   5.092   4.234   0.767  0.5968  1.2191 -0.2704
 9350TIP3    H249466   5.218   4.185   0.836  0.6582  1.1218 -0.4517
 9351TIP3   OH249467   1.034   0.089   4.887  0.2866 -0.2355  0.1400
 9351TIP3    H149468   1.034   0.011   4.942  1.4573  0.4657  1.1466
 9351TIP3    H249469   1.127   0.112   4.877  0.1460 -0.5425 -2.4185
 9352TIP3   OH249470   1.797   6.491  10.403 -0.0150  0.4744 -0.5320
 9352TIP3    H149471   1.854   6.442  10.343  1.3889  0.6661  0.5986
 9352TIP3    H249472   1.786   6.432  10.478 -0.2666  0.9449 -0.1957
 9353TIP3   OH249473   1.755   1.542   3.242  0.2846  0.1290  0.1736
 9353TIP3    H149474   1.722   1.497   3.320  1.3247 -0.0893  0.4971
 9353TIP3    H249475   1.679   1.548   3.184  0.0823 -1.9360  0.1783
 9354TIP3   OH249476   0.101   5.616  12.531 -0.2118  0.0682 -0.0219
 9354TIP3    H149477   0.191   5.636  12.556  0.2791 -2.1115  0.0514
 9354TIP3    H249478   0.049   5.690  12.565  1.2733  0.3474  1.6921
 9355TIP3   OH249479   5.889   1.524  16.520  0.1322  0.5843  0.1449
 9355TIP3    H149480   5.950   1.596  16.534  0.4592  0.3011  0.1959
 9355TIP3    H249481   5.902   1.466  16.594  0.1345  0.2877 -0.0863
 9356TIP3   OH249482   4.996   1.903   6.542 -0.7966  0.1058  0.0349
 9356TIP3    H149483   4.999   1.996   6.566 -0.6429  0.1429 -0.1286
 9356TIP3    H249484   4.961   1.859   6.620 -1.8769  0.4271 -0.2552
 9357TIP3   OH249485   0.701   3.499  15.250 -0.3924 -0.1445  0.1928
 9357TIP3    H149486   0.696   3.482  15.344  0.4004 -0.0489  0.2585
 9357TIP3    H249487   0.717   3.413  15.211 -1.3008 -0.2714  0.0927
 9358TIP3   OH249488   3.558   0.736  16.852 -0.7934 -0.4261 -0.0493
 9358TIP3    H149489   3.512   0.701  16.928  0.7830 -0.1320  1.0722
 9358TIP3    H249490   3.508   0.814  16.827  0.1420  0.9860  2.3378
 9359TIP3   OH249491   2.538   1.697   5.109 -0.7144 -0.4743 -0.2849
 9359TIP3    H149492   2.538   1.603   5.095 -1.3198 -0.5721  0.3480
 9359TIP3    H249493   2.447   1.723   5.100 -0.5724  0.0279 -0.3120
 9360TIP3   OH249494   4.299   4.896  14.363 -0.0582  0.0781  0.5853
 9360TIP3    H149495   4.369   4.960  14.346 -1.6438  1.2812 -1.8437
 9360TIP3    H249496   4.334   4.813  14.332  0.2033  0.7416 -0.9538
 9361TIP3   OH249497   6.728   2.194   2.130 -1.0917  0.2582  0.1434
 9361TIP3    H149498   6.666   2.135   2.087 -0.2676 -1.0316  0.7023
 9361TIP3    H249499   6.809   2.183   2.082 -0.6566  0.1683  0.8941
 9362TIP3   OH249500   1.647   2.577  12.633 -0.0750  0.1822 -0.2322
 9362TIP3    H149501   1.653   2.642  12.563  1.1391  0.1979 -0.1241
 9362TIP3    H249502   1.695   2.615  12.706 -1.4978  0.2438  0.6865
 9363TIP3   OH249503   5.277   3.716   2.261 -0.3688  0.1605  0.1335
 9363TIP3    H149504   5.217   3.673   2.322 -0.1546 -0.3500 -0.0167
 9363TIP3    H249505   5.257   3.677   2.176  2.2161 -2.2209  0.5479
 9364TIP3   OH249506   4.518   5.256   3.459 -0.2151 -0.4527 -0.3911
 9364TIP3    H149507   4.554   5.172   3.489 -0.9094 -0.0337  1.6471
 9364TIP3    H249508   4.423   5.246   3.466 -0.2519  1.2198  1.8670
 9365TIP3   OH249509   4.208   2.923  16.986 -0.0824  0.0623  0.0452
 9365TIP3    H149510   4.282   2.866  17.006 -0.4765  0.0311  1.4891
 9365TIP3    H249511   4.131   2.874  17.014 -0.5590  0.5868 -0.3289
 9366TIP3   OH249512   1.799   2.089   2.637 -0.4379  0.2403  0.0492
 9366TIP3    H149513   1.818   2.147   2.563 -1.7581  1.0839  0.3551
 9366TIP3    H249514   1.736   2.138   2.690 -1.0181 -1.1791  0.6924
 9367TIP3   OH249515   3.374   1.596   3.479 -0.0587 -0.2615  0.1107
 9367TIP3    H149516   3.462   1.613   3.445 -0.6846 -0.6310 -1.7286
 9367TIP3    H249517   3.380   1.618   3.572  1.5363  1.3504 -0.3375
 9368TIP3   OH249518   6.400   5.380   5.893 -0.1420 -0.6981 -0.3161
 9368TIP3    H149519   6.311   5.406   5.917 -0.5500 -2.6555  0.4417
 9368TIP3    H249520   6.399   5.284   5.898  1.8076 -0.7883 -1.0387
 9369TIP3   OH249521   3.005   5.333  15.475  0.5998  0.5872 -0.0807
 9369TIP3    H149522   3.031   5.244  15.499  0.0027  0.1785 -0.9266
 9369TIP3    H249523   3.069   5.358  15.407  0.3092  0.5157 -0.3821
 9370TIP3   OH249524   3.225   4.650   3.207 -0.7411  0.1123 -0.3300
 9370TIP3    H149525   3.223   4.577   3.145  1.2242 -1.4285  1.3440
 9370TIP3    H249526   3.314   4.686   3.199 -0.2302 -0.5223  1.9981
 9371TIP3   OH249527   0.717   0.333  12.621  0.3383  0.3174  0.1028
 9371TIP3    H149528   0.664   0.353  12.698  0.6265  1.1631  0.0822
 9371TIP3    H249529   0.776   0.408  12.611  0.9336 -0.2038 -0.4016
 9372TIP3   OH249530   6.267   2.453   1.199 -0.4808  0.6416  0.0113
 9372TIP3    H149531   6.275   2.503   1.280  0.9596 -0.4773  0.5814
 9372TIP3    H249532   6.181   2.411   1.206 -0.7568  1.2668  0.5269
 9373TIP3   OH249533   2.990   0.131   6.136 -0.2726 -0.0817 -0.2082
 9373TIP3    H149534   3.033   0.206   6.096 -0.5285  0.2355  0.1007
 9373TIP3    H249535   2.901   0.161   6.153 -0.0988 -0.1144  0.8309
 9374TIP3   OH249536   2.759   5.990  13.616 -0.1520  1.0104 -0.2396
 9374TIP3    H149537   2.715   6.067  13.578 -1.0973  0.5943 -0.0049
 9374TIP3    H249538   2.754   5.924  13.547  0.8223  1.2094 -0.5069
 9375TIP3   OH249539   2.803   1.915  11.329 -0.2031  0.1064  0.1882
 9375TIP3    H149540   2.825   2.007  11.315  1.2263 -0.3203 -0.4037
 9375TIP3    H249541   2.880   1.878  11.372 -0.9432 -0.7163  0.8215
 9376TIP3   OH249542   5.331   6.762   1.716  0.1149  0.0011  0.2088
 9376TIP3    H149543   5.377   6.688   1.677 -1.6322 -0.5370 -0.8869
 9376TIP3    H249544   5.261   6.722   1.767  0.3965  0.8405  1.2659
 9377TIP3   OH249545   5.055   5.556   2.075  0.3311 -0.3019 -0.0940
 9377TIP3    H149546   5.068   5.615   2.000  0.7074 -0.9780 -0.5641
 9377TIP3    H249547   5.065   5.613   2.152 -1.6463  0.7362 -0.5534
 9378TIP3   OH249548   1.295   2.379   6.434 -0.5522  0.6503  0.2605
 9378TIP3    H149549   1.204   2.401   6.452 -0.4641 -0.4911  2.1824
 9378TIP3    H249550   1.292   2.289   6.401 -0.2317  1.0372 -0.8491
 9379TIP3   OH249551   2.455   0.754  15.152  0.7422 -0.0545 -0.0559
 9379TIP3    H149552   2.494   0.815  15.090 -0.7472 -1.3917 -2.3769
 9379TIP3    H249553   2.374   0.796  15.180  1.3644  0.5031  0.9363
 9380TIP3   OH249554   3.252   3.045  14.714 -0.1690  0.4506 -0.2844
 9380TIP3    H149555   3.328   3.031  14.770 -0.9443 -0.4983  0.5533
 9380TIP3    H249556   3.279   3.012  14.628  0.6981  1.0388 -0.2411
 9381TIP3   OH249557   3.569   0.406  17.024  0.3482  0.3086  0.6357
 9381TIP3    H149558   3.556   0.492  17.064  0.9629  0.7401 -0.0675
 9381TIP3    H249559   3.664   0.398  17.015  0.1959  0.6962 -1.7192
 9382TIP3   OH249560   5.686   6.098  16.640 -1.2811  0.4089  0.0657
 9382TIP3    H149561   5.635   6.039  16.696 -2.3786  1.7043  0.4576
 9382TIP3    H249562   5.736   6.151  16.701  0.4938 -0.7682 -0.3179
 9383TIP3   OH249563   5.342   6.269  13.781  0.7640  0.4677 -0.7158
 9383TIP3    H149564   5.303   6.355  13.797 -0.0716  0.0026 -0.2010
 9383TIP3    H249565   5.427   6.273  13.824  0.8136  1.1060 -0.8626
 9384TIP3   OH249566   6.606   5.030   1.404  0.1270  1.0997 -0.5356
 9384TIP3    H149567   6.514   5.047   1.380  0.1013  0.0725 -1.2170
 9384TIP3    H249568   6.605   5.025   1.499 -0.5754  0.8868 -0.5448
 9385TIP3   OH249569   3.112   0.917   1.304 -0.7286  0.2246 -1.0761
 9385TIP3    H149570   3.026   0.931   1.342 -0.5012  2.2329 -1.2311
 9385TIP3    H249571   3.172   0.922   1.378 -0.8392 -2.6635 -0.7464
 9386TIP3   OH249572   3.380   0.337  16.057 -0.4311 -0.0101  0.1421
 9386TIP3    H149573   3.394   0.287  16.138 -1.3066 -0.3063  0.1110
 9386TIP3    H249574   3.391   0.272  15.987  0.4749  0.2767  0.0061
 9387TIP3   OH249575   4.644   5.677  17.007  0.4984  0.4405 -0.6226
 9387TIP3    H149576   4.598   5.703  17.087 -0.5931  3.3260 -2.1296
 9387TIP3    H249577   4.583   5.619  16.962  0.4134  0.1728 -0.1569
 9388TIP3   OH249578   0.273   1.214  15.526 -0.1349 -0.3427  0.2442
 9388TIP3    H149579   0.335   1.267  15.577  0.8333 -0.2020 -1.0559
 9388TIP3    H249580   0.311   1.211  15.438 -2.5947  0.7664 -0.8980
 9389TIP3   OH249581   5.585   2.537   4.257  0.3433 -0.2043  0.2099
 9389TIP3    H149582   5.656   2.473   4.254  0.9747  0.5252 -0.5787
 9389TIP3    H249583   5.626   2.621   4.236 -0.3249  0.6175  2.0359
 9390TIP3   OH249584   3.212   1.815   4.426 -0.1726  0.1119  0.4685
 9390TIP3    H149585   3.264   1.735   4.438  0.7832  0.5273 -0.7573
 9390TIP3    H249586   3.183   1.838   4.514 -0.9252 -1.8838  0.7729
 9391TIP3   OH249587   2.272   3.055   0.038 -0.1541 -0.3037  0.1784
 9391TIP3    H149588   2.214   2.981   0.018 -0.9379  0.4789 -0.4625
 9391TIP3    H249589   2.254   3.119  -0.031  2.5545 -0.6432 -0.9148
 9392TIP3   OH249590   5.139   3.346   0.361  0.2585 -0.0402  0.2834
 9392TIP3    H149591   5.149   3.438   0.382 -0.6972  0.6048 -1.8690
 9392TIP3    H249592   5.048   3.338   0.333  0.6088 -1.4246 -0.5089
 9393TIP3   OH249593   3.789   3.234  12.776  0.7126  0.2199 -0.3486
 9393TIP3    H149594   3.738   3.164  12.735 -1.7705  1.9639 -0.3653
 9393TIP3    H249595   3.811   3.199  12.862 -1.5068 -0.2039  0.0943
 9394TIP3   OH249596   5.238   0.669  11.274  0.3024 -0.4807 -0.0500
 9394TIP3    H149597   5.300   0.639  11.340  0.4644 -0.6450 -0.2790
 9394TIP3    H249598   5.163   0.611  11.284  0.3107 -0.4818  0.0111
 9395TIP3   OH249599   0.839   6.186  12.553 -0.3354  0.0313 -0.4796
 9395TIP3    H149600   0.909   6.228  12.503  2.3055  0.0187  3.0098
 9395TIP3    H249601   0.773   6.255  12.566  0.0465  0.6720 -1.9321
 9396TIP3   OH249602   5.859   1.563   1.250 -0.2935 -0.4256  0.0778
 9396TIP3    H149603   5.767   1.586   1.259 -0.4577 -0.8525 -0.5124
 9396TIP3    H249604   5.891   1.556   1.340 -0.3461  1.6491  0.2796
 9397TIP3   OH249605   2.331   5.910   0.625 -0.4261 -0.1547  0.6500
 9397TIP3    H149606   2.315   5.991   0.576  2.5238  0.1747  0.1027
 9397TIP3    H249607   2.272   5.915   0.700 -1.9426  1.3859 -0.5996
 9398TIP3   OH249608   6.730   6.157   2.382  0.3840 -0.8509 -0.0942
 9398TIP3    H149609   6.717   6.229   2.444  0.4352 -1.5901  0.7913
 9398TIP3    H249610   6.804   6.185   2.328  0.5649 -0.3437  0.4077
 9399TIP3   OH249611   1.924   2.129  16.049  0.5805 -0.1142 -0.1377
 9399TIP3    H149612   1.917   2.218  16.013 -0.4745  0.6417  1.8765
 9399TIP3    H249613   1.887   2.073  15.981 -2.3186  1.3968  0.1301
 9400TIP3   OH249614   4.983   1.476  16.903  0.9213 -0.2454  0.5354
 9400TIP3    H149615   4.997   1.407  16.838 -0.0289  0.3226 -0.2806
 9400TIP3    H249616   5.071   1.512  16.918  1.1597 -0.4592 -0.3343
 9401TIP3   OH249617   1.086   6.354  15.825  0.2467 -0.1681 -0.2486
 9401TIP3    H149618   1.071   6.265  15.794  1.3197 -0.3073 -0.3974
 9401TIP3    H249619   1.065   6.350  15.919 -0.9965 -0.2446 -0.5236
 9402TIP3   OH249620   4.268   0.159  16.770  0.2688  0.2691  0.6784
 9402TIP3    H149621   4.236   0.086  16.717 -0.0505 -0.0774  1.3461
 9402TIP3    H249622   4.354   0.180  16.732 -0.7825  1.2997 -1.2049
 9403TIP3   OH249623   6.177   1.042  13.199 -0.3589 -0.4483 -0.0105
 9403TIP3    H149624   6.246   1.066  13.261 -1.8597 -1.1666  1.9647
 9403TIP3    H249625   6.171   1.118  13.140  2.4046 -0.5616 -0.5018
 9404TIP3   OH249626   2.197   0.496  16.518  0.9616  0.0542 -0.3127
 9404TIP3    H149627   2.129   0.483  16.453 -0.6693  0.3810  1.2839
 9404TIP3    H249628   2.191   0.588  16.542  1.1337 -0.1842  0.7062
 9405TIP3   OH249629   0.039   0.374  13.831 -0.5520 -0.3775 -0.1065
 9405TIP3    H149630   0.022   0.345  13.920  0.6617 -0.3036  0.1641
 9405TIP3    H249631  -0.014   0.316  13.776 -1.3041 -0.4204  0.6567
 9406TIP3   OH249632   6.599   3.904  11.815 -0.1251  0.0008 -0.6023
 9406TIP3    H149633   6.621   3.842  11.745  0.2373  1.2832 -1.6373
 9406TIP3    H249634   6.650   3.982  11.795  1.6826 -0.3511  2.3306
 9407TIP3   OH249635   3.703   3.669   3.347  0.3610 -0.2095  0.7035
 9407TIP3    H149636   3.648   3.699   3.420  2.1632 -1.3234  2.5821
 9407TIP3    H249637   3.789   3.654   3.386  1.3708 -0.8617 -1.6649
 9408TIP3   OH249638   4.059   1.432   2.915  0.0103 -0.3324  0.6950
 9408TIP3    H149639   4.151   1.435   2.941 -0.7825 -0.7975  3.7279
 9408TIP3    H249640   4.045   1.342   2.886  0.7244  0.0031 -0.7703
 9409TIP3   OH249641   6.327   4.927  11.475 -0.4838  0.0806  0.5643
 9409TIP3    H149642   6.415   4.889  11.488 -0.2922  0.5854  0.7720
 9409TIP3    H249643   6.309   4.915  11.382  0.0847  0.5478  0.3840
 9410TIP3   OH249644   1.462   1.107  11.637  0.3802  0.2901 -0.0496
 9410TIP3    H149645   1.541   1.072  11.678  1.3542  1.5685 -0.7956
 9410TIP3    H249646   1.465   1.073  11.547  1.4938  2.4240 -0.8778
 9411TIP3   OH249647   2.232   1.921  13.978 -0.4652  0.1828  0.7810
 9411TIP3    H149648   2.288   1.925  13.901  0.3976  0.7039  1.4275
 9411TIP3    H249649   2.154   1.970  13.953  0.2688  1.2804  0.5951
 9412TIP3   OH249650   1.506   0.673  15.438  0.0772  0.2683 -0.3647
 9412TIP3    H149651   1.498   0.591  15.488 -2.6967  0.8192  0.1573
 9412TIP3    H249652   1.517   0.645  15.347  0.3726 -0.6799 -0.0479
 9413TIP3   OH249653   4.179   2.123   5.559  0.7371  0.1342 -0.0891
 9413TIP3    H149654   4.161   2.217   5.558 -1.6989 -0.2338  3.0315
 9413TIP3    H249655   4.107   2.084   5.510  1.1502 -0.2065 -0.4321
 9414TIP3   OH249656   2.393   0.242   3.342  0.0721 -0.3554  0.5048
 9414TIP3    H149657   2.349   0.327   3.345 -0.2241 -0.4751 -0.3261
 9414TIP3    H249658   2.326   0.180   3.370  0.0826 -0.3976  0.4351
 9415TIP3   OH249659   4.051   4.389   3.389  0.1622 -0.4406  0.4939
 9415TIP3    H149660   4.007   4.312   3.424  1.0768 -1.0737  0.2783
 9415TIP3    H249661   4.143   4.375   3.410  0.1889  1.1883  1.5403
 9416TIP3   OH249662   4.216   5.730  13.614 -0.6093 -0.0590  0.7270
 9416TIP3    H149663   4.134   5.726  13.663 -1.3993  0.0265 -0.5666
 9416TIP3    H249664   4.227   5.823  13.593 -1.6967 -0.4197 -1.5904
 9417TIP3   OH249665   3.986   1.738   0.252 -0.1845  0.6843 -0.5088
 9417TIP3    H149666   4.079   1.756   0.244 -0.0447 -0.3066 -1.2613
 9417TIP3    H249667   3.980   1.672   0.321 -0.4012  1.2896  0.0553
 9418TIP3   OH249668   2.240   6.614   5.363  0.5567 -0.2947  0.2865
 9418TIP3    H149669   2.253   6.708   5.361  0.5246 -0.2805  0.6865
 9418TIP3    H249670   2.202   6.597   5.449  0.9721 -0.7204  0.3912
 9419TIP3   OH249671   1.838   4.959  16.780  0.0522  0.0632  0.0353
 9419TIP3    H149672   1.850   4.937  16.688 -0.1070  0.2478 -0.0312
 9419TIP3    H249673   1.890   5.039  16.793  1.1234 -0.6867  0.4209
 9420TIP3   OH249674   6.770   5.614  15.287  0.1226  0.0747 -0.3403
 9420TIP3    H149675   6.697   5.552  15.293  0.5683 -0.6042 -1.7121
 9420TIP3    H249676   6.728   5.699  15.272 -0.3799 -0.4368 -1.9704
 9421TIP3   OH249677   2.599   0.542   4.854  0.1580 -0.2250  0.0132
 9421TIP3    H149678   2.620   0.453   4.826 -0.4384 -0.8761  1.5473
 9421TIP3    H249679   2.519   0.564   4.806 -1.1151 -1.5049  1.4435
 9422TIP3   OH249680   0.094   2.857   4.425 -0.1847  0.1768 -0.0882
 9422TIP3    H149681   0.125   2.892   4.509  0.0140  0.7488 -0.3993
 9422TIP3    H249682   0.007   2.823   4.444 -1.4027  3.0341 -0.3267
 9423TIP3   OH249683   2.094   5.225   1.722 -0.0768 -0.0773 -0.1106
 9423TIP3    H149684   2.132   5.164   1.659 -0.1796  1.5436 -1.7980
 9423TIP3    H249685   2.000   5.222   1.704 -0.1691  0.0013  0.3401
 9424TIP3   OH249686   6.500   5.557  10.778  0.2039  0.3779  0.3351
 9424TIP3    H149687   6.581   5.598  10.810  0.9060  1.5658 -2.8062
 9424TIP3    H249688   6.434   5.627  10.784 -0.4456 -0.3603  2.1604
 9425TIP3   OH249689   6.493   0.601   0.566  0.6521  0.3098  0.2377
 9425TIP3    H149690   6.399   0.610   0.547  0.8848  0.0528 -1.0662
 9425TIP3    H249691   6.499   0.612   0.661 -0.5784  1.3410  0.2095
 9426TIP3   OH249692   1.303   4.190  11.775 -0.7097 -0.1423  0.0638
 9426TIP3    H149693   1.354   4.190  11.694  1.8460  1.8549  1.6011
 9426TIP3    H249694   1.294   4.283  11.799 -1.8452 -0.6643  1.8267
 9427TIP3   OH249695   4.352   5.808  15.202  0.5845 -0.1722  0.1427
 9427TIP3    H149696   4.424   5.761  15.245  1.7757  0.8136 -0.7341
 9427TIP3    H249697   4.362   5.787  15.109 -0.6480 -0.5252  0.0772
 9428TIP3   OH249698   3.813   6.702  15.074 -0.0232  0.2076 -0.0427
 9428TIP3    H149699   3.818   6.780  15.018 -1.9874  0.6049  0.3033
 9428TIP3    H249700   3.843   6.733  15.160 -0.1136  0.4025 -0.0808
 9429TIP3   OH249701   0.596   4.295   3.840  0.3383  0.0752 -0.1680
 9429TIP3    H149702   0.574   4.318   3.749  0.5542  2.4454  0.3436
 9429TIP3    H249703   0.671   4.350   3.861 -0.6448  0.6528  1.9269
 9430TIP3   OH249704   0.285   0.111  15.484 -0.1795  0.2091  0.1698
 9430TIP3    H149705   0.304   0.202  15.506 -1.2836 -0.0709  2.4876
 9430TIP3    H249706   0.283   0.066  15.569  1.0314 -2.1116 -0.9821
 9431TIP3   OH249707   3.001   2.011   4.867 -0.2935 -0.0409 -0.0434
 9431TIP3    H149708   3.028   2.013   4.958 -0.4002  1.1421 -0.0276
 9431TIP3    H249709   3.044   2.088   4.828 -1.4771  0.3257 -0.6292
 9432TIP3   OH249710   6.686   1.842   1.319 -0.0133 -0.3517  0.1597
 9432TIP3    H149711   6.699   1.935   1.297 -0.7485 -0.5311 -1.0498
 9432TIP3    H249712   6.593   1.826   1.303  0.1735 -1.3744  0.0787
 9433TIP3   OH249713   0.247   4.747   1.996  0.3619  0.2232 -0.3974
 9433TIP3    H149714   0.319   4.773   1.939 -0.7606  0.9653 -1.4964
 9433TIP3    H249715   0.285   4.682   2.055  2.1016  1.1311 -0.5068
 9434TIP3   OH249716   5.863   4.089   5.323  0.1044 -0.2942  0.4277
 9434TIP3    H149717   5.845   3.997   5.304 -0.8413 -0.2611  1.1097
 9434TIP3    H249718   5.932   4.087   5.389 -0.1211 -0.5228  0.6591
 9435TIP3   OH249719   1.215   5.486   4.705  0.2191  0.8793 -0.3375
 9435TIP3    H149720   1.244   5.466   4.616  2.0459  1.3336  0.1521
 9435TIP3    H249721   1.122   5.462   4.705  0.2786  0.5526 -2.2621
 9436TIP3   OH249722   1.431   1.396  13.753  0.6417 -0.2814 -0.1337
 9436TIP3    H149723   1.397   1.372  13.667  0.9026 -1.3869  0.0587
 9436TIP3    H249724   1.506   1.452  13.736  0.7377 -0.5606 -0.6369
 9437TIP3   OH249725   2.171   4.524  14.492  0.4541 -0.5401 -0.8848
 9437TIP3    H149726   2.249   4.480  14.458  1.0006  1.1726 -1.8684
 9437TIP3    H249727   2.155   4.482  14.577  4.7645  1.7706  1.1820
 9438TIP3   OH249728   0.803   2.515  16.881 -0.1289 -0.1908  0.0727
 9438TIP3    H149729   0.879   2.560  16.845 -1.4421 -0.4118 -3.1060
 9438TIP3    H249730   0.767   2.465  16.807 -2.7988 -0.8469  1.7476
 9439TIP3   OH249731   3.789   2.326   3.250  0.4142 -0.2178 -0.0546
 9439TIP3    H149732   3.853   2.371   3.195 -0.0284  1.0174  0.4277
 9439TIP3    H249733   3.831   2.318   3.335  0.3301 -0.3500 -0.0249
 9440TIP3   OH249734   6.276   0.217  12.429 -0.5215  0.3199 -0.3942
 9440TIP3    H149735   6.221   0.223  12.351 -0.6742 -0.5008 -0.3516
 9440TIP3    H249736   6.279   0.306  12.463  1.4482  1.1540 -2.6406
 9441TIP3   OH249737   2.020   3.851   5.987  0.1081 -0.7948  0.9384
 9441TIP3    H149738   2.043   3.837   6.079 -0.0858 -1.0386  0.9494
 9441TIP3    H249739   2.063   3.780   5.940  1.4199  0.1577  0.6617
 9442TIP3   OH249740   1.814   3.084   1.469 -0.1231  1.1299  0.2695
 9442TIP3    H149741   1.804   3.151   1.537  0.4170  0.6129  0.8716
 9442TIP3    H249742   1.885   3.028   1.502 -0.3699  0.4424 -0.3688
 9443TIP3   OH249743   6.373   0.527  13.030 -0.2133 -0.5900  0.8500
 9443TIP3    H149744   6.443   0.463  13.046  0.5389  0.1528  0.5500
 9443TIP3    H249745   6.362   0.528  12.935 -0.1197 -0.1621  0.8449
 9444TIP3   OH249746   1.408   4.879   3.862  0.2263 -0.1746  0.5075
 9444TIP3    H149747   1.385   4.844   3.948 -0.6629  0.1443  0.4071
 9444TIP3    H249748   1.443   4.804   3.814 -0.1713 -0.5691  0.8278
 9445TIP3   OH249749   3.980   1.253  13.919 -0.1068  0.0693  0.1731
 9445TIP3    H149750   4.032   1.316  13.969 -0.1791  0.8654 -0.7354
 9445TIP3    H249751   4.016   1.168  13.942  0.0085  0.4448  1.3970
 9446TIP3   OH249752   5.360   0.510   3.556  0.2377  0.6756  0.1066
 9446TIP3    H149753   5.308   0.503   3.477  2.4394  0.4035 -1.3754
 9446TIP3    H249754   5.378   0.420   3.581 -0.3799  0.7618  0.8771
 9447TIP3   OH249755   0.635   4.621  15.157  0.1245 -0.1561 -0.5944
 9447TIP3    H149756   0.569   4.680  15.121  2.0988  1.9968 -0.8253
 9447TIP3    H249757   0.618   4.621  15.251 -0.3344  0.2254 -0.6760
 9448TIP3   OH249758   4.401   2.790  13.862  0.0200 -0.0661  0.8295
 9448TIP3    H149759   4.365   2.750  13.941 -0.2505 -0.6814  0.4003
 9448TIP3    H249760   4.479   2.837  13.893  0.4274 -1.0461  1.3307
 9449TIP3   OH249761   0.838   0.820  15.487 -0.5804  0.6773  0.4023
 9449TIP3    H149762   0.744   0.803  15.491 -0.5269  0.5815  1.3825
 9449TIP3    H249763   0.855   0.841  15.395 -1.7471  1.8078  0.4311
 9450TIP3   OH249764   5.940   0.413  14.045 -0.2345 -0.3150 -0.6893
 9450TIP3    H149765   6.000   0.400  13.972  0.2261 -1.4786 -0.1226
 9450TIP3    H249766   5.986   0.376  14.121 -2.2307 -2.6061 -0.5207
 9451TIP3   OH249767   5.797   6.045  13.009 -0.1373 -0.2247  0.0239
 9451TIP3    H149768   5.759   5.972  12.961  0.1465 -0.5912  0.3549
 9451TIP3    H249769   5.723   6.082  13.058 -0.0646 -0.9536  0.6858
 9452TIP3   OH249770   5.438   4.934  12.404 -0.4148  0.5198  0.5018
 9452TIP3    H149771   5.473   4.845  12.393 -1.2748 -0.1623  2.7761
 9452TIP3    H249772   5.509   4.992  12.379  0.9814 -0.8355  1.2306
 9453TIP3   OH249773   4.810   2.528  12.868  0.1829 -0.2478  0.5118
 9453TIP3    H149774   4.903   2.524  12.846  0.0717 -0.8772  0.1222
 9453TIP3    H249775   4.797   2.616  12.904  1.5261 -1.1823  3.3756
 9454TIP3   OH249776   2.729   2.578   3.697  0.4937  0.3386  0.4124
 9454TIP3    H149777   2.676   2.581   3.776 -0.5389  1.4209 -0.2970
 9454TIP3    H249778   2.763   2.667   3.688  1.2197  0.0264  0.0592
 9455TIP3   OH249779   1.468   5.491  14.378  0.5945 -0.1668  0.4575
 9455TIP3    H149780   1.491   5.560  14.440 -0.4389 -0.1526  0.8295
 9455TIP3    H249781   1.506   5.411  14.415  1.7405  0.1737  0.0588
 9456TIP3   OH249782   4.941   2.772   4.323 -0.4789  0.3389 -0.3945
 9456TIP3    H149783   4.919   2.687   4.285  0.4379 -0.1554  0.1830
 9456TIP3    H249784   4.856   2.813   4.340 -0.9522 -1.1869  0.9996
 9457TIP3   OH249785   4.220   3.694  11.259 -0.2218  0.4391  0.6751
 9457TIP3    H149786   4.295   3.737  11.218 -0.8732 -0.7288 -1.8528
 9457TIP3    H249787   4.249   3.604  11.274 -0.3068  0.6222  1.9371
 9458TIP3   OH249788   4.498   0.845  14.792  0.1624  0.5321 -0.0128
 9458TIP3    H149789   4.502   0.814  14.702 -0.4099  2.2490 -0.6333
 9458TIP3    H249790   4.428   0.793  14.832  1.6225 -1.5301 -0.0161
 9459TIP3   OH249791   2.577   3.086  15.427 -0.6626  0.2660  0.0389
 9459TIP3    H149792   2.506   3.143  15.458 -0.9850  0.1269 -0.4400
 9459TIP3    H249793   2.655   3.142  15.430 -0.9254  0.6473 -0.1442
 9460TIP3   OH249794   4.928   1.867  14.366  0.0488  0.1909  0.6689
 9460TIP3    H149795   4.870   1.899  14.297  0.5780  1.1096  0.6472
 9460TIP3    H249796   4.883   1.790  14.401 -0.0119 -0.5496 -0.9987
 9461TIP3   OH249797   6.324   1.636   0.893  1.1194  0.4793 -0.2113
 9461TIP3    H149798   6.280   1.702   0.839 -0.1065  0.8893  1.2226
 9461TIP3    H249799   6.307   1.665   0.983  0.0907 -2.0814  0.4557
 9462TIP3   OH249800   0.354   1.253   3.176  0.0508 -0.0340  0.2078
 9462TIP3    H149801   0.413   1.178   3.170 -0.6782 -0.5860 -0.2773
 9462TIP3    H249802   0.372   1.293   3.261  0.5184 -0.7001  0.4188
 9463TIP3   OH249803   1.927   2.298   6.319  0.3106 -0.2268  0.7043
 9463TIP3    H149804   1.921   2.288   6.224 -0.3751 -1.4404  0.8646
 9463TIP3    H249805   1.844   2.264   6.353  0.2983  0.7415  1.7067
 9464TIP3   OH249806   4.688   5.569  15.016 -0.2597  0.4695 -0.0672
 9464TIP3    H149807   4.718   5.495  15.070 -0.9858 -0.1413 -0.4915
 9464TIP3    H249808   4.614   5.534  14.967  0.6905  0.8818 -1.8258
 9465TIP3   OH249809   1.106   2.154  17.027 -0.6606 -0.4983 -0.0891
 9465TIP3    H149810   1.098   2.167  17.121  0.6321 -0.2518 -0.0052
 9465TIP3    H249811   1.028   2.195  16.990  0.2583  2.0030  0.6506
 9466TIP3   OH249812   4.223   3.460   2.074  0.2842 -0.5729  0.1897
 9466TIP3    H149813   4.147   3.414   2.038  0.1820  0.3511 -0.8332
 9466TIP3    H249814   4.190   3.503   2.153 -0.1051 -0.6628  0.0790
 9467TIP3   OH249815   2.270   5.659   0.822 -0.3872  0.0768  0.1464
 9467TIP3    H149816   2.201   5.720   0.849  0.9875  2.1022 -0.7894
 9467TIP3    H249817   2.331   5.713   0.772  0.8421 -2.1076 -0.7646
 9468TIP3   OH249818   0.956   5.585   0.675  0.7695 -0.4577  0.0288
 9468TIP3    H149819   1.010   5.664   0.672 -1.3384  1.0278 -0.1122
 9468TIP3    H249820   0.941   5.563   0.583 -0.1187  0.0463  0.0435
 9469TIP3   OH249821   2.089   3.657   5.149 -0.5264 -0.1986 -0.3352
 9469TIP3    H149822   2.049   3.741   5.171 -0.5465 -0.2966  0.0008
 9469TIP3    H249823   2.090   3.608   5.231  1.2720  0.2007 -0.0980
 9470TIP3   OH249824   4.803   4.520   1.270 -0.3316  0.1384 -0.5308
 9470TIP3    H149825   4.882   4.565   1.297 -1.7200  1.5298  1.3942
 9470TIP3    H249826   4.833   4.446   1.217  2.1005  1.8765 -1.6201
 9471TIP3   OH249827   0.554   0.517   5.099  0.0042  0.1191  0.5661
 9471TIP3    H149828   0.469   0.521   5.144  0.1386  0.8068  0.7603
 9471TIP3    H249829   0.588   0.606   5.104 -0.4845  0.4898 -1.9080
 9472TIP3   OH249830   2.493   5.382  12.702 -0.0205 -0.6669  0.5549
 9472TIP3    H149831   2.474   5.474  12.682  0.5613 -0.4909  0.8113
 9472TIP3    H249832   2.444   5.364  12.782  0.4141 -0.3816  0.8874
 9473TIP3   OH249833   2.944   3.541   5.510  0.5198 -0.2036 -0.2548
 9473TIP3    H149834   3.023   3.538   5.563  0.7354  0.7974 -0.5033
 9473TIP3    H249835   2.962   3.609   5.444 -0.7622  0.4460  0.0470
 9474TIP3   OH249836   5.057   4.892   2.775 -0.3759 -0.3227 -0.4165
 9474TIP3    H149837   4.982   4.863   2.828  0.5111 -0.1779  0.9630
 9474TIP3    H249838   5.086   4.813   2.730 -2.0179 -0.1538 -1.8271
 9475TIP3   OH249839   3.973   3.768   4.104  0.1823  0.6935 -0.0109
 9475TIP3    H149840   3.947   3.847   4.057  1.5685  1.5151  0.5889
 9475TIP3    H249841   3.903   3.754   4.168 -1.9264 -0.6654 -2.5010
 9476TIP3   OH249842   4.799   5.372  14.249  0.0749 -0.1087  0.5302
 9476TIP3    H149843   4.820   5.458  14.286 -0.7473 -0.6496  2.3063
 9476TIP3    H249844   4.721   5.387  14.196 -0.2538  0.1880  1.0915
 9477TIP3   OH249845   2.555   2.317   3.059 -0.2658 -0.0747  0.1928
 9477TIP3    H149846   2.590   2.341   3.144 -2.0281 -1.6904  1.4265
 9477TIP3    H249847   2.625   2.266   3.018  0.6705  0.8854  0.5664
 9478TIP3   OH249848   2.329   1.123   5.181  0.2626  0.2283  0.0170
 9478TIP3    H149849   2.314   1.137   5.275  0.3501  1.3952 -0.1359
 9478TIP3    H249850   2.424   1.116   5.173  0.4048  2.3132 -0.2661
 9479TIP3   OH249851   1.002   2.740  11.535  0.5571 -0.5975  0.1185
 9479TIP3    H149852   0.955   2.765  11.614 -0.6377 -1.5623 -0.2854
 9479TIP3    H249853   0.951   2.778  11.463  2.5443  1.7212 -0.1311
 9480TIP3   OH249854   1.367   3.568  13.370 -0.1420 -0.9162 -0.3604
 9480TIP3    H149855   1.419   3.542  13.294  0.2009 -0.1154 -0.4080
 9480TIP3    H249856   1.391   3.505  13.438 -0.6417 -1.7899 -0.9886
 9481TIP3   OH249857   6.085   2.283  12.361 -0.2874  0.3792  0.5624
 9481TIP3    H149858   6.123   2.299  12.274  0.1305 -2.3158  0.2045
 9481TIP3    H249859   5.991   2.271  12.344 -0.1294 -0.6663  0.3966
 9482TIP3   OH249860   0.839   5.061  13.514  0.0201  0.3382  0.4246
 9482TIP3    H149861   0.929   5.039  13.488  0.3355 -1.1754  2.6890
 9482TIP3    H249862   0.789   4.981  13.496 -0.2012  0.0489  2.2670
 9483TIP3   OH249863   1.968   3.043   2.519 -0.3230  0.2968  0.5519
 9483TIP3    H149864   2.002   3.107   2.456  0.1655 -1.2601 -0.8278
 9483TIP3    H249865   1.993   3.077   2.604 -0.3736  2.1095 -0.1251
 9484TIP3   OH249866   2.342   3.547  12.984  0.3587 -0.4566 -0.1824
 9484TIP3    H149867   2.350   3.640  13.005  0.4247  0.2284 -3.0956
 9484TIP3    H249868   2.384   3.502  13.058  1.0577  1.8356  0.8448
 9485TIP3   OH249869   5.521   4.712  12.074  0.1485 -0.8901  0.1467
 9485TIP3    H149870   5.472   4.645  12.027  0.8096 -2.3277  1.4807
 9485TIP3    H249871   5.481   4.715  12.161 -0.6841  1.3316 -0.2740
 9486TIP3   OH249872   4.085   6.755  13.899  0.5485 -0.1699  0.2287
 9486TIP3    H149873   4.126   6.671  13.918  0.3520  0.0061  1.4503
 9486TIP3    H249874   4.058   6.789  13.984 -1.6944 -0.0517 -0.5009
 9487TIP3   OH249875   5.861   4.417  16.315 -0.1129  0.2692  0.2307
 9487TIP3    H149876   5.838   4.456  16.231  0.5633  0.5425  0.1663
 9487TIP3    H249877   5.911   4.485  16.360 -0.6518  0.1972  0.9403
 9488TIP3   OH249878   1.182   0.427  11.684  0.5080 -0.8095 -0.0304
 9488TIP3    H149879   1.153   0.501  11.631  0.3153 -0.5074  0.4850
 9488TIP3    H249880   1.102   0.380  11.705  0.8166 -2.2025 -1.8620
 9489TIP3   OH249881   0.911   6.417  14.105  0.0121  0.0883 -0.3569
 9489TIP3    H149882   0.867   6.339  14.139  0.0664 -0.0611 -0.6226
 9489TIP3    H249883   0.944   6.462  14.183  0.8393 -0.6721 -0.2498
 9490TIP3   OH249884   0.029   6.025   1.315 -0.0723  0.6849  0.2935
 9490TIP3    H149885   0.086   6.051   1.387  0.6429 -1.4985  0.5539
 9490TIP3    H249886  -0.055   6.006   1.357  0.7387 -1.9698  0.8067
 9491TIP3   OH249887   4.685   4.846  16.995  0.3158  0.0065 -0.7354
 9491TIP3    H149888   4.671   4.762  16.952 -0.7168 -0.3032  0.1700
 9491TIP3    H249889   4.771   4.875  16.965  1.4523 -2.1829  0.2573
 9492TIP3   OH249890   1.360   1.462  13.479 -0.5030 -0.2126 -0.0617
 9492TIP3    H149891   1.417   1.532  13.447 -0.4512 -0.9635 -1.6272
 9492TIP3    H249892   1.285   1.464  13.420 -0.2302 -1.8565 -0.4773
 9493TIP3   OH249893   0.875   5.269   1.299  0.0376  0.5450  0.0167
 9493TIP3    H149894   0.853   5.177   1.281  0.0124  0.5194  0.1747
 9493TIP3    H249895   0.970   5.271   1.298  0.0474  0.4412  0.3732
 9494TIP3   OH249896   3.161   6.324  16.690  0.1560 -0.1906  0.4137
 9494TIP3    H149897   3.159   6.228  16.694 -0.3885 -0.1745  0.5927
 9494TIP3    H249898   3.254   6.346  16.693  0.2558 -0.6848  1.0964
 9495TIP3   OH249899   5.175   0.045  12.290 -0.2507 -0.2097 -0.1600
 9495TIP3    H149900   5.119   0.086  12.355  1.7502  2.5724 -0.1175
 9495TIP3    H249901   5.201  -0.038  12.329 -2.2239 -0.3456  0.8998
 9496TIP3   OH249902   2.827   1.100   5.573 -0.3432  0.3221  0.1577
 9496TIP3    H149903   2.894   1.159   5.537  0.6182 -0.7250  0.1814
 9496TIP3    H249904   2.790   1.056   5.497  0.7867 -0.9492  0.3189
 9497TIP3   OH249905   0.512   4.029  15.006 -0.2211 -0.1813 -0.0576
 9497TIP3    H149906   0.464   4.021  14.924 -0.3539  0.8589 -0.0801
 9497TIP3    H249907   0.486   3.952  15.057  0.3902 -1.2000 -1.2496
 9498TIP3   OH249908   6.236   0.168   4.075 -0.2343  0.0320 -0.0929
 9498TIP3    H149909   6.216   0.253   4.036  2.1191  1.3994  1.5422
 9498TIP3    H249910   6.287   0.189   4.153  1.4706 -2.9567 -0.3331
 9499TIP3   OH249911   6.238   3.190  13.468  0.6877 -0.2542  0.0848
 9499TIP3    H149912   6.236   3.120  13.533 -0.3842 -0.1409  0.1885
 9499TIP3    H249913   6.201   3.265  13.513 -1.4877 -0.5740 -1.1071
 9500TIP3   OH249914   4.658   3.694  12.001 -0.2848  0.1809  0.0798
 9500TIP3    H149915   4.563   3.700  12.002 -0.3127 -0.2483  0.6530
 9500TIP3    H249916   4.678   3.632  11.931 -0.4930 -0.6797  0.7778
 9501TIP3   OH249917   2.205   6.189   0.523 -0.1552 -0.5145 -0.2128
 9501TIP3    H149918   2.126   6.204   0.471  0.6195 -0.2418 -1.3485
 9501TIP3    H249919   2.180   6.210   0.613 -0.9424  1.1308 -0.8020
 9502TIP3   OH249920   4.709   1.572   6.093 -0.2667 -0.5634 -0.3016
 9502TIP3    H149921   4.765   1.547   6.167  0.7374  4.4209  0.7820
 9502TIP3    H249922   4.633   1.613   6.134 -0.9222 -0.0545 -1.9863
 9503TIP3   OH249923   0.659   1.217   4.647 -0.5249 -0.4293  0.6379
 9503TIP3    H149924   0.644   1.122   4.656  0.1932 -0.6625 -0.5425
 9503TIP3    H249925   0.587   1.257   4.695 -1.9916 -1.5582 -0.5786
 9504TIP3   OH249926   3.727   5.651   6.383 -0.3320  0.4811  0.8767
 9504TIP3    H149927   3.768   5.735   6.402 -1.6538  1.6002 -1.0098
 9504TIP3    H249928   3.637   5.661   6.414 -1.1417  0.6227 -1.3763
 9505TIP3   OH249929   1.913   2.386  16.220  0.0423  0.3956  0.0576
 9505TIP3    H149930   1.821   2.410  16.227 -0.0103 -0.3236  2.0777
 9505TIP3    H249931   1.922   2.308  16.275  2.0924  1.1397  0.8364
 9506TIP3   OH249932   1.459   2.418   0.911 -0.0247  0.1201 -0.3592
 9506TIP3    H149933   1.497   2.406   0.998 -0.8551 -2.5216 -0.3142
 9506TIP3    H249934   1.369   2.386   0.920  0.4824 -2.0787 -2.6493
 9507TIP3   OH249935   0.929   0.584  12.819 -0.7431  0.5608  0.2294
 9507TIP3    H149936   0.866   0.620  12.882 -1.3248  2.2446 -1.2621
 9507TIP3    H249937   0.944   0.656  12.757  0.0043 -0.9814 -1.4080
 9508TIP3   OH249938   2.442   1.461   3.564 -0.0638 -0.5459  0.0575
 9508TIP3    H149939   2.453   1.395   3.496  2.4325 -0.9203  0.7965
 9508TIP3    H249940   2.486   1.425   3.640 -0.1936  1.2151  0.9804
 9509TIP3   OH249941   6.710   6.350   6.332  0.5227  0.3234  0.2791
 9509TIP3    H149942   6.772   6.422   6.343  2.1321 -0.5407 -2.6445
 9509TIP3    H249943   6.643   6.383   6.273  0.1831  0.0672  0.5182
 9510TIP3   OH249944   1.342   2.111   3.805 -0.1958  0.4840 -0.0737
 9510TIP3    H149945   1.403   2.110   3.731 -1.3252 -1.8055 -0.9887
 9510TIP3    H249946   1.261   2.145   3.769  0.0317  2.0074  0.7865
 9511TIP3   OH249947   3.660   1.930  13.614  0.2773 -0.2284 -0.0019
 9511TIP3    H149948   3.643   1.896  13.527 -0.5066 -0.2264  0.1435
 9511TIP3    H249949   3.745   1.973  13.607 -1.1678  2.5373 -1.5971
 9512TIP3   OH249950   1.409   2.987   0.061  0.0533 -0.0092  0.0274
 9512TIP3    H149951   1.401   2.913  -0.001  1.8672 -1.2604  1.2300
 9512TIP3    H249952   1.398   2.947   0.147  0.9511  1.1459  0.6894
 9513TIP3   OH249953   0.325   6.678  13.025  0.4870  0.3059 -0.5299
 9513TIP3    H149954   0.285   6.596  12.994  1.9768 -0.2898 -0.9308
 9513TIP3    H249955   0.288   6.745  12.968 -1.0127 -0.0347  0.0252
 9514TIP3   OH249956   4.432   3.621   0.449 -0.0206  0.7546 -0.5589
 9514TIP3    H149957   4.412   3.649   0.360  0.6544  2.6377 -0.1362
 9514TIP3    H249958   4.357   3.649   0.501  1.1854  2.8621  0.0694
 9515TIP3   OH249959   6.141   4.303   5.747 -0.0700  0.1785  0.4186
 9515TIP3    H149960   6.225   4.348   5.733 -0.7886  1.1488 -0.9626
 9515TIP3    H249961   6.156   4.245   5.821  1.8689  0.2371  0.0862
 9516TIP3   OH249962   3.012   0.981   0.798 -0.3072  0.2534 -0.0835
 9516TIP3    H149963   3.053   1.033   0.729  0.0558  0.2589  0.1293
 9516TIP3    H249964   3.004   0.894   0.760 -0.4072  0.3341 -0.2478
 9517TIP3   OH249965   4.659   4.346  16.910  0.2895 -0.3021 -0.2178
 9517TIP3    H149966   4.755   4.344  16.914  0.2667 -0.3462  0.2835
 9517TIP3    H249967   4.640   4.374  16.820  0.7755  0.4649 -0.0873
 9518TIP3   OH249968   2.381   4.348   4.540  0.4333 -0.3361 -0.1427
 9518TIP3    H149969   2.431   4.342   4.622 -0.8923 -0.3288  0.6687
 9518TIP3    H249970   2.309   4.287   4.551  0.0138 -0.0345 -1.1582
 9519TIP3   OH249971   4.170   3.378   2.520 -0.3382 -0.4544  0.2153
 9519TIP3    H149972   4.132   3.296   2.489  1.9556 -1.8767  1.0400
 9519TIP3    H249973   4.257   3.380   2.480 -0.4950  1.7377 -0.0442
 9520TIP3   OH249974   4.615   0.682   2.850 -0.2824 -0.2250 -0.5874
 9520TIP3    H149975   4.583   0.692   2.760 -2.1565  0.6050  0.1645
 9520TIP3    H249976   4.615   0.771   2.885  0.1965 -0.5863  0.3346
 9521TIP3   OH249977   4.083   1.508  17.203 -0.6600 -0.2350  0.4834
 9521TIP3    H149978   3.993   1.484  17.182  0.3465 -2.8736 -1.0636
 9521TIP3    H249979   4.112   1.560  17.128 -0.9671  0.8600  1.1145
 9522TIP3   OH249980   5.687   2.686   2.758  0.1720 -0.0287  0.3914
 9522TIP3    H149981   5.777   2.690   2.792  0.0993 -1.2967  0.7559
 9522TIP3    H249982   5.696   2.708   2.665  0.7715  0.5326  0.5804
 9523TIP3   OH249983   1.443   1.914  15.544  0.6633  0.0804 -0.0622
 9523TIP3    H149984   1.470   1.898  15.635  1.7757  2.5419  0.0892
 9523TIP3    H249985   1.349   1.928  15.549  0.9605  1.8595  0.9879
 9524TIP3   OH249986   3.113   0.234  14.452 -0.0560 -0.0625 -0.6438
 9524TIP3    H149987   3.094   0.234  14.358 -0.4489 -2.3597 -0.5982
 9524TIP3    H249988   3.028   0.253  14.493  0.1789  1.2512 -0.7456
 9525TIP3   OH249989   4.732   4.139  12.338  0.4666  0.0828 -0.1926
 9525TIP3    H149990   4.666   4.208  12.347 -0.0409 -0.7070  2.4077
 9525TIP3    H249991   4.723   4.110  12.247 -0.1557  2.5717 -0.9725
 9526TIP3   OH249992   1.226   5.479  14.698 -0.8681  0.2285 -0.0165
 9526TIP3    H149993   1.239   5.562  14.650 -0.1431 -0.2228 -0.6118
 9526TIP3    H249994   1.145   5.493  14.748 -1.4471  0.8482 -1.0997
 9527TIP3   OH249995   2.267   0.487   2.441 -0.2708 -0.0441  0.1963
 9527TIP3    H149996   2.293   0.478   2.349  0.4317  0.2257  0.3584
 9527TIP3    H249997   2.350   0.488   2.489 -0.6411 -0.3859  0.8553
 9528TIP3   OH249998   2.936   0.659  15.763  0.0882  0.0378 -0.0277
 9528TIP3    H149999   2.956   0.685  15.853 -0.5195  1.0491 -0.1685
 9528TIP3    H250000   2.910   0.741  15.721 -1.8627 -0.8100 -0.5032
 9529TIP3   OH250001   2.499   5.793  16.388  0.0814  0.5029 -0.3719
 9529TIP3    H150002   2.568   5.841  16.343 -1.4060  1.9317 -1.1909
 9529TIP3    H250003   2.511   5.815  16.480  0.4434  1.1168 -0.5612
 9530TIP3   OH250004   1.366   3.394  16.382  0.1329 -0.1836  0.1522
 9530TIP3    H150005   1.423   3.329  16.340 -0.1162 -0.5077  0.3187
 9530TIP3    H250006   1.315   3.432  16.310  0.8542  0.4074 -0.0570
 9531TIP3   OH250007   2.311   3.081  13.403 -0.4970 -0.1358 -0.2036
 9531TIP3    H150008   2.248   3.142  13.365  0.1710  1.1133  0.6364
 9531TIP3    H250009   2.261   3.032  13.468 -0.8529  0.1341 -0.2727
 9532TIP3   OH250010   3.650   4.921   2.242 -0.2162 -0.0628 -0.4100
 9532TIP3    H150011   3.572   4.922   2.186 -0.0433  0.1589 -0.6500
 9532TIP3    H250012   3.625   4.972   2.319 -0.0187  0.7596 -0.8851
 9533TIP3   OH250013   0.122   6.167  14.996 -0.0549 -0.3641 -0.2368
 9533TIP3    H150014   0.061   6.126  15.057  0.9795 -2.8958 -0.8136
 9533TIP3    H250015   0.111   6.116  14.915  2.6441 -0.7237 -0.4002
 9534TIP3   OH250016   4.386   3.787   4.490  0.1571  0.2600  0.3304
 9534TIP3    H150017   4.357   3.876   4.513 -1.8024  0.2100 -1.7131
 9534TIP3    H250018   4.456   3.801   4.426 -0.7696  0.3600 -0.6827
 9535TIP3   OH250019   2.029   3.844   3.972 -0.1480  0.0361  0.4055
 9535TIP3    H150020   2.103   3.890   4.012 -0.4822  0.6409  0.3404
 9535TIP3    H250021   2.060   3.819   3.886  0.7876 -1.8277  1.2675
 9536TIP3   OH250022   1.769   2.439  15.635 -0.2564 -0.5880 -0.0823
 9536TIP3    H150023   1.847   2.487  15.607 -2.4084  2.9008 -0.4203
 9536TIP3    H250024   1.711   2.442  15.559 -1.8450 -0.5825  1.1120
 9537TIP3   OH250025   3.360   4.654  14.205  0.1115  0.4381  0.1545
 9537TIP3    H150026   3.346   4.749  14.210  0.6822  0.5247  0.2043
 9537TIP3    H250027   3.440   4.646  14.153 -0.1955 -0.0341 -0.2423
 9538TIP3   OH250028   5.099   1.558  13.257  0.1386  0.1351  0.1096
 9538TIP3    H150029   5.046   1.508  13.319  2.5253 -0.2737  1.9098
 9538TIP3    H250030   5.098   1.647  13.291 -2.9636  1.1239 -2.3305
 9539TIP3   OH250031   5.599   1.702  11.237  0.7114 -0.4289 -0.1859
 9539TIP3    H150032   5.538   1.647  11.188 -0.6767  0.7212  0.2202
 9539TIP3    H250033   5.642   1.755  11.170  1.2201 -1.2026 -0.4698
 9540TIP3   OH250034   1.352   5.158  13.852 -0.1257  0.1557 -0.1419
 9540TIP3    H150035   1.447   5.159  13.858 -0.2061  0.7552  1.3480
 9540TIP3    H250036   1.327   5.250  13.841 -0.6224  0.2149  1.3799
 9541TIP3   OH250037   1.870   4.256  12.226 -0.2200  0.0786 -0.2562
 9541TIP3    H150038   1.814   4.242  12.302 -3.4739 -2.6601 -2.9828
 9541TIP3    H250039   1.957   4.231  12.256 -0.8137  1.9792  3.3749
 9542TIP3   OH250040   2.049   3.079  13.950  0.1888 -0.7198 -0.2278
 9542TIP3    H150041   2.021   3.128  14.028  0.2356 -0.7079 -0.2180
 9542TIP3    H250042   2.113   3.016  13.984  3.0648  1.7975 -0.7545
 9543TIP3   OH250043   0.641   2.073   2.913  0.0906 -0.2576 -0.8117
 9543TIP3    H150044   0.614   2.035   2.829  1.9430  0.0429 -1.5747
 9543TIP3    H250045   0.736   2.065   2.912  0.4175  3.0484 -0.3341
 9544TIP3   OH250046   5.517   2.044   3.973 -0.2441  0.2163  0.2854
 9544TIP3    H150047   5.469   2.120   4.005  0.2794  0.2916  0.8979
 9544TIP3    H250048   5.574   2.079   3.904 -0.2648  0.3141  0.3185
 9545TIP3   OH250049   2.420   3.341   5.904 -0.3704  0.7245  0.2958
 9545TIP3    H150050   2.336   3.346   5.950  0.3278  3.7096  1.3572
 9545TIP3    H250051   2.420   3.417   5.845 -0.0932 -1.5165 -2.6779
 9546TIP3   OH250052   2.148   3.316  16.276  0.9382 -0.0559 -0.4199
 9546TIP3    H150053   2.239   3.302  16.302  0.9778 -0.2660 -0.6648
 9546TIP3    H250054   2.098   3.253  16.327  1.1868 -1.6060 -2.0217
 9547TIP3   OH250055   4.647   4.889  11.425 -0.2873  1.0801 -0.0857
 9547TIP3    H150056   4.724   4.945  11.432  0.2020  0.7149 -2.2616
 9547TIP3    H250057   4.586   4.939  11.372 -0.4015  0.1381 -0.8489
 9548TIP3   OH250058   6.409   1.070   3.067  0.0394  0.2733 -0.4033
 9548TIP3    H150059   6.388   1.066   3.160  0.1529 -0.1756 -0.3956
 9548TIP3    H250060   6.324   1.066   3.023  0.1009 -2.4544 -0.3980
 9549TIP3   OH250061   2.519   3.666   2.704 -0.2782  0.1567  0.4255
 9549TIP3    H150062   2.574   3.605   2.655 -0.4492  1.5836 -1.6207
 9549TIP3    H250063   2.580   3.713   2.761  0.2268 -0.1951  0.1811
 9550TIP3   OH250064   1.105   0.475  16.870 -0.6487 -0.3358 -0.1009
 9550TIP3    H150065   1.191   0.508  16.895 -0.5208  1.5119 -2.6816
 9550TIP3    H250066   1.111   0.464  16.775 -3.2879 -0.0295 -0.3455
 9551TIP3   OH250067   0.792   0.238   3.140 -0.1979 -0.1314 -0.0436
 9551TIP3    H150068   0.880   0.237   3.176  0.1953  1.3829 -0.9003
 9551TIP3    H250069   0.751   0.157   3.172  0.1728  1.0538  3.6495
 9552TIP3   OH250070   6.518   1.270   6.174  0.2155 -0.4924  0.0547
 9552TIP3    H150071   6.544   1.192   6.222  0.0244 -0.2926  0.4900
 9552TIP3    H250072   6.519   1.340   6.240 -1.1660 -0.4396  0.0310
 9553TIP3   OH250073   5.585   2.321  12.362  0.7087 -0.3083  0.2933
 9553TIP3    H150074   5.535   2.274  12.296  0.9976 -0.0676 -0.1002
 9553TIP3    H250075   5.564   2.278  12.445 -0.2184 -0.1492  0.1405
 9554TIP3   OH250076   5.593   6.291   4.122 -0.7695  0.2461 -0.4573
 9554TIP3    H150077   5.615   6.237   4.198 -2.2996 -0.4441 -0.4828
 9554TIP3    H250078   5.678   6.314   4.084 -0.0629 -1.8221 -0.2255
 9555TIP3   OH250079   4.496   0.381   4.696 -0.0532 -0.2754  0.1680
 9555TIP3    H150080   4.440   0.385   4.618 -0.2476  0.0887  0.3268
 9555TIP3    H250081   4.583   0.358   4.662 -0.7911 -3.2237  0.1489
 9556TIP3   OH250082   3.196   1.110   1.093  0.4530  0.1145  0.5447
 9556TIP3    H150083   3.103   1.117   1.072  0.3997  1.4019  1.2274
 9556TIP3    H250084   3.201   1.042   1.161  0.0929 -0.3887  0.0743
 9557TIP3   OH250085   2.699   2.003  13.298  0.3309 -0.3854 -0.4700
 9557TIP3    H150086   2.738   2.079  13.341 -1.6875  0.5783 -0.2550
 9557TIP3    H250087   2.667   2.037  13.214 -2.7985 -0.3436  0.6664
 9558TIP3   OH250088   6.270   4.526   0.026  0.0336  0.2245 -0.1459
 9558TIP3    H150089   6.239   4.616   0.033  1.0531  0.5128  0.8517
 9558TIP3    H250090   6.190   4.473   0.023 -0.5649  1.1288 -0.2760
 9559TIP3   OH250091   0.214   3.286   3.161 -0.1745  0.0164  0.1102
 9559TIP3    H150092   0.241   3.345   3.231  2.1441  0.9072 -1.4856
 9559TIP3    H250093   0.277   3.214   3.164 -0.2253 -0.0843 -0.8483
 9560TIP3   OH250094   5.075   4.941   1.822  0.2299  0.5464 -0.0338
 9560TIP3    H150095   5.150   4.994   1.847 -0.1005  0.8214  0.3713
 9560TIP3    H250096   5.111   4.876   1.761  0.6246  1.2758 -0.5916
 9561TIP3   OH250097   2.175   2.483  14.137 -0.2715 -0.2310  0.1009
 9561TIP3    H150098   2.223   2.488  14.220 -0.7863 -0.3510  0.4098
 9561TIP3    H250099   2.154   2.390  14.127  1.9615 -0.6262 -1.4231
 9562TIP3   OH250100   1.963   1.448   2.759 -0.0037  0.3485  0.5618
 9562TIP3    H150101   1.898   1.465   2.691 -0.4632 -0.3059  0.8428
 9562TIP3    H250102   2.029   1.394   2.716  0.0475  0.4989  0.4499
 9563TIP3   OH250103   3.096   0.368   6.074 -0.1105  0.2503  0.3869
 9563TIP3    H150104   3.032   0.418   6.024 -1.8733 -0.6861  1.6402
 9563TIP3    H250105   3.128   0.428   6.141 -1.1788  0.1406  1.0068
 9564TIP3   OH250106   5.123   3.134  13.763 -0.1823 -0.3240 -0.4246
 9564TIP3    H150107   5.099   3.212  13.712  0.5626 -1.1459 -2.0820
 9564TIP3    H250108   5.156   3.169  13.846 -0.8906  1.0711 -0.6995
 9565TIP3   OH250109   0.129   1.484  13.022 -0.3542 -0.0879  0.4545
 9565TIP3    H150110   0.154   1.512  13.110  1.4256  1.1529 -0.4033
 9565TIP3    H250111   0.042   1.446  13.033 -0.2588  0.2469  2.7081
 9566TIP3   OH250112   2.721   3.563  15.993 -0.0690 -0.1381 -0.2224
 9566TIP3    H150113   2.772   3.643  15.980 -1.3832  0.8711  0.5928
 9566TIP3    H250114   2.666   3.557  15.915  1.6147 -1.4986 -1.3360
 9567TIP3   OH250115   5.513   4.925   5.500  0.0965  0.1912  0.1383
 9567TIP3    H150116   5.604   4.919   5.471 -0.0765  3.2363 -1.2210
 9567TIP3    H250117   5.465   4.868   5.441  0.8605  0.2025 -0.5112
 9568TIP3   OH250118   6.537   3.987   2.034  0.4459  0.2014  0.3685
 9568TIP3    H150119   6.562   4.078   2.049 -1.6245  0.8746 -0.1892
 9568TIP3    H250120   6.470   3.991   1.966 -0.9245 -1.5664  1.5659
 9569TIP3   OH250121   3.193   6.296   0.923 -0.1217  0.0310 -0.0502
 9569TIP3    H150122   3.261   6.315   0.859  1.3367  0.9121  1.7030
 9569TIP3    H250123   3.111   6.314   0.877  0.9519  2.8844 -0.9789
 9570TIP3   OH250124   2.265   4.028   4.579  0.0128 -0.3211 -0.5779
 9570TIP3    H150125   2.245   4.090   4.649 -0.5100 -1.7825  0.5850
 9570TIP3    H250126   2.360   4.017   4.582  0.0656  0.1323 -0.5539
 9571TIP3   OH250127   5.448   0.676   2.614  0.5941  0.0526  0.7524
 9571TIP3    H150128   5.524   0.641   2.662  0.6610  2.1081  2.2308
 9571TIP3    H250129   5.372   0.649   2.666  0.5688  1.0808  1.2593
 9572TIP3   OH250130   1.883   4.582   5.039 -0.0636 -0.3386  0.0005
 9572TIP3    H150131   1.964   4.532   5.025  0.2064  0.2389 -0.4883
 9572TIP3    H250132   1.880   4.644   4.967 -1.0614 -0.5009 -0.1084
 9573TIP3   OH250133   0.471   3.942   0.463 -0.1670 -0.1528  0.1420
 9573TIP3    H150134   0.381   3.929   0.434 -0.3256 -1.1208  0.9956
 9573TIP3    H250135   0.489   4.034   0.446 -1.8489  0.4446  1.3354
 9574TIP3   OH250136   5.951   3.483   0.564 -0.0661 -0.4568  0.4452
 9574TIP3    H150137   6.001   3.402   0.566 -1.1077 -1.0684  2.0015
 9574TIP3    H250138   5.908   3.488   0.649 -2.5351  0.1436 -0.7748
 9575TIP3   OH250139   3.122   1.447  12.421  0.0267  0.0137 -0.0347
 9575TIP3    H150140   3.026   1.445  12.421 -0.0028  0.4194 -1.5229
 9575TIP3    H250141   3.147   1.385  12.352  0.8313 -0.0809  0.3420
 9576TIP3   OH250142   1.801   0.145   3.068 -0.6259  0.1212 -0.2202
 9576TIP3    H150143   1.718   0.188   3.046 -2.4911 -2.2541  1.7816
 9576TIP3    H250144   1.833   0.191   3.145 -0.4096  0.6278 -0.6105
 9577TIP3   OH250145   3.827   0.631  14.051  0.2981 -0.1092  0.3363
 9577TIP3    H150146   3.905   0.678  14.078  1.0621  0.1854 -2.2908
 9577TIP3    H250147   3.756   0.669  14.104  1.6540  0.6991  1.5992
 9578TIP3   OH250148   5.514   0.345   2.923  0.2010  0.2093  0.1608
 9578TIP3    H150149   5.593   0.293   2.910 -1.1082 -1.8190  0.1881
 9578TIP3    H250150   5.532   0.396   3.002  1.6537  0.1390 -0.1033
 9579TIP3   OH250151   4.422   1.412  13.108 -0.3407  0.2494 -0.2139
 9579TIP3    H150152   4.380   1.457  13.182  0.6032  0.2219  0.3523
 9579TIP3    H250153   4.492   1.360  13.149 -1.2380 -1.5246 -0.8848
 9580TIP3   OH250154   1.003   6.225   3.922  0.0133  0.4375 -0.1933
 9580TIP3    H150155   1.055   6.209   3.843 -1.4344 -1.3897 -0.8242
 9580TIP3    H250156   0.964   6.311   3.909  1.2431  0.9462 -0.6189
 9581TIP3   OH250157   3.138   0.276  13.558  0.5331  0.6203  0.1731
 9581TIP3    H150158   3.111   0.205  13.500  0.6206 -0.1253  1.0170
 9581TIP3    H250159   3.232   0.285  13.543  0.3822  1.0695 -0.4850
 9582TIP3   OH250160   5.042   4.474  13.078  0.7749  0.6377  0.5126
 9582TIP3    H150161   4.970   4.418  13.048  1.4641 -1.7286  3.1421
 9582TIP3    H250162   5.100   4.480  13.002 -1.2081  0.9791 -1.0142
 9583TIP3   OH250163   5.533   4.587  17.172 -0.1683  0.0100  0.8680
 9583TIP3    H150164   5.587   4.548  17.103 -0.4178  1.9337 -0.4707
 9583TIP3    H250165   5.595   4.610  17.241  0.5792  1.0075 -0.1064
 9584TIP3   OH250166   4.273   5.677  16.968  0.2143 -0.5893  0.0664
 9584TIP3    H150167   4.205   5.730  17.008 -0.5782 -0.7163 -1.0915
 9584TIP3    H250168   4.270   5.700  16.875 -0.3641 -2.8774 -0.5171
 9585TIP3   OH250169   1.510   6.512   0.589  0.2575 -0.0894  0.1011
 9585TIP3    H150170   1.483   6.595   0.630  1.7938  1.0093 -1.0637
 9585TIP3    H250171   1.551   6.463   0.660 -1.4969 -0.2552  1.0208
 9586TIP3   OH250172   3.715   2.649  13.091 -0.1667 -0.2240 -0.8308
 9586TIP3    H150173   3.670   2.650  13.007  0.9639 -0.4461 -1.4436
 9586TIP3    H250174   3.692   2.565  13.130 -1.3475  0.2209 -0.5483
 9587TIP3   OH250175   6.226   1.811   0.430  0.1584  0.0221  0.3575
 9587TIP3    H150176   6.202   1.718   0.424  0.4627  0.0048 -0.6807
 9587TIP3    H250177   6.242   1.838   0.340 -1.0832  1.4044  0.5310
 9588TIP3   OH250178   5.479   5.529   4.192 -0.6134  0.0956 -0.0131
 9588TIP3    H150179   5.546   5.473   4.153 -0.5530  0.7659 -0.9015
 9588TIP3    H250180   5.422   5.469   4.240 -0.6084 -0.7520 -1.0395
 9589TIP3   OH250181   1.010   3.632   1.063 -0.3021 -0.1068  0.4132
 9589TIP3    H150182   0.920   3.661   1.078 -0.9564 -1.6798 -0.3828
 9589TIP3    H250183   1.004   3.537   1.051  1.4596 -0.2394  0.3423
 9590TIP3   OH250184   5.610   0.917  12.822 -0.3221  0.0119 -0.3706
 9590TIP3    H150185   5.665   0.929  12.745 -1.3013  4.1097 -0.5579
 9590TIP3    H250186   5.521   0.918  12.788 -0.6970 -0.1908  0.5937
 9591TIP3   OH250187   6.325   4.004  14.476 -0.0998  0.6216 -0.1643
 9591TIP3    H150188   6.289   3.961  14.553 -1.3117  2.5576  0.3798
 9591TIP3    H250189   6.351   4.091  14.506  2.1214  0.4036 -1.2910
 9592TIP3   OH250190   1.803   0.475  13.081  0.0117  0.2596  0.1606
 9592TIP3    H150191   1.774   0.427  13.003  1.0896  0.8780 -0.6332
 9592TIP3    H250192   1.725   0.520  13.112  0.2212  2.4631 -2.3429
 9593TIP3   OH250193   3.390   5.735  13.181 -1.0965 -0.3301 -0.0415
 9593TIP3    H150194   3.312   5.775  13.219 -0.2021  1.1793  0.2639
 9593TIP3    H250195   3.460   5.757  13.243 -0.1899 -0.5266 -0.9805
 9594TIP3   OH250196   0.142   3.002  11.870 -0.6913 -0.0739  0.4832
 9594TIP3    H150197   0.130   2.908  11.859 -0.2705 -0.0446 -0.2499
 9594TIP3    H250198   0.233   3.012  11.898 -0.3194  0.2052 -0.7764
 9595TIP3   OH250199   4.684   5.851   3.978  0.2910 -0.1339 -0.0197
 9595TIP3    H150200   4.684   5.807   4.063 -1.7070  1.0898  0.6315
 9595TIP3    H250201   4.610   5.911   3.982  1.7790  1.8707 -1.6417
 9596TIP3   OH250202   1.012   6.536  12.342 -0.5162 -0.7068 -0.3152
 9596TIP3    H150203   1.065   6.457  12.350  2.6247  1.3136 -0.1927
 9596TIP3    H250204   0.982   6.555  12.431  2.7207  0.8068  0.5248
 9597TIP3   OH250205   2.639   5.052  15.041  0.0926 -0.3282 -0.5016
 9597TIP3    H150206   2.625   4.991  15.114  0.0792 -0.8550 -0.9364
 9597TIP3    H250207   2.734   5.050  15.026 -0.1536 -2.0011 -1.9976
 9598TIP3   OH250208   3.825   4.800  16.475 -0.1152 -0.0677 -0.6605
 9598TIP3    H150209   3.807   4.737  16.406 -0.4706 -0.1275 -0.5120
 9598TIP3    H250210   3.757   4.866  16.466 -0.3148 -0.2134 -0.1997
 9599TIP3   OH250211   6.627   3.065  17.181 -0.2788  0.2938 -0.5884
 9599TIP3    H150212   6.593   2.977  17.163  0.2316 -0.3762  1.6568
 9599TIP3    H250213   6.571   3.099  17.251 -0.9313  2.0689 -1.9193
 9600TIP3   OH250214   4.080   2.148   0.123 -0.7497 -0.7329 -0.3977
 9600TIP3    H150215   4.097   2.229   0.171 -0.8803 -0.8768 -0.1098
 9600TIP3    H250216   3.985   2.144   0.114 -0.8846 -1.8856  1.3780
 9601TIP3   OH250217   4.686   1.718   3.810  0.1565 -0.4129  0.0824
 9601TIP3    H150218   4.766   1.664   3.811  0.5619  0.1880  0.4797
 9601TIP3    H250219   4.718   1.808   3.808 -0.5078 -0.1793 -3.8346
 9602TIP3   OH250220   0.556   2.332   0.353 -0.2130 -0.1843  0.1631
 9602TIP3    H150221   0.564   2.376   0.437 -1.6911 -0.2758  0.3661
 9602TIP3    H250222   0.593   2.245   0.367  1.5896  0.5575  0.0957
 9603TIP3   OH250223   3.359   1.531  14.715 -0.1614 -0.1739  0.3494
 9603TIP3    H150224   3.315   1.586  14.780  1.0038 -0.2694  1.2226
 9603TIP3    H250225   3.405   1.465  14.765  0.6382 -0.3365 -0.5807
 9604TIP3   OH250226   5.523   4.800  11.136  0.3478 -0.4868 -0.2388
 9604TIP3    H150227   5.512   4.723  11.079  0.2648 -0.2560 -0.5367
 9604TIP3    H250228   5.574   4.862  11.083 -0.1629 -0.0735 -0.2441
 9605TIP3   OH250229   6.483   5.516  12.753 -0.2283 -0.4321 -0.5284
 9605TIP3    H150230   6.461   5.609  12.762  1.3218  0.0078 -1.1447
 9605TIP3    H250231   6.578   5.514  12.749 -0.1702 -2.2355  1.2916
 9606TIP3   OH250232   2.626   1.089   4.450 -0.3774  0.2235 -0.3296
 9606TIP3    H150233   2.660   1.101   4.538  1.8484  1.8250 -1.3684
 9606TIP3    H250234   2.621   0.994   4.438  0.7123 -0.0030  0.9698
 9607TIP3   OH250235   0.864   5.631  12.092  0.0500  0.4111  0.2487
 9607TIP3    H150236   0.953   5.650  12.123 -0.0838  0.5591  0.5346
 9607TIP3    H250237   0.807   5.654  12.165 -0.0967 -1.4475  0.7495
 9608TIP3   OH250238   5.314   0.722  13.749 -0.0467  0.1859 -0.0502
 9608TIP3    H150239   5.308   0.685  13.660 -1.8203 -1.0829  0.5640
 9608TIP3    H250240   5.353   0.651  13.801 -3.2279 -0.8407  1.0861
 9609TIP3   OH250241   2.885   6.053  11.288 -0.4316  0.3395 -0.3199
 9609TIP3    H150242   2.882   6.040  11.193  1.1291 -1.0377 -0.1849
 9609TIP3    H250243   2.798   6.089  11.309 -0.8574  0.5047 -2.2325
 9610TIP3   OH250244   4.722   6.110  15.654  0.5810  0.0229 -0.1502
 9610TIP3    H150245   4.748   6.143  15.568  0.7189 -0.5314 -0.3251
 9610TIP3    H250246   4.669   6.033  15.635  1.0746 -0.4276  0.2667
 9611TIP3   OH250247   6.387   5.712   3.253 -0.4007  0.0589  0.0074
 9611TIP3    H150248   6.318   5.663   3.298 -2.1230  2.4940  0.1395
 9611TIP3    H250249   6.446   5.741   3.323 -1.1639  0.8758  0.3303
 9612TIP3   OH250250   0.865   6.017   1.098  0.9514  0.0102  0.7361
 9612TIP3    H150251   0.899   6.035   1.185  1.3633  0.1945  0.5396
 9612TIP3    H250252   0.796   5.952   1.111  0.7327  0.3480  1.2448
 9613TIP3   OH250253   1.105   1.642  13.152 -0.2834 -0.1997  0.2330
 9613TIP3    H150254   1.154   1.724  13.151  2.5587 -1.8202  1.9823
 9613TIP3    H250255   1.014   1.668  13.135  0.5176  3.3234  1.0786
 9614TIP3   OH250256   3.455   4.223   6.387 -0.5334 -0.2731  0.1290
 9614TIP3    H150257   3.523   4.290   6.379 -1.7663  1.1054  0.8722
 9614TIP3    H250258   3.502   4.140   6.380  1.2550  0.6472  0.8903
 9615TIP3   OH250259   3.295   1.586  15.404  0.1091  0.1489  0.7703
 9615TIP3    H150260   3.289   1.608  15.311  0.5464 -0.9361  0.4677
 9615TIP3    H250261   3.205   1.576  15.432  0.0178 -1.7867 -0.1254
 9616TIP3   OH250262   3.615   5.044  16.184 -0.6474  0.7557  0.0607
 9616TIP3    H150263   3.527   5.081  16.194  0.0853  2.2446  1.1656
 9616TIP3    H250264   3.639   5.018  16.273  0.1201  0.5844 -0.2031
 9617TIP3   OH250265   1.901   0.743  15.233 -0.1613 -0.3344  0.0212
 9617TIP3    H150266   1.880   0.706  15.147  1.6497  0.6141 -0.8519
 9617TIP3    H250267   1.820   0.787  15.260 -0.5665 -0.1136 -1.4856
 9618TIP3   OH250268   6.323   0.828  13.443  0.2942 -0.4702 -0.2694
 9618TIP3    H150269   6.318   0.797  13.353 -1.3976  1.1774 -0.7405
 9618TIP3    H250270   6.393   0.774  13.482  0.0650 -2.1739 -2.1386
 9619TIP3   OH250271   3.385   6.285   2.591 -0.1926 -0.0324 -0.4403
 9619TIP3    H150272   3.351   6.278   2.680  1.4007 -0.5899  0.1367
 9619TIP3    H250273   3.333   6.223   2.540 -1.4226  0.6220 -0.0113
 9620TIP3   OH250274   5.289   4.331  12.703 -0.0691  0.7222 -0.1096
 9620TIP3    H150275   5.327   4.273  12.770 -1.0229 -2.7111 -2.3790
 9620TIP3    H250276   5.226   4.275  12.657 -0.8738  3.5690 -2.5909
 9621TIP3   OH250277   2.523   4.485   3.475 -0.2296 -0.2529 -0.5921
 9621TIP3    H150278   2.563   4.403   3.446  0.2439 -0.1335 -0.2853
 9621TIP3    H250279   2.588   4.553   3.454 -0.2802 -0.0557 -0.1243
 9622TIP3   OH250280   2.673   4.825  13.346 -0.3030 -0.2634  0.1554
 9622TIP3    H150281   2.598   4.853  13.399  0.5360 -0.4405  1.4669
 9622TIP3    H250282   2.681   4.892  13.278 -2.3041 -0.8069 -0.6591
 9623TIP3   OH250283   0.589   3.423  13.588  0.1940 -0.1243 -0.2888
 9623TIP3    H150284   0.683   3.429  13.608  0.4224  0.1428 -1.4251
 9623TIP3    H250285   0.558   3.351  13.642  1.2116 -0.7297 -0.4954
 9624TIP3   OH250286   2.764   4.726   1.216 -0.2973 -0.0359 -0.0157
 9624TIP3    H150287   2.673   4.748   1.197 -0.5280 -1.8078 -1.0372
 9624TIP3    H250288   2.801   4.701   1.132  1.0218  0.2520  0.4694
 9625TIP3   OH250289   2.009   4.964   2.785 -0.2662 -0.3466  0.6152
 9625TIP3    H150290   1.940   4.919   2.834  1.6351 -0.7370  3.0750
 9625TIP3    H250291   2.000   5.056   2.810 -1.9467  0.1707 -1.6919
 9626TIP3   OH250292   5.694   3.263   4.426  0.2466 -0.1563 -0.1189
 9626TIP3    H150293   5.738   3.241   4.509 -0.2851  2.3867  0.8703
 9626TIP3    H250294   5.765   3.263   4.361  0.6552 -2.2429  0.2918
 9627TIP3   OH250295   5.965   5.564  15.879 -0.2554  0.0115  0.3180
 9627TIP3    H150296   5.950   5.658  15.870 -2.6669 -0.5156 -1.7276
 9627TIP3    H250297   6.022   5.542  15.805 -0.4083 -0.3054  0.2955
 9628TIP3   OH250298   5.061   5.109  10.149 -0.1420  0.2814  0.3456
 9628TIP3    H150299   4.968   5.116  10.129  0.2136  1.0023 -1.0702
 9628TIP3    H250300   5.074   5.017  10.172 -0.8198 -0.2461 -1.3655
 9629TIP3   OH250301   1.141   2.833   2.852  0.3046  0.2302 -0.1260
 9629TIP3    H150302   1.188   2.894   2.796 -1.3157  0.5843 -1.1289
 9629TIP3    H250303   1.049   2.855   2.840 -0.3340 -2.5334 -0.6525
 9630TIP3   OH250304   0.579   5.055  11.297  0.4054  0.0628  0.4209
 9630TIP3    H150305   0.552   5.121  11.362 -1.3896  0.2453 -0.4777
 9630TIP3    H250306   0.672   5.042  11.313  0.5239  1.9595  1.4008
 9631TIP3   OH250307   0.762   4.266   0.753  0.0024  0.1243 -0.7434
 9631TIP3    H150308   0.795   4.215   0.679  1.6197  3.3932 -2.3736
 9631TIP3    H250309   0.722   4.343   0.713  0.9316  1.9753  1.7723
 9632TIP3   OH250310   5.959   1.791   0.123  0.6735 -0.3208  0.3104
 9632TIP3    H150311   5.949   1.789   0.028  1.1445  1.5182  0.1974
 9632TIP3    H250312   6.054   1.793   0.137  0.6004 -0.0387  0.7955
 9633TIP3   OH250313   1.259   4.968  11.055 -0.5979  0.1554  0.1819
 9633TIP3    H150314   1.316   4.896  11.027 -0.6247 -0.1139  0.8307
 9633TIP3    H250315   1.319   5.042  11.068 -0.3978 -0.1270  0.8570
 9634TIP3   OH250316   3.081   4.536   4.681 -0.4525  0.0505  0.2443
 9634TIP3    H150317   3.032   4.456   4.699 -2.2136  1.2238  0.7391
 9634TIP3    H250318   3.134   4.515   4.604 -1.1655 -1.4795  0.1675
 9635TIP3   OH250319   2.139   0.301   0.455  0.2468  0.6980 -0.8697
 9635TIP3    H150320   2.216   0.267   0.501 -0.5569 -0.4632 -0.3427
 9635TIP3    H250321   2.168   0.317   0.366  0.6497 -1.4818 -1.1545
 9636TIP3   OH250322   6.290   6.581   5.380  0.4997 -0.3235  0.2711
 9636TIP3    H150323   6.234   6.658   5.389 -0.0920 -0.8674  1.2823
 9636TIP3    H250324   6.230   6.510   5.355  0.5646 -1.1341  2.3527
 9637TIP3   OH250325   3.711   1.404   5.620 -0.0209 -0.4520  0.2049
 9637TIP3    H150326   3.779   1.429   5.683 -0.7090 -0.7623  1.0729
 9637TIP3    H250327   3.663   1.485   5.603  0.2826 -0.3274 -0.0782
 9638TIP3   OH250328   1.552   3.612  16.039  0.5233  0.0679 -0.1496
 9638TIP3    H150329   1.613   3.542  16.061 -0.0252 -0.2544  0.3575
 9638TIP3    H250330   1.542   3.662  16.120 -2.6529 -1.9895  0.8285
 9639TIP3   OH250331   0.319   2.107   0.159 -0.1493 -0.2566 -0.3205
 9639TIP3    H150332   0.318   2.174   0.091 -0.8535  0.5725  0.5020
 9639TIP3    H250333   0.242   2.126   0.213  1.2701  0.0826  1.6415
 9640TIP3   OH250334   0.600   2.896   4.317  0.3612  0.8623 -0.0056
 9640TIP3    H150335   0.546   2.956   4.265  0.2844  0.7301 -0.0790
 9640TIP3    H250336   0.543   2.867   4.388  0.3506  0.7616 -0.0548
 9641TIP3   OH250337   3.057   4.176  15.963 -0.1247  0.4492  0.0335
 9641TIP3    H150338   3.115   4.215  16.028 -0.4642  2.4541 -0.8255
 9641TIP3    H250339   3.019   4.100  16.007  1.4799  0.3731  1.3414
 9642TIP3   OH250340   4.656   4.624  16.813  0.1162  0.5713 -0.4343
 9642TIP3    H150341   4.629   4.672  16.735  1.0823  1.2383 -0.3723
 9642TIP3    H250342   4.744   4.592  16.792 -0.1114 -0.2949 -0.0880
 9643TIP3   OH250343   5.428   5.815   3.677 -0.1622  0.3559  0.2298
 9643TIP3    H150344   5.362   5.783   3.615 -0.1059  1.5893 -0.4913
 9643TIP3    H250345   5.418   5.759   3.754 -0.3915 -1.0460 -0.8027
 9644TIP3   OH250346   0.065   5.248  12.285 -0.3581 -0.1206 -0.5276
 9644TIP3    H150347   0.041   5.194  12.361 -0.0904  0.6801  0.1276
 9644TIP3    H250348  -0.015   5.250  12.232 -0.7447 -0.1621  0.0425
 9645TIP3   OH250349   1.832   6.695  16.217 -0.0130 -0.3929  0.0742
 9645TIP3    H150350   1.923   6.677  16.241  0.3294  0.7285 -0.3595
 9645TIP3    H250351   1.784   6.690  16.300  0.2946 -1.8618  0.1741
 9646TIP3   OH250352   0.947   6.617   4.975  0.3950  0.1653 -0.3689
 9646TIP3    H150353   0.928   6.624   4.881 -0.3429 -0.4908 -0.2684
 9646TIP3    H250354   1.008   6.544   4.981 -2.0212 -1.8580 -0.0015
 9647TIP3   OH250355   6.551   3.629  17.005 -0.3161  0.3075 -0.0395
 9647TIP3    H150356   6.555   3.556  17.066  2.0587  0.5705  0.1819
 9647TIP3    H250357   6.458   3.640  16.986 -0.8675 -1.4263  1.5237
 9648TIP3   OH250358   3.153   3.277   5.231  0.0120  0.3319  0.0034
 9648TIP3    H150359   3.122   3.212   5.168 -0.2475  3.4499 -3.3256
 9648TIP3    H250360   3.072   3.313   5.269  0.0534 -0.0063  0.3997
 9649TIP3   OH250361   3.606   0.332   0.181 -0.2090  0.7795 -0.3793
 9649TIP3    H150362   3.537   0.286   0.133  0.4584 -1.6480  0.8710
 9649TIP3    H250363   3.566   0.413   0.211 -3.1050 -1.4250  1.9006
 9650TIP3   OH250364   3.994   1.418   1.982 -0.4021 -0.1801 -0.0819
 9650TIP3    H150365   4.005   1.450   1.892  0.4316 -0.7310 -0.1792
 9650TIP3    H250366   3.925   1.473   2.019 -1.2791 -0.4308 -1.3012
 9651TIP3   OH250367   2.536   2.276  11.410  1.1094 -0.1004  0.1828
 9651TIP3    H150368   2.506   2.318  11.329 -0.2772  0.3819  0.9247
 9651TIP3    H250369   2.528   2.182  11.392 -1.1280  0.0091  0.4258
 9652TIP3   OH250370   4.964   2.602   3.019 -0.2538  0.3415 -1.1837
 9652TIP3    H150371   4.943   2.603   2.926 -0.3423  2.4608 -1.1553
 9652TIP3    H250372   5.045   2.653   3.026  1.0957 -1.8334 -0.3963
 9653TIP3   OH250373   6.767   5.817   2.988  0.4037 -0.5031  0.2261
 9653TIP3    H150374   6.735   5.786   2.903 -0.6134 -1.4452  0.9355
 9653TIP3    H250375   6.777   5.737   3.040  0.2598  0.1374  1.2477
 9654TIP3   OH250376   6.451   4.057   1.026 -0.0875  0.1739  0.3017
 9654TIP3    H150377   6.535   4.092   1.054 -0.2387  0.7702  0.0104
 9654TIP3    H250378   6.389   4.128   1.039 -0.5513 -0.2697  0.5267
 9655TIP3   OH250379   2.504   0.136  11.924  0.3822  0.7213 -0.4088
 9655TIP3    H150380   2.439   0.109  11.988  0.4412  1.1173 -0.1767
 9655TIP3    H250381   2.453   0.153  11.844  0.2648  0.5638 -0.3672
 9656TIP3   OH250382   3.539   5.989   2.473 -0.8529  0.2951 -0.2452
 9656TIP3    H150383   3.586   6.062   2.513 -2.2219  0.4447  1.1532
 9656TIP3    H250384   3.531   5.924   2.543  1.2407 -1.6687 -1.7420
 9657TIP3   OH250385   5.553   4.614  14.050  0.0981  0.7648 -0.1370
 9657TIP3    H150386   5.585   4.526  14.030  0.0479  0.9517 -1.0809
 9657TIP3    H250387   5.569   4.625  14.144  0.2442 -0.1910 -0.0447
 9658TIP3   OH250388   3.882   1.571  11.873 -0.2713 -0.4534  0.0874
 9658TIP3    H150389   3.914   1.536  11.790 -0.2313 -1.0155  0.3373
 9658TIP3    H250390   3.873   1.494  11.930 -0.1846 -0.0630  0.6384
 9659TIP3   OH250391   6.540   5.751  11.469  0.1355 -0.5585  0.4279
 9659TIP3    H150392   6.579   5.718  11.388  0.8761 -0.4925  0.7567
 9659TIP3    H250393   6.458   5.791  11.441 -0.5909 -2.3169 -0.0278
 9660TIP3   OH250394   5.571   1.205  16.405 -0.1502  0.1256  0.4717
 9660TIP3    H150395   5.608   1.230  16.489  2.7111  0.0070 -0.6918
 9660TIP3    H250396   5.545   1.288  16.365 -0.4377  0.2820  0.9767
 9661TIP3   OH250397   5.062   3.887  17.099 -0.6428 -0.6741  0.4158
 9661TIP3    H150398   5.132   3.885  17.034  1.0350  0.0249  2.1264
 9661TIP3    H250399   4.993   3.939  17.059  0.7685  0.6148 -0.4348
 9662TIP3   OH250400   2.185   1.130   6.002  0.2518  0.4609 -0.0371
 9662TIP3    H150401   2.127   1.205   5.989  1.2485  1.6733  2.2944
 9662TIP3    H250402   2.127   1.054   5.995 -0.6955  1.3927 -2.8443
 9663TIP3   OH250403   1.685   1.164   2.602  0.1356  0.3337  0.3201
 9663TIP3    H150404   1.603   1.185   2.558 -0.3530 -3.3548 -0.7080
 9663TIP3    H250405   1.662   1.161   2.695 -0.6666  0.3146  0.1253
 9664TIP3   OH250406   1.528   1.424   3.635  0.5992 -0.4042 -0.1615
 9664TIP3    H150407   1.465   1.428   3.707  2.4212 -1.5149  1.5640
 9664TIP3    H250408   1.557   1.514   3.623  0.0443 -0.1611  0.3072
 9665TIP3   OH250409   5.493   3.386   0.023  0.6591 -0.7149 -0.3417
 9665TIP3    H150410   5.508   3.417  -0.066  0.3954  1.4497  0.3323
 9665TIP3    H250411   5.581   3.374   0.059  0.8209  1.6424  0.1517
 9666TIP3   OH250412   2.945   4.249   1.819  0.2965  0.0803  0.0593
 9666TIP3    H150413   2.886   4.204   1.757  0.1743  0.6119 -0.2160
 9666TIP3    H250414   2.931   4.204   1.902 -1.6435  1.1705  0.3584
 9667TIP3   OH250415   2.784   2.846  12.581 -0.9463  0.0541 -0.3727
 9667TIP3    H150416   2.874   2.825  12.607 -1.5422 -0.9156  1.0008
 9667TIP3    H250417   2.761   2.777  12.519 -1.1811 -0.4824  0.2968
 9668TIP3   OH250418   3.274   4.783  12.426 -0.2031 -0.0251  0.2467
 9668TIP3    H150419   3.319   4.709  12.467  1.4536  0.9907  0.3046
 9668TIP3    H250420   3.185   4.779  12.461  0.4935 -0.6582  2.0250
 9669TIP3   OH250421   2.126   2.625   6.222 -0.3826  0.1326 -0.1562
 9669TIP3    H150422   2.037   2.622   6.188 -0.4659  0.7544 -0.0021
 9669TIP3    H250423   2.116   2.623   6.317 -0.1759 -1.0057 -0.1534
 9670TIP3   OH250424   5.777   1.586  13.700 -0.0928  0.4948 -0.1407
 9670TIP3    H150425   5.711   1.649  13.729  0.0666  1.0952 -1.0441
 9670TIP3    H250426   5.821   1.630  13.627  0.8128 -0.1959 -0.0202
 9671TIP3   OH250427   5.567   4.991   1.777  0.1036 -0.4142  0.4003
 9671TIP3    H150428   5.536   4.912   1.732 -0.8835  0.6197 -0.8009
 9671TIP3    H250429   5.488   5.029   1.816  0.8059 -0.7764  2.2168
 9672TIP3   OH250430   1.065   2.919  16.581 -0.2263 -0.3549  0.0379
 9672TIP3    H150431   0.975   2.937  16.606  0.3313  0.8049  1.2544
 9672TIP3    H250432   1.075   2.958  16.495 -0.3724  1.1243  0.6809
 9673TIP3   OH250433   6.079   4.584  13.134  0.5531  0.6899 -0.1536
 9673TIP3    H150434   6.126   4.553  13.056 -1.3326 -2.2956 -0.2197
 9673TIP3    H250435   6.142   4.575  13.205  0.8834 -0.9411 -0.6261
 9674TIP3   OH250436   5.805   0.789   0.449 -0.1670 -0.0357  0.3454
 9674TIP3    H150437   5.713   0.812   0.463 -0.1724  0.6581 -0.7840
 9674TIP3    H250438   5.803   0.704   0.406 -0.3338  0.5387 -0.8106
 9675TIP3   OH250439   2.956   0.594   4.192 -0.2950  0.3673  0.0004
 9675TIP3    H150440   2.901   0.670   4.174 -1.5971 -0.0284  2.1201
 9675TIP3    H250441   2.985   0.607   4.282  0.9480 -0.7678 -0.2203
 9676TIP3   OH250442   0.515   4.172   0.735  0.0175  0.3004 -0.1454
 9676TIP3    H150443   0.528   4.094   0.790 -0.3129 -0.9178 -1.7664
 9676TIP3    H250444   0.602   4.210   0.726  0.1054  0.4069  1.0583
 9677TIP3   OH250445   0.404   2.512   1.539  0.4562 -0.0266 -0.0376
 9677TIP3    H150446   0.395   2.426   1.499 -1.6597  0.9895 -1.8435
 9677TIP3    H250447   0.387   2.497   1.632 -0.8025 -1.4216 -0.4739
 9678TIP3   OH250448   2.012   2.917   1.571  0.3317 -0.4581  0.5870
 9678TIP3    H150449   1.941   2.861   1.603  0.2792  0.1102  1.5079
 9678TIP3    H250450   2.073   2.857   1.528 -0.0958 -1.1214  0.8987
 9679TIP3   OH250451   5.456   0.199   5.902 -0.2368  0.2699 -0.4547
 9679TIP3    H150452   5.549   0.223   5.892  0.3376 -1.3635  0.6406
 9679TIP3    H250453   5.442   0.131   5.836  0.3527 -2.0541  1.7435
 9680TIP3   OH250454   1.989   5.718  14.599  0.2636 -0.0674 -0.1375
 9680TIP3    H150455   2.063   5.708  14.659  0.8005  0.2484 -0.7534
 9680TIP3    H250456   1.998   5.805  14.563 -0.0588 -0.2652 -0.7015
 9681TIP3   OH250457   5.795   0.259   3.428 -0.1939 -0.3079 -0.2674
 9681TIP3    H150458   5.728   0.209   3.381 -1.4901  0.2657  0.9275
 9681TIP3    H250459   5.773   0.350   3.412  1.2989 -0.1011 -1.2341
 9682TIP3   OH250460   2.299   1.126   2.902  0.3607 -0.2153 -0.6252
 9682TIP3    H150461   2.207   1.146   2.913  0.4159 -1.8969  4.0180
 9682TIP3    H250462   2.301   1.057   2.836 -1.7811 -0.6548 -0.2694
 9683TIP3   OH250463   3.553   4.972  12.002  0.1545 -0.6056  0.0169
 9683TIP3    H150464   3.583   4.981  11.911  1.2474  0.6508  0.4894
 9683TIP3    H250465   3.582   5.053  12.045 -2.5412 -0.0119  0.8759
 9684TIP3   OH250466   2.219   0.131   2.748  0.2704  0.2098  0.1081
 9684TIP3    H150467   2.127   0.147   2.769  0.0776 -0.1596 -0.4483
 9684TIP3    H250468   2.217   0.064   2.680  0.9966 -0.9145  1.1660
 9685TIP3   OH250469   5.110   1.517  15.598 -0.1759  0.8557 -0.0016
 9685TIP3    H150470   5.074   1.458  15.664  0.3055  0.4703 -0.0753
 9685TIP3    H250471   5.039   1.577  15.578 -0.5614  0.5185  0.3338
 9686TIP3   OH250472   1.898   6.779  10.483 -0.8052 -0.8441 -0.4949
 9686TIP3    H150473   1.862   6.702  10.438  1.3901 -1.1397 -1.8299
 9686TIP3    H250474   1.903   6.846  10.414 -0.1569 -0.3686  0.0118
 9687TIP3   OH250475   6.093   5.082  14.864  0.2795  0.0601  0.5133
 9687TIP3    H150476   6.121   5.148  14.928 -0.5984 -0.6475  1.6285
 9687TIP3    H250477   6.004   5.060  14.889 -0.2959  0.1951 -1.3107
 9688TIP3   OH250478   6.654   6.459   0.553  0.6244 -0.2288 -0.2549
 9688TIP3    H150479   6.581   6.426   0.605  0.4847 -0.0904 -0.3613
 9688TIP3    H250480   6.730   6.454   0.611  0.8791 -2.0567 -0.7115
 9689TIP3   OH250481   4.523   1.970  13.407 -0.5438 -0.0442  0.0344
 9689TIP3    H150482   4.611   1.943  13.433 -0.9122 -1.1641  0.1702
 9689TIP3    H250483   4.536   2.045  13.349  0.7202 -2.3717 -2.8165
 9690TIP3   OH250484   5.427   4.359  10.699 -0.5267  0.2697  0.1354
 9690TIP3    H150485   5.361   4.337  10.633  1.4290 -1.1277 -1.4007
 9690TIP3    H250486   5.387   4.431  10.749 -2.7337  0.2270 -1.4748
 9691TIP3   OH250487   2.695   5.112   1.442  0.6237  0.1616 -0.4640
 9691TIP3    H150488   2.739   5.039   1.400 -0.4817  0.2399 -1.7856
 9691TIP3    H250489   2.640   5.072   1.510  0.8728 -0.1279 -0.4313
 9692TIP3   OH250490   2.399   2.836  14.262  0.0239  0.2120  0.4180
 9692TIP3    H150491   2.485   2.796  14.249 -1.4634 -2.5623 -1.2747
 9692TIP3    H250492   2.398   2.912  14.203  0.2549 -1.4515 -1.7739
 9693TIP3   OH250493   3.662   6.764   2.412 -0.0826 -0.1028  0.0816
 9693TIP3    H150494   3.753   6.763   2.442  0.1674  0.1526 -0.6445
 9693TIP3    H250495   3.656   6.842   2.357 -1.7834  2.0321  3.1726
 9694TIP3   OH250496   4.591   5.535  11.893  0.3819 -0.2986  0.2438
 9694TIP3    H150497   4.525   5.507  11.956  0.8278  0.0741  0.8878
 9694TIP3    H250498   4.660   5.469  11.898 -0.0255 -0.7892 -0.5663
 9695TIP3   OH250499   3.904   6.490   4.982 -0.0258  0.0942  0.5170
 9695TIP3    H150500   3.936   6.564   5.034 -2.7293  2.7403 -1.4152
 9695TIP3    H250501   3.955   6.493   4.901  0.6135 -0.8770  0.8682
 9696TIP3   OH250502   6.316   4.634  10.952  0.2865  0.1949  0.0103
 9696TIP3    H150503   6.239   4.673  10.909 -0.2004  0.0311  0.7225
 9696TIP3    H250504   6.379   4.706  10.957  0.2135  0.3114 -0.6501
 9697TIP3   OH250505   1.417   2.030   5.044  0.0291 -0.0653  0.6631
 9697TIP3    H150506   1.504   2.019   5.006  0.1622 -0.3969  1.0568
 9697TIP3    H250507   1.395   2.122   5.031  0.2551 -0.0849  0.1682
 9698TIP3   OH250508   2.504   3.419   0.159 -0.1451  0.1901 -0.2867
 9698TIP3    H150509   2.548   3.499   0.188 -0.1128  0.0881 -0.0491
 9698TIP3    H250510   2.540   3.401   0.073  0.6921 -0.2080  0.1414
 9699TIP3   OH250511   2.579   4.352   2.071 -0.1531 -0.3098  0.4512
 9699TIP3    H150512   2.657   4.397   2.103 -0.2972 -0.5529  1.1466
 9699TIP3    H250513   2.512   4.370   2.137 -1.2857  1.6304 -1.1507
 9700TIP3   OH250514   4.110   5.941  13.788 -0.0976  0.6514  0.4164
 9700TIP3    H150515   4.063   5.914  13.866 -1.0530 -0.1748 -0.4351
 9700TIP3    H250516   4.144   6.028  13.809  1.0292 -0.2304  2.3268
 9701TIP3   OH250517   1.701   6.695   0.973  0.1043  0.8037 -0.3500
 9701TIP3    H150518   1.758   6.722   1.046 -0.8607 -1.0119  1.1203
 9701TIP3    H250519   1.620   6.743   0.987 -0.4210 -0.2661  0.3431
 9702TIP3   OH250520   3.652   3.153   1.848  0.2225  0.3872  0.0617
 9702TIP3    H150521   3.683   3.236   1.813 -0.5198  1.0180  0.8734
 9702TIP3    H250522   3.730   3.098   1.852  0.5619  0.7629 -1.2528
 9703TIP3   OH250523   1.968   3.342  16.705  0.3397 -0.3289  0.2452
 9703TIP3    H150524   2.010   3.426  16.724  0.7901 -0.6719  0.7679
 9703TIP3    H250525   1.891   3.365  16.653  0.7587  0.3596 -0.0619
 9704TIP3   OH250526   3.231   0.605   1.328 -0.6325 -0.4990 -0.5687
 9704TIP3    H150527   3.228   0.686   1.277 -0.3882 -1.1861 -1.6895
 9704TIP3    H250528   3.181   0.542   1.276  1.8383 -1.9475 -1.2632
 9705TIP3   OH250529   1.511   5.686  15.959 -0.3136  0.0302  0.2682
 9705TIP3    H150530   1.555   5.722  15.881  0.0321  0.5126  0.6827
 9705TIP3    H250531   1.535   5.746  16.030 -1.0699 -0.1085  0.6412
 9706TIP3   OH250532   3.555   4.755  14.586 -0.8823 -0.3162 -0.0578
 9706TIP3    H150533   3.468   4.772  14.621 -0.1943  0.4625  1.2952
 9706TIP3    H250534   3.615   4.776  14.657  0.4683 -0.0173 -1.2485
 9707TIP3   OH250535   5.967   2.841   0.206 -0.3951  0.6494 -0.7674
 9707TIP3    H150536   5.949   2.921   0.256 -1.3826  0.1547 -0.3062
 9707TIP3    H250537   6.007   2.782   0.270 -1.6855  0.0054 -0.5262
 9708TIP3   OH250538   6.491   1.726  11.333 -0.3679  0.0193 -0.6963
 9708TIP3    H150539   6.442   1.776  11.398 -0.0117  0.9998 -1.1698
 9708TIP3    H250540   6.476   1.773  11.251  2.4397  1.1444 -0.6425
 9709TIP3   OH250541   1.888   3.981  12.707  0.1629 -0.5778  0.6601
 9709TIP3    H150542   1.940   3.938  12.775 -0.4654 -0.5895  1.1444
 9709TIP3    H250543   1.889   3.919  12.634  1.4513 -0.2347  0.3903
 9710TIP3   OH250544   5.532   4.702  11.741 -0.1968  0.3798 -0.5546
 9710TIP3    H150545   5.517   4.707  11.836  1.4845  1.4631 -0.3131
 9710TIP3    H250546   5.617   4.659  11.733 -1.6475 -2.3437 -1.6977
 9711TIP3   OH250547   5.072   2.056  13.273 -0.0275 -0.4500 -0.8372
 9711TIP3    H150548   5.119   2.103  13.342 -0.4479 -1.7636  0.3656
 9711TIP3    H250549   5.007   2.119  13.241  1.4553  0.8284 -1.3943
 9712TIP3   OH250550   5.367   1.283   3.703  0.7985 -0.4278 -0.0728
 9712TIP3    H150551   5.415   1.231   3.768 -0.5021 -0.4859  0.8523
 9712TIP3    H250552   5.348   1.221   3.633  0.5793 -0.8204  0.3328
 9713TIP3   OH250553   3.362   4.697   4.564  0.6209 -0.4286 -0.0327
 9713TIP3    H150554   3.393   4.643   4.636 -1.3684 -1.7957 -0.1597
 9713TIP3    H250555   3.413   4.669   4.489  1.1404 -0.5608  0.3659
 9714TIP3   OH250556   2.618   5.314  11.850 -0.1087 -0.3385 -0.2902
 9714TIP3    H150557   2.563   5.246  11.810  0.4654 -0.4570 -0.8845
 9714TIP3    H250558   2.594   5.394  11.804  1.5498 -0.7191 -1.8576
 9715TIP3   OH250559   5.855   3.447  15.653 -0.1456  0.3686 -0.2095
 9715TIP3    H150560   5.892   3.505  15.719 -1.7053 -0.6815  1.6223
 9715TIP3    H250561   5.812   3.505  15.590  0.9118  1.3457 -0.0444
 9716TIP3   OH250562   1.467   0.139  15.940  0.6327  0.2859  0.3072
 9716TIP3    H150563   1.538   0.096  15.988  1.9825  0.1040 -1.7856
 9716TIP3    H250564   1.409   0.068  15.913  0.7055  0.2199  0.3254
 9717TIP3   OH250565   0.751   3.972  10.227 -0.5606  0.1105  0.2284
 9717TIP3    H150566   0.712   4.006  10.308 -2.4972  0.3725 -0.7798
 9717TIP3    H250567   0.752   4.048  10.169  1.8037  0.1823  0.3340
 9718TIP3   OH250568   2.889   3.603  14.825  0.1987  0.6422  0.0541
 9718TIP3    H150569   2.824   3.534  14.811  0.6441  0.1486  0.4111
 9718TIP3    H250570   2.900   3.606  14.920  0.6532  0.7722 -0.0048
 9719TIP3   OH250571   5.118   6.016  13.550  0.1410  0.8116 -0.3298
 9719TIP3    H150572   5.034   5.982  13.518  0.3919 -1.8220  1.6341
 9719TIP3    H250573   5.184   5.966  13.502  0.5245 -0.6123  1.6278
 9720TIP3   OH250574   4.927   4.949  13.099 -0.3574 -1.0354 -0.1077
 9720TIP3    H150575   4.850   5.004  13.115  1.5187  1.2388  1.3576
 9720TIP3    H250576   4.954   4.920  13.186  0.6567 -1.5557 -0.5964
 9721TIP3   OH250577   0.007   3.789   1.657 -0.6428  0.3973 -0.0703
 9721TIP3    H150578  -0.040   3.766   1.738  1.1707  0.6713  1.0991
 9721TIP3    H250579   0.011   3.885   1.658 -0.9313  0.4161 -0.6764
 9722TIP3   OH250580   2.073   4.958  13.496 -0.4055 -0.1173  0.3466
 9722TIP3    H150581   2.074   5.014  13.419 -2.0075  1.9554  1.7612
 9722TIP3    H250582   2.162   4.963  13.531 -0.0641  0.1024 -0.5437
 9723TIP3   OH250583   0.925   2.171   4.259 -0.2117 -0.0332 -0.0149
 9723TIP3    H150584   0.959   2.221   4.185  1.7241  1.0930  1.5990
 9723TIP3    H250585   0.919   2.081   4.226 -1.2860  0.7808 -2.1343
 9724TIP3   OH250586   1.607   3.879  14.941  0.2201 -0.4447  0.3111
 9724TIP3    H150587   1.667   3.828  14.886  1.0106 -0.5343  1.2458
 9724TIP3    H250588   1.597   3.826  15.020 -0.0181  0.2200  0.7283
 9725TIP3   OH250589   5.169   4.151   1.573  0.1313 -0.7770  0.0201
 9725TIP3    H150590   5.260   4.143   1.544  1.3785  2.3405  2.7389
 9725TIP3    H250591   5.165   4.104   1.656  0.1176  1.5631  1.4063
 9726TIP3   OH250592   0.853   0.724   5.418 -0.2734  0.0280 -0.8758
 9726TIP3    H150593   0.923   0.745   5.356 -0.6264  1.4811 -0.8103
 9726TIP3    H250594   0.892   0.739   5.504  0.9876 -4.3428 -0.5700
 9727TIP3   OH250595   0.835   2.113   2.515  0.6876 -0.3760  0.2222
 9727TIP3    H150596   0.852   2.068   2.432 -1.0360  0.6255 -0.7120
 9727TIP3    H250597   0.907   2.176   2.522  1.1389 -0.8235 -0.2348
 9728TIP3   OH250598   3.220   1.627   5.010  0.0422  0.7054 -0.5277
 9728TIP3    H150599   3.223   1.719   5.038  0.3547  0.5503 -0.0658
 9728TIP3    H250600   3.152   1.588   5.064  0.4845  0.4622 -0.1502
 9729TIP3   OH250601   2.074   5.928   0.314  0.6091 -0.7853  0.0173
 9729TIP3    H150602   2.114   6.012   0.336 -0.9660  0.3879 -1.4011
 9729TIP3    H250603   2.121   5.897   0.237 -0.0966 -0.2112 -0.6562
 9730TIP3   OH250604   2.837   3.757  12.421 -0.0874 -0.8980  0.0833
 9730TIP3    H150605   2.885   3.701  12.482  0.2472 -1.3068 -0.5493
 9730TIP3    H250606   2.855   3.720  12.335 -0.3570 -0.1740 -0.2893
 9731TIP3   OH250607   1.124   5.167   4.734 -0.1027 -0.5499 -0.0141
 9731TIP3    H150608   1.196   5.226   4.759  0.6448 -1.7543  0.7108
 9731TIP3    H250609   1.085   5.139   4.817 -2.8884  1.8430 -0.4473
 9732TIP3   OH250610   3.127   4.522  11.681  0.1383  0.3678 -0.5055
 9732TIP3    H150611   3.100   4.585  11.748 -0.6305 -0.8557  0.3512
 9732TIP3    H250612   3.215   4.494  11.707 -1.3311 -2.3947  1.7404
 9733TIP3   OH250613   3.405   4.028  15.583 -0.6974  0.0182 -0.3447
 9733TIP3    H150614   3.360   4.107  15.553 -0.7094  0.5818  1.1009
 9733TIP3    H250615   3.356   4.001  15.660 -0.3793 -1.1037 -0.5368
 9734TIP3   OH250616   1.394   3.064   4.960 -0.5320 -0.0174  0.4122
 9734TIP3    H150617   1.366   3.129   5.025 -0.3809  0.5473 -0.0860
 9734TIP3    H250618   1.323   3.000   4.958 -0.5162 -0.0599  1.1688
 9735TIP3   OH250619   5.221   6.599   1.442  0.3960  0.0839  0.5499
 9735TIP3    H150620   5.307   6.578   1.477 -0.0249  0.2446  1.7042
 9735TIP3    H250621   5.193   6.676   1.491 -1.0596 -0.8883  1.2830
 9736TIP3   OH250622   4.200   4.220   1.229 -0.2112  0.5067 -0.0264
 9736TIP3    H150623   4.106   4.234   1.228 -0.6011 -1.8530  0.4022
 9736TIP3    H250624   4.212   4.136   1.184  1.3916 -0.6750  2.5264
 9737TIP3   OH250625   5.940   1.997  16.724  0.5539 -0.1754 -0.0080
 9737TIP3    H150626   5.964   2.089  16.738  1.3794 -0.4308  0.2437
 9737TIP3    H250627   6.021   1.949  16.737  0.1074 -0.9498 -0.0995
 9738TIP3   OH250628   6.601   6.723   2.963 -0.2088  1.1739  0.9138
 9738TIP3    H150629   6.585   6.719   3.057 -1.3975 -2.1184  0.6219
 9738TIP3    H250630   6.696   6.712   2.954 -0.4039 -1.3489  1.6222
 9739TIP3   OH250631   6.381   3.477  12.432 -0.6669 -0.1984 -0.5763
 9739TIP3    H150632   6.466   3.462  12.390  1.2997  2.6567  2.0907
 9739TIP3    H250633   6.359   3.394  12.474  1.9515 -0.3692  0.5465
 9740TIP3   OH250634   0.895   4.751   0.230 -0.4434  0.0716 -0.1819
 9740TIP3    H150635   0.812   4.707   0.247 -0.6935  1.3235  1.9984
 9740TIP3    H250636   0.907   4.810   0.304  1.7038  0.9558 -1.1807
 9741TIP3   OH250637   2.502   0.110  11.276  0.4761  0.7812 -0.1934
 9741TIP3    H150638   2.436   0.163  11.322  0.6955  0.6486  0.2716
 9741TIP3    H250639   2.525   0.162  11.199  0.0339  0.9591 -0.2085
 9742TIP3   OH250640   5.340   5.606  10.334 -0.6494 -0.0462  0.4344
 9742TIP3    H150641   5.393   5.666  10.387 -1.1767  0.0444  0.8572
 9742TIP3    H250642   5.313   5.658  10.259  0.1305 -0.1853  0.0480
 9743TIP3   OH250643   5.068   1.668   2.698  0.0263  0.5791  0.2496
 9743TIP3    H150644   5.092   1.754   2.664 -1.7150  0.8488 -0.3711
 9743TIP3    H250645   5.134   1.649   2.765  1.4200  1.6376 -0.7732
 9744TIP3   OH250646   6.409   0.209  14.208  0.3865 -0.5100 -0.2632
 9744TIP3    H150647   6.404   0.305  14.217  1.5851 -0.4482 -0.2159
 9744TIP3    H250648   6.336   0.187  14.150  2.2577  0.8246 -3.2156
 9745TIP3   OH250649   0.791   1.133   3.762  0.1646 -0.5619 -0.1142
 9745TIP3    H150650   0.733   1.089   3.699  0.0883 -2.3954  1.2055
 9745TIP3    H250651   0.732   1.177   3.822  0.2414  1.3919 -1.4315
 9746TIP3   OH250652   4.534   0.238  13.775  0.4994  0.1033 -0.3794
 9746TIP3    H150653   4.499   0.220  13.687  0.3137 -1.2295 -0.0458
 9746TIP3    H250654   4.578   0.157  13.800 -1.4629 -0.3733  1.6979
 9747TIP3   OH250655   2.987   6.502  12.231  0.1892  0.3317  0.2462
 9747TIP3    H150656   2.894   6.509  12.253  0.4063  0.1613  1.2678
 9747TIP3    H250657   3.020   6.591  12.239 -0.4553  0.8948 -2.8761
 9748TIP3   OH250658   0.098   5.009   3.058  0.1884  0.2177 -0.4160
 9748TIP3    H150659   0.018   4.958   3.070  2.0185 -3.2337 -2.0703
 9748TIP3    H250660   0.137   4.973   2.978  2.0220  3.7321 -1.2139
 9749TIP3   OH250661   4.833   5.509  11.445  0.5114  0.2603 -0.5649
 9749TIP3    H150662   4.860   5.559  11.368 -1.1606  1.9808 -0.0690
 9749TIP3    H250663   4.883   5.548  11.517  0.4991  0.0526 -0.4431
 9750TIP3   OH250664   3.063   3.164   0.102 -0.2492  0.3124 -0.0151
 9750TIP3    H150665   2.977   3.123   0.096 -1.5918  3.0367 -0.2093
 9750TIP3    H250666   3.079   3.172   0.196 -1.0747  1.4678  0.0429
 9751TIP3   OH250667   4.213   4.762   3.048  0.4611 -0.1275 -0.4682
 9751TIP3    H150668   4.164   4.781   2.968 -0.1508 -0.9583 -0.2993
 9751TIP3    H250669   4.236   4.670   3.041  2.7021  0.4496 -0.9103
 9752TIP3   OH250670   5.626   1.236   5.101 -0.6697  0.2227 -0.1568
 9752TIP3    H150671   5.606   1.263   5.191  0.1523 -0.1324  0.1450
 9752TIP3    H250672   5.712   1.194   5.108 -2.1456 -2.9948 -0.4684
 9753TIP3   OH250673   2.949   6.251  12.083  0.1290 -0.4475 -0.5756
 9753TIP3    H150674   2.968   6.168  12.127 -0.7671 -0.2859  0.1381
 9753TIP3    H250675   3.027   6.304  12.097 -0.1212 -0.4299  0.7559
 9754TIP3   OH250676   3.923   6.245   5.097 -0.3308  0.0797  0.0341
 9754TIP3    H150677   3.915   6.339   5.077  0.1818 -0.0172 -0.6451
 9754TIP3    H250678   3.859   6.230   5.166 -2.1115  0.4319 -1.4921
 9755TIP3   OH250679   1.544   1.882   0.508  0.4952  0.1979  0.4554
 9755TIP3    H150680   1.608   1.824   0.548  1.0711 -0.2146 -1.0589
 9755TIP3    H250681   1.538   1.956   0.569  1.7540 -0.1617  1.0333
 9756TIP3   OH250682   0.101   5.142   6.535 -0.1232  0.5583 -0.4697
 9756TIP3    H150683   0.032   5.077   6.546  0.2759  0.2973  0.4864
 9756TIP3    H250684   0.125   5.136   6.442  1.2676 -2.0436 -0.0031
 9757TIP3   OH250685   2.368   4.007  16.087 -0.0198 -0.3094 -0.5595
 9757TIP3    H150686   2.375   3.911  16.089  1.7966 -0.1880  1.2267
 9757TIP3    H250687   2.427   4.034  16.017 -0.0787 -0.4481 -0.6644
 9758TIP3   OH250688   3.467   1.298   3.450 -0.2762 -0.0985  0.3976
 9758TIP3    H150689   3.416   1.251   3.385  1.5490  0.3121 -1.3982
 9758TIP3    H250690   3.416   1.378   3.468  0.0436  0.6604 -1.9088
 9759TIP3   OH250691   1.475   2.737   1.927  0.1240  0.3844 -0.0386
 9759TIP3    H150692   1.516   2.823   1.913  0.6318  0.0101 -0.8755
 9759TIP3    H250693   1.382   2.752   1.910  0.3805  0.5006 -1.4064
 9760TIP3   OH250694   4.209   0.676  11.817  0.4346  0.6293 -0.2059
 9760TIP3    H150695   4.216   0.772  11.820  1.1018  0.5233  2.5838
 9760TIP3    H250696   4.120   0.657  11.847  1.0307  0.2761  1.3305
 9761TIP3   OH250697   2.553   4.001   3.980 -0.2724 -0.6827 -0.2076
 9761TIP3    H150698   2.503   4.060   3.925  2.9550  1.5875 -0.8554
 9761TIP3    H250699   2.573   4.051   4.059  0.7621 -1.5764  0.1280
 9762TIP3   OH250700   1.721   3.564  13.723  0.1250 -0.5139 -0.1280
 9762TIP3    H150701   1.778   3.606  13.787 -1.5631  1.0212  0.4076
 9762TIP3    H250702   1.742   3.607  13.640  2.2178 -2.4105 -0.6304
 9763TIP3   OH250703   3.845   2.779   1.523  0.5335  0.3275 -0.8637
 9763TIP3    H150704   3.912   2.736   1.470  1.7088  0.1771  0.7186
 9763TIP3    H250705   3.764   2.733   1.501  1.2863 -0.8146 -1.2792
 9764TIP3   OH250706   2.260   6.238   6.021 -0.1149  0.4045  0.2101
 9764TIP3    H150707   2.270   6.316   6.074 -0.1073  0.3497  0.2882
 9764TIP3    H250708   2.181   6.196   6.053 -0.9322  1.1474 -0.8034
 9765TIP3   OH250709   1.019   0.538  15.867  0.4449 -0.0713 -0.1707
 9765TIP3    H150710   1.013   0.516  15.774  2.6162  0.2889 -0.4376
 9765TIP3    H250711   1.072   0.467  15.905  1.4684  0.9408  0.3344
 9766TIP3   OH250712   4.747   6.475   0.529  0.5122 -0.1714  0.3515
 9766TIP3    H150713   4.773   6.544   0.590  0.9607 -0.0421  0.0170
 9766TIP3    H250714   4.681   6.516   0.472  0.3966 -0.1726  0.4846
 9767TIP3   OH250715   3.368   0.498   2.052  0.0514 -0.3898  0.1439
 9767TIP3    H150716   3.409   0.578   2.087 -1.1879  0.0308  0.6456
 9767TIP3    H250717   3.281   0.525   2.025 -0.3418 -1.5571  0.2109
 9768TIP3   OH250718   5.680   3.233   2.979  0.0295  0.5695  0.1262
 9768TIP3    H150719   5.585   3.239   2.974 -0.2852 -1.9544  2.3139
 9768TIP3    H250720   5.709   3.233   2.887 -2.1308  0.3758 -0.5822
 9769TIP3   OH250721   0.788   2.944  16.923 -0.5329 -0.4866 -0.0004
 9769TIP3    H150722   0.791   3.025  16.975 -2.2489 -0.6181  0.3367
 9769TIP3    H250723   0.794   2.874  16.988  1.9224 -0.6657 -0.3615
 9770TIP3   OH250724   5.683   3.261  15.321  0.0247 -0.4525 -0.2372
 9770TIP3    H150725   5.735   3.240  15.243 -1.4587 -1.5740 -0.9487
 9770TIP3    H250726   5.613   3.196  15.321 -0.6442  0.2466  1.4193
 9771TIP3   OH250727   5.352   4.510   5.814  0.4488  0.0564 -0.3675
 9771TIP3    H150728   5.269   4.469   5.791  1.1248 -0.4758 -1.9742
 9771TIP3    H250729   5.389   4.455   5.882  0.1072 -0.4930 -0.6258
 9772TIP3   OH250730   5.460   0.668  12.173  0.3035  0.6542  0.4843
 9772TIP3    H150731   5.523   0.645  12.241  2.3550  3.9169 -0.2022
 9772TIP3    H250732   5.511   0.673  12.093 -1.3079  0.9607 -0.5548
 9773TIP3   OH250733   4.635   1.319  14.115  0.5176  0.4311  0.2225
 9773TIP3    H150734   4.580   1.243  14.137 -0.6886  0.8552 -1.2402
 9773TIP3    H250735   4.611   1.385  14.180  3.2226 -1.1266  2.9555
 9774TIP3   OH250736   5.994   4.065   2.670  0.1287 -0.2163 -0.5254
 9774TIP3    H150737   6.038   4.138   2.627  0.2088 -0.2240 -0.4555
 9774TIP3    H250738   5.905   4.097   2.685  0.2492 -0.0229 -0.2179
 9775TIP3   OH250739   4.052   0.952  16.904 -0.1518 -0.5599 -0.0837
 9775TIP3    H150740   3.970   0.907  16.883 -0.7812  0.1040  0.8630
 9775TIP3    H250741   4.121   0.892  16.875 -0.9467 -2.6884  2.2064
 9776TIP3   OH250742   5.586   0.870  14.598  0.4175  0.5107 -0.2564
 9776TIP3    H150743   5.581   0.789  14.648  0.9402  0.0806 -0.8928
 9776TIP3    H250744   5.605   0.842  14.508 -0.1534  1.2927 -0.6270
 9777TIP3   OH250745   6.247   1.373   4.893  0.4047  0.4851 -0.3798
 9777TIP3    H150746   6.325   1.319   4.879  0.4381  0.7419 -1.2457
 9777TIP3    H250747   6.186   1.346   4.824 -1.0492 -1.0708  1.4671
 9778TIP3   OH250748   6.527   1.740   0.629 -0.3562  0.0109 -0.4511
 9778TIP3    H150749   6.442   1.761   0.668 -0.1389 -1.5970  0.9425
 9778TIP3    H250750   6.517   1.651   0.596  0.8451 -0.2580 -0.1127
 9779TIP3   OH250751   0.812   4.263   1.099  0.0461 -0.4768  0.2102
 9779TIP3    H150752   0.891   4.235   1.146  0.3847 -1.0361 -0.6825
 9779TIP3    H250753   0.836   4.259   1.007 -0.7145  0.3406 -0.0278
 9780TIP3   OH250754   0.800   2.906  16.626  0.3928  0.5600  0.7954
 9780TIP3    H150755   0.801   2.933  16.718  2.8295  1.6084  0.5127
 9780TIP3    H250756   0.742   2.970  16.584 -0.1165  0.5522  1.4705
 9781TIP3   OH250757   2.583   5.380   5.001 -0.2246 -0.2454 -0.4876
 9781TIP3    H150758   2.547   5.311   5.057 -2.1128 -0.2288 -1.6205
 9781TIP3    H250759   2.636   5.333   4.937  1.2882 -0.3332  0.8165
 9782TIP3   OH250760   5.519   6.746  16.023 -0.1197  0.7093  0.2112
 9782TIP3    H150761   5.463   6.801  16.079 -0.7320  0.7671 -0.4461
 9782TIP3    H250762   5.460   6.713  15.956  0.7316  1.1218 -0.7536
 9783TIP3   OH250763   6.781   6.721  15.215 -0.2776  0.7329 -0.6563
 9783TIP3    H150764   6.872   6.747  15.230 -0.1128 -0.4034  0.4374
 9783TIP3    H250765   6.746   6.787  15.156  0.8294  2.0226  0.1154
 9784TIP3   OH250766   5.457   4.894   3.606 -0.1514 -0.6429 -0.1812
 9784TIP3    H150767   5.409   4.882   3.525 -0.8895 -0.3564  0.2131
 9784TIP3    H250768   5.546   4.864   3.586 -0.3061 -0.4827 -1.1131
 9785TIP3   OH250769   0.344   4.336  14.739  0.1349  0.4148 -0.2583
 9785TIP3    H150770   0.413   4.323  14.804 -0.3951  2.4969  0.7681
 9785TIP3    H250771   0.378   4.294  14.659  0.9809 -1.7478  1.1999
 9786TIP3   OH250772   6.461   5.837  12.802  0.1421 -0.0361 -0.0692
 9786TIP3    H150773   6.519   5.873  12.869  1.1987 -0.2725 -0.8518
 9786TIP3    H250774   6.385   5.895  12.802 -0.0989 -0.3329  1.6961
 9787TIP3   OH250775   1.166   4.520   2.251  0.0746 -0.0732  0.1133
 9787TIP3    H150776   1.199   4.493   2.166  0.2516 -1.3146  0.5691
 9787TIP3    H250777   1.238   4.570   2.290  0.0712  0.3089 -0.3657
 9788TIP3   OH250778   6.786   3.407  15.728 -0.3205 -0.1962 -0.0807
 9788TIP3    H150779   6.780   3.315  15.752 -1.8584  0.1721  1.0077
 9788TIP3    H250780   6.854   3.443  15.785 -0.0750 -0.5409 -0.1573
 9789TIP3   OH250781   1.350   1.310   4.761  0.2746  0.4830  0.0819
 9789TIP3    H150782   1.410   1.334   4.831 -0.2489  1.2983  0.2562
 9789TIP3    H250783   1.404   1.262   4.699  0.6477 -0.6509  1.2605
 9790TIP3   OH250784   0.711   3.989  15.204 -0.0861 -0.5672 -0.1835
 9790TIP3    H150785   0.670   4.041  15.135 -1.7421  0.9172  1.8752
 9790TIP3    H250786   0.738   3.908  15.160 -1.1185  0.3431 -2.5588
 9791TIP3   OH250787   1.621   0.136  13.957 -0.0991 -0.4446  0.1339
 9791TIP3    H150788   1.686   0.205  13.946 -1.3151  0.4707 -1.5578
 9791TIP3    H250789   1.614   0.125  14.052  1.4623  0.4454  0.3747
 9792TIP3   OH250790   2.288   1.987   2.465  0.1184 -0.0757 -0.3172
 9792TIP3    H150791   2.309   2.002   2.557  0.8850 -1.5761 -0.2281
 9792TIP3    H250792   2.259   1.896   2.462  0.4598 -0.1431 -1.6271
 9793TIP3   OH250793   1.439   6.704  11.204 -0.5132  0.7006 -0.6799
 9793TIP3    H150794   1.350   6.707  11.170 -0.3546  0.7315 -1.0868
 9793TIP3    H250795   1.489   6.657  11.137 -0.4234 -0.1627 -0.0188
 9794TIP3   OH250796   6.773   4.331  16.779 -0.2936 -0.5121  0.4644
 9794TIP3    H150797   6.724   4.408  16.751  0.5700 -0.1875 -0.1728
 9794TIP3    H250798   6.738   4.311  16.866 -1.7495 -0.4643 -0.0970
 9795TIP3   OH250799   6.094   5.984   2.031 -0.5593  0.3588 -0.0876
 9795TIP3    H150800   6.104   6.064   2.082 -0.5343  1.0296 -1.1356
 9795TIP3    H250801   6.000   5.979   2.013 -0.1508  1.8824 -2.7797
 9796TIP3   OH250802   5.592   6.202  15.428 -0.1473 -0.1682  0.5187
 9796TIP3    H150803   5.676   6.195  15.474 -1.0495  0.6231  2.2942
 9796TIP3    H250804   5.600   6.282  15.376  1.3083 -1.6634 -1.6788
 9797TIP3   OH250805   0.154   5.260  11.235  0.1086  0.6577  0.2146
 9797TIP3    H150806   0.228   5.281  11.292  0.9993 -1.3974 -0.1242
 9797TIP3    H250807   0.138   5.340  11.186  1.1251  1.5940  1.3796
 9798TIP3   OH250808   1.433   4.067  13.448 -0.0529  0.4397 -0.1858
 9798TIP3    H150809   1.373   4.133  13.414 -0.8531  0.2738  0.8675
 9798TIP3    H250810   1.412   3.988  13.399 -0.9970  0.2757  0.4745
 9799TIP3   OH250811   2.941   1.928   1.988  0.2497  0.0804 -0.2660
 9799TIP3    H150812   2.856   1.885   1.986  0.2702  0.0152 -4.4558
 9799TIP3    H250813   2.928   2.010   1.941  2.8405 -0.7856 -2.6658
 9800TIP3   OH250814   5.469   2.281   1.984 -0.1107 -0.0281 -0.2150
 9800TIP3    H150815   5.500   2.308   1.898 -1.6203  1.0985 -0.4364
 9800TIP3    H250816   5.383   2.324   1.993 -0.8025 -1.6357  1.0734
 9801TIP3   OH250817   1.723   4.599   3.623 -0.2423 -0.0116 -0.0986
 9801TIP3    H150818   1.811   4.570   3.647  0.1062 -0.2112 -1.5632
 9801TIP3    H250819   1.738   4.679   3.571 -0.8494 -0.6598 -1.2875
 9802TIP3   OH250820   3.823   1.714   1.624 -0.2542  0.0685 -0.3619
 9802TIP3    H150821   3.774   1.651   1.570 -1.2087 -0.3134  0.9275
 9802TIP3    H250822   3.912   1.679   1.627 -0.3014 -0.1402 -1.3310
 9803TIP3   OH250823   3.297   1.828  13.349 -0.5411  0.2012 -0.1530
 9803TIP3    H150824   3.266   1.902  13.297 -3.2704  1.3124  2.8833
 9803TIP3    H250825   3.357   1.868  13.413 -0.7853 -0.4408  0.4798
 9804TIP3   OH250826   4.155   6.640  13.524 -0.0692 -0.1991 -0.3205
 9804TIP3    H150827   4.159   6.547  13.547 -1.5690  0.0020  0.8490
 9804TIP3    H250828   4.131   6.640  13.431 -0.5461 -0.9982 -0.2072
 9805TIP3   OH250829   6.025   2.134   2.405  0.5241  0.4877  0.3283
 9805TIP3    H150830   6.012   2.222   2.370  1.4137  0.7646  0.6604
 9805TIP3    H250831   5.978   2.077   2.345 -2.7714  1.4708  1.8651
 9806TIP3   OH250832   5.329   4.659  13.147 -0.6979 -0.0854 -0.3043
 9806TIP3    H150833   5.259   4.690  13.205 -1.4284  0.3019 -1.3838
 9806TIP3    H250834   5.285   4.637  13.065  0.7471  2.6124 -1.8860
 9807TIP3   OH250835   6.355   1.245  16.004  0.2981 -0.1389  1.0027
 9807TIP3    H150836   6.402   1.327  15.991 -0.2105 -0.2961 -2.2373
 9807TIP3    H250837   6.422   1.183  16.033  1.4671  0.4440 -0.4106
 9808TIP3   OH250838   5.973   2.953   6.193  0.1308 -0.7056  0.7049
 9808TIP3    H150839   5.897   2.987   6.240  0.0377 -1.1753  0.8960
 9808TIP3    H250840   6.038   3.023   6.198 -0.9765  0.4831 -1.1265
 9809TIP3   OH250841   1.335   6.526  12.399 -0.1007  0.1262 -0.3501
 9809TIP3    H150842   1.339   6.615  12.363 -1.0411  1.2202  2.1261
 9809TIP3    H250843   1.291   6.537  12.483  2.7608 -2.2213  1.5335
 9810TIP3   OH250844   4.784   0.491   4.049  0.2542  1.1609 -0.6494
 9810TIP3    H150845   4.700   0.497   4.004 -1.0971 -0.1861  1.5588
 9810TIP3    H250846   4.793   0.575   4.095 -0.7241  0.6919  0.4412
 9811TIP3   OH250847   1.477   1.706  13.412  0.1093  0.1598  0.9350
 9811TIP3    H150848   1.383   1.694  13.426 -0.0907 -1.6956 -1.5797
 9811TIP3    H250849   1.483   1.768  13.339  0.6831 -2.5896 -1.4629
 9812TIP3   OH250850   5.165   6.514  10.819 -0.1113  0.7718 -0.2747
 9812TIP3    H150851   5.164   6.575  10.893 -0.4825  0.8758 -0.3677
 9812TIP3    H250852   5.122   6.561  10.748  2.8417  1.8284 -1.4662
 9813TIP3   OH250853   1.879   6.320  11.261 -1.1658  0.0618  0.0074
 9813TIP3    H150854   1.831   6.366  11.193  1.7536  0.6789 -1.7272
 9813TIP3    H250855   1.857   6.228  11.249 -0.6565  0.1607 -1.8032
 9814TIP3   OH250856   3.333   2.865  17.079 -0.4266  0.0259 -0.2438
 9814TIP3    H150857   3.270   2.909  17.022  0.1245  0.4713 -0.5154
 9814TIP3    H250858   3.302   2.883  17.168 -2.0893 -1.8463 -0.3968
 9815TIP3   OH250859   1.844   5.141   2.509 -0.2339 -0.2738  0.0288
 9815TIP3    H150860   1.871   5.134   2.601  0.9698 -0.5683 -0.3472
 9815TIP3    H250861   1.767   5.199   2.512  0.1073  0.1456  1.1561
 9816TIP3   OH250862   0.018   4.896  10.859 -0.5574 -0.2903  0.6619
 9816TIP3    H150863   0.042   4.971  10.914  0.8242  0.1151 -0.4654
 9816TIP3    H250864   0.102   4.864  10.826 -1.3142 -1.0882 -0.4878
 9817TIP3   OH250865   2.308   2.225  11.586 -0.1218  0.3603 -0.1298
 9817TIP3    H150866   2.341   2.232  11.496 -1.1917 -1.1418 -0.6602
 9817TIP3    H250867   2.225   2.274  11.585 -0.2689  0.1150 -0.0372
 9818TIP3   OH250868   4.991   2.959   5.511  0.8707  0.2142 -0.2346
 9818TIP3    H150869   4.997   2.896   5.583  1.7808  1.6023  0.9262
 9818TIP3    H250870   5.005   2.907   5.432  1.5315 -1.0569  0.7060
 9819TIP3   OH250871   3.876   0.342  14.465 -0.3464 -0.5692  0.1857
 9819TIP3    H150872   3.797   0.377  14.507 -0.3814 -1.1483  0.6188
 9819TIP3    H250873   3.894   0.261  14.513  0.3069 -0.6246 -0.1465
 9820TIP3   OH250874   6.111   0.988  13.751  0.2254 -0.1662  0.2677
 9820TIP3    H150875   6.033   0.933  13.748 -0.4003  0.7770 -1.3198
 9820TIP3    H250876   6.087   1.060  13.810  0.4913 -0.7558  1.0999
 9821TIP3   OH250877   1.680   4.156   3.595  0.0250 -0.6422 -0.3569
 9821TIP3    H150878   1.696   4.065   3.620 -0.0245 -0.6399 -0.3154
 9821TIP3    H250879   1.733   4.169   3.517  0.5570 -0.5066  0.0253
 9822TIP3   OH250880   0.908   1.614  17.130  0.5103  0.0430  0.5463
 9822TIP3    H150881   0.865   1.614  17.044  0.6016  0.2386  0.5011
 9822TIP3    H250882   0.993   1.574  17.114 -0.1764 -1.6025  0.8979
 9823TIP3   OH250883   3.664   4.664   1.039 -0.1193  0.0180  0.3861
 9823TIP3    H150884   3.649   4.630   0.951 -0.6417 -0.9768  0.8535
 9823TIP3    H250885   3.691   4.588   1.090 -1.0159  0.3381  1.3675
 9824TIP3   OH250886   0.233   3.792   5.192 -0.3982  0.3600  0.0741
 9824TIP3    H150887   0.199   3.799   5.102  1.0487 -1.4946 -0.6365
 9824TIP3    H250888   0.158   3.763   5.244 -0.1193 -3.2171 -1.3960
 9825TIP3   OH250889   6.090   2.741   4.233 -0.0779 -0.5099 -0.0841
 9825TIP3    H150890   6.069   2.770   4.322 -0.4271 -1.8203  0.2727
 9825TIP3    H250891   6.091   2.822   4.181  0.2367  0.2799  1.1245
 9826TIP3   OH250892   2.141   5.677   2.717 -0.5422 -0.0691  0.0121
 9826TIP3    H150893   2.111   5.768   2.715  1.2257  0.5845  2.0661
 9826TIP3    H250894   2.143   5.654   2.809 -1.3521 -2.3543 -0.5013
 9827TIP3   OH250895   0.299   1.321  16.533 -0.1420 -0.0373 -0.3208
 9827TIP3    H150896   0.218   1.285  16.497 -1.3474  2.6777 -0.4023
 9827TIP3    H250897   0.368   1.279  16.481 -1.5746 -0.9123 -1.5697
 9828TIP3   OH250898   5.489   6.613   6.137 -0.4621 -0.7779 -0.6548
 9828TIP3    H150899   5.553   6.542   6.125  1.7756  1.2117 -0.7855
 9828TIP3    H250900   5.502   6.641   6.227 -0.4991  0.2465 -0.9681
 9829TIP3   OH250901   5.148   6.062  10.994 -0.2773 -0.2489 -0.3719
 9829TIP3    H150902   5.074   6.001  10.986 -1.7861  1.2736  1.5563
 9829TIP3    H250903   5.132   6.128  10.927 -0.2541 -0.3427 -0.4706
 9830TIP3   OH250904   2.439   5.084  11.771 -0.1591  0.0198 -0.6715
 9830TIP3    H150905   2.442   5.111  11.679  0.2488  1.0306 -0.3603
 9830TIP3    H250906   2.347   5.063  11.786 -0.8721  3.1693 -0.3734
 9831TIP3   OH250907   5.593   6.084   4.520 -0.2667 -0.0873  0.4911
 9831TIP3    H150908   5.542   6.007   4.494 -0.9097  0.7372 -0.7324
 9831TIP3    H250909   5.648   6.102   4.444  0.8020 -0.0911  1.2615
 9832TIP3   OH250910   0.098   5.149  10.593 -0.7366  0.5373  0.4124
 9832TIP3    H150911   0.017   5.163  10.643 -1.2491 -1.1868  0.1003
 9832TIP3    H250912   0.134   5.237  10.580 -2.5038  1.3132  0.6435
 9833TIP3   OH250913   3.748   4.481  15.726  0.4855  0.6198  0.2627
 9833TIP3    H150914   3.676   4.523  15.680 -0.4780 -0.0638  1.1197
 9833TIP3    H250915   3.772   4.542  15.796  1.3320  1.2409 -0.5616
 9834TIP3   OH250916   0.754   2.376   0.757  0.4214  0.2478  0.2966
 9834TIP3    H150917   0.813   2.300   0.756 -0.6187 -0.5627  0.2113
 9834TIP3    H250918   0.708   2.370   0.840  0.6616  1.0507  0.4911
 9835TIP3   OH250919   3.981   4.016   4.466  0.3734  0.1859 -0.2308
 9835TIP3    H150920   3.942   4.102   4.483  2.7978  0.9508  1.9125
 9835TIP3    H250921   4.018   4.023   4.378  2.3715  2.1195  0.7085
 9836TIP3   OH250922   3.611   5.088   5.890  0.3333 -0.4140  0.2344
 9836TIP3    H150923   3.572   5.000   5.894 -0.6646  0.0137  0.2890
 9836TIP3    H250924   3.611   5.110   5.797 -0.0917 -0.1819  0.2889
 9837TIP3   OH250925   5.703   4.718  14.273  0.3050  0.2762  0.0984
 9837TIP3    H150926   5.660   4.789  14.319 -0.4816 -1.0846  1.5271
 9837TIP3    H250927   5.768   4.684  14.336 -0.2829 -1.1309 -0.0263
 9838TIP3   OH250928   1.982   6.164   4.278 -0.2058 -0.5446 -0.1637
 9838TIP3    H150929   1.961   6.210   4.359  1.9135 -0.9344  0.6354
 9838TIP3    H250930   2.051   6.102   4.302  0.4273 -0.6932 -2.2426
 9839TIP3   OH250931   0.273   5.430   3.965  0.4716  0.1876 -0.0447
 9839TIP3    H150932   0.256   5.521   3.941 -0.2455  0.1046  0.1476
 9839TIP3    H250933   0.187   5.391   3.976  0.7788 -0.4296  0.2134
 9840TIP3   OH250934   0.732   4.982   1.460  0.0209  0.2516  0.8380
 9840TIP3    H150935   0.764   4.957   1.373  1.2684 -0.2937  1.4396
 9840TIP3    H250936   0.782   4.927   1.520 -1.3063  0.1495  1.8676
 9841TIP3   OH250937   2.224   3.426   0.771 -0.9626  0.0846 -0.1985
 9841TIP3    H150938   2.272   3.445   0.691 -1.0265  0.5675 -0.1225
 9841TIP3    H250939   2.152   3.490   0.772  0.2299  1.4365  1.2818
 9842TIP3   OH250940   0.348   0.716   3.410  0.2448  0.3010  0.8659
 9842TIP3    H150941   0.371   0.792   3.357 -0.2158 -0.6408 -0.7043
 9842TIP3    H250942   0.276   0.674   3.363  2.1151 -2.4857  0.4061
 9843TIP3   OH250943   3.239   5.571  16.433  0.3385 -0.2248 -0.0400
 9843TIP3    H150944   3.254   5.617  16.516  1.9094  0.1280 -0.5018
 9843TIP3    H250945   3.147   5.587  16.413  0.5187  1.5960  0.4948
 9844TIP3   OH250946   0.932   6.068  15.141  0.3959  0.0332 -0.0571
 9844TIP3    H150947   0.875   6.144  15.124  1.6906  1.2575  1.0346
 9844TIP3    H250948   0.922   6.051  15.234  0.6461 -0.7162 -0.1662
 9845TIP3   OH250949   1.776   3.232   1.731  0.0483  0.3527  0.1288
 9845TIP3    H150950   1.834   3.306   1.747  1.3839  0.2923 -4.0587
 9845TIP3    H250951   1.701   3.270   1.686 -0.3940 -0.4996  0.1445
 9846TIP3   OH250952   3.646   0.098  12.587 -0.4156 -0.3389  0.7411
 9846TIP3    H150953   3.616   0.126  12.501  1.0615 -1.1346 -0.0559
 9846TIP3    H250954   3.740   0.118  12.587 -0.4939  0.1328  2.3565
 9847TIP3   OH250955   4.486   0.116   2.460 -0.3716 -0.0560 -0.0133
 9847TIP3    H150956   4.484   0.027   2.425  0.4280 -0.0864 -0.0029
 9847TIP3    H250957   4.563   0.116   2.518  0.8626  1.2328 -1.6180
 9848TIP3   OH250958   4.429   3.911   2.314  0.1495 -0.0404 -0.1475
 9848TIP3    H150959   4.382   3.940   2.392 -0.5482  1.2977 -1.0420
 9848TIP3    H250960   4.521   3.913   2.339 -0.0240  1.0806  0.4273
 9849TIP3   OH250961   6.001   0.553   1.407 -0.7758  0.2985 -0.2142
 9849TIP3    H150962   6.009   0.551   1.312  0.7564  0.4302 -0.1056
 9849TIP3    H250963   6.006   0.646   1.429  0.5570  0.1513  0.1170
 9850TIP3   OH250964   4.385   3.963  17.225 -0.2450  0.4527  0.1190
 9850TIP3    H150965   4.292   3.942  17.223 -0.2584  0.3444  1.2718
 9850TIP3    H250966   4.408   3.981  17.134 -0.7920 -2.1279 -0.5673
 9851TIP3   OH250967   6.590   3.153   3.297  0.4226 -0.5802 -0.3477
 9851TIP3    H150968   6.525   3.128   3.231  0.1768 -0.6075 -0.0954
 9851TIP3    H250969   6.652   3.209   3.249  1.4874 -2.3946 -1.1331
 9852TIP3   OH250970   2.266   1.671  11.625 -0.1197  0.1050 -0.5116
 9852TIP3    H150971   2.250   1.765  11.616  1.3087  0.3791 -0.2826
 9852TIP3    H250972   2.334   1.652  11.561 -1.5121 -1.0870 -1.6598
 9853TIP3   OH250973   2.382   3.851   2.560  0.2811  0.0172  0.4364
 9853TIP3    H150974   2.442   3.924   2.548  1.1181 -0.4447  1.7111
 9853TIP3    H250975   2.428   3.791   2.619 -0.6126 -1.2848 -0.1606
 9854TIP3   OH250976   4.066   4.735   1.823  0.4304 -0.1746  0.0102
 9854TIP3    H150977   3.984   4.687   1.836 -0.1202  1.3950  2.5531
 9854TIP3    H250978   4.129   4.689   1.879  0.4066  0.7780  0.8299
 9855TIP3   OH250979   5.365   4.045   3.447 -0.2291 -0.4168  0.0756
 9855TIP3    H150980   5.373   4.140   3.436  2.0739 -0.7764 -1.7595
 9855TIP3    H250981   5.400   4.029   3.535 -1.5944  0.5376  0.8056
 9856TIP3   OH250982   1.258   6.666  12.920  0.2391  0.3938 -0.1388
 9856TIP3    H150983   1.274   6.622  12.836  1.5743  0.4165  0.0941
 9856TIP3    H250984   1.187   6.728  12.901  0.1448  0.0006 -1.1126
 9857TIP3   OH250985   3.146   1.859   3.118  0.3556 -0.2159  0.0257
 9857TIP3    H150986   3.217   1.879   3.179 -0.1710  0.7551  0.3182
 9857TIP3    H250987   3.070   1.905   3.153 -0.1870 -0.4529 -0.8296
 9858TIP3   OH250988   0.209   1.878  15.024 -0.3147 -0.3666  0.0440
 9858TIP3    H150989   0.264   1.926  14.963  1.7911  1.5512  3.3075
 9858TIP3    H250990   0.172   1.945  15.082 -2.1552 -2.1078  0.9827
 9859TIP3   OH250991   0.459   5.484   4.872  0.1713  0.1618  0.1496
 9859TIP3    H150992   0.410   5.430   4.935  1.8035 -3.2222 -1.3370
 9859TIP3    H250993   0.528   5.426   4.841  1.2823  2.8103 -2.4417
 9860TIP3   OH250994   0.589   4.114   1.130 -0.6084 -0.3108 -0.0711
 9860TIP3    H150995   0.654   4.184   1.123 -0.2561 -0.6823 -0.5337
 9860TIP3    H250996   0.635   4.035   1.102 -1.2788 -0.5664 -0.4643
 9861TIP3   OH250997   5.407   0.223   3.551  0.0655  0.3115  0.5484
 9861TIP3    H150998   5.501   0.209   3.558  0.1225 -0.1220 -0.9693
 9861TIP3    H250999   5.385   0.198   3.462 -1.3778  1.1200  0.6553
 9862TIP3   OH251000   4.073   3.373  12.278 -0.1782  0.5977  0.1569
 9862TIP3    H151001   4.065   3.356  12.184 -2.5395 -0.2941  0.4833
 9862TIP3    H251002   4.048   3.291  12.319  0.9752  0.9446  1.5821
 9863TIP3   OH251003   2.591   4.878   1.626 -0.2330 -0.2440 -0.1621
 9863TIP3    H151004   2.520   4.893   1.689  0.3495 -2.9252  1.2176
 9863TIP3    H251005   2.563   4.802   1.575 -0.6780  1.8718 -3.1978
 9864TIP3   OH251006   1.903   3.849   0.606  0.0862  0.2083  0.3810
 9864TIP3    H151007   1.894   3.873   0.514  0.0805  0.9499  0.5700
 9864TIP3    H251008   1.902   3.753   0.607  0.4157  0.1969 -0.4226
 9865TIP3   OH251009   3.974   5.691  12.084 -0.4173  0.7140  0.1667
 9865TIP3    H151010   3.894   5.663  12.039 -0.0773 -0.7638  0.4818
 9865TIP3    H251011   3.949   5.696  12.176  0.2834 -1.3594  0.4846
 9866TIP3   OH251012   1.808   6.277   3.301 -0.2771  0.0279  0.5622
 9866TIP3    H151013   1.785   6.209   3.238 -2.0238  0.5039  0.6619
 9866TIP3    H251014   1.770   6.247   3.384  1.9801 -0.5820  1.4045
 9867TIP3   OH251015   5.571   1.569  15.347 -0.1632 -0.0699  0.5551
 9867TIP3    H151016   5.612   1.501  15.399 -1.2600 -0.7988  0.4883
 9867TIP3    H251017   5.481   1.573  15.380  0.0577  1.7914  1.0079
 9868TIP3   OH251018   0.074   2.656   1.012 -0.7841 -0.4559 -0.4240
 9868TIP3    H151019   0.041   2.628   0.927  0.2516 -1.3544 -0.5389
 9868TIP3    H251020   0.151   2.601   1.028  0.8170  1.7580 -0.2781
 9869TIP3   OH251021   4.330   0.197  11.495  0.0648 -0.3685  0.3175
 9869TIP3    H151022   4.390   0.136  11.452 -0.3590  0.0541 -0.8937
 9869TIP3    H251023   4.373   0.282  11.489 -0.5018 -0.1203 -0.2472
 9870TIP3   OH251024   0.832   1.884   4.236  0.3246 -0.6454  0.0062
 9870TIP3    H151025   0.830   1.802   4.186 -1.6379  0.5623 -1.9604
 9870TIP3    H251026   0.925   1.899   4.253  0.8318 -2.3740 -1.1226
 9871TIP3   OH251027   1.532   2.537  10.154  0.1234 -0.1279  0.5792
 9871TIP3    H151028   1.607   2.519  10.212 -0.6548 -1.0385  1.3164
 9871TIP3    H251029   1.491   2.452  10.140  1.4089 -0.2415 -2.9191
 9872TIP3   OH251030   2.268   3.172  12.676 -0.1607 -0.1404 -0.2082
 9872TIP3    H151031   2.236   3.262  12.688  1.0393  0.1677  0.8285
 9872TIP3    H251032   2.306   3.149  12.761 -0.4384 -1.6364 -0.4740
 9873TIP3   OH251033   6.308   1.803   3.338 -0.6773  0.3547 -0.1486
 9873TIP3    H151034   6.328   1.712   3.357  1.1990  0.6219 -0.8060
 9873TIP3    H251035   6.327   1.850   3.419 -0.9204  0.2722 -0.0438
 9874TIP3   OH251036   5.412   5.407   3.217 -0.8469 -0.4040 -0.3975
 9874TIP3    H151037   5.458   5.433   3.297 -0.6005 -1.6737 -0.1287
 9874TIP3    H251038   5.345   5.475   3.206 -0.4477  0.1525  0.5027
 9875TIP3   OH251039   2.963   6.321  11.458  0.8435 -0.3514 -0.5425
 9875TIP3    H151040   2.971   6.399  11.512 -1.1503 -1.7455  1.8767
 9875TIP3    H251041   2.880   6.282  11.484  0.6189 -1.9685 -3.4777
 9876TIP3   OH251042   0.930   3.653   6.536  0.1221  0.1218  0.1635
 9876TIP3    H151043   1.002   3.617   6.589 -0.1755  1.3987  1.4712
 9876TIP3    H251044   0.920   3.743   6.568 -1.2332  0.3491 -0.8769
 9877TIP3   OH251045   1.587   4.016  16.308 -0.1002  0.2487  0.2188
 9877TIP3    H151046   1.523   4.069  16.262 -1.2179 -0.9437  0.3683
 9877TIP3    H251047   1.585   4.048  16.399 -1.4225 -0.6367  0.5111
 9878TIP3   OH251048   2.545   1.719  16.949 -0.4389 -0.2887  0.1679
 9878TIP3    H151049   2.514   1.800  16.992 -0.3123 -1.2031  2.0322
 9878TIP3    H251050   2.481   1.704  16.879 -0.6372  1.2533 -0.0166
 9879TIP3   OH251051   5.632   2.765   2.439 -0.3858 -0.1337  0.3514
 9879TIP3    H151052   5.691   2.831   2.403  1.5629 -0.9308  2.0277
 9879TIP3    H251053   5.638   2.692   2.377  0.0616 -0.0522  0.2967
 9880TIP3   OH251054   2.126   1.723  15.904  0.3998 -0.2399 -0.4805
 9880TIP3    H151055   2.049   1.717  15.961  0.5700 -0.2966 -0.2552
 9880TIP3    H251056   2.179   1.647  15.927  0.4359 -0.3031 -0.7676
 9881TIP3   OH251057   3.303   0.714  11.563  0.1103  0.1928  0.6417
 9881TIP3    H151058   3.301   0.743  11.472 -1.2216  0.2581  0.6879
 9881TIP3    H251059   3.267   0.625  11.561  0.7549 -0.0792  1.0032
 9882TIP3   OH251060   5.990   1.054  11.191 -0.2953  0.4671 -0.3675
 9882TIP3    H151061   6.082   1.040  11.213 -0.3059  1.4709  0.4277
 9882TIP3    H251062   5.991   1.090  11.103  0.3568  3.4730  0.7732
 9883TIP3   OH251063   2.814   5.008   0.420  0.1087  0.1614  0.2237
 9883TIP3    H151064   2.905   5.024   0.444  0.4522 -1.2335 -0.1152
 9883TIP3    H251065   2.817   4.984   0.327 -0.6999  0.9064 -0.0092
 9884TIP3   OH251066   3.094   1.590  14.253  0.1028 -0.2229  0.0301
 9884TIP3    H151067   3.124   1.586  14.344  1.6796 -0.1648 -0.4660
 9884TIP3    H251068   3.127   1.673  14.221 -2.7624  0.9939  0.1667
 9885TIP3   OH251069   6.594   6.762   3.264  0.1027 -0.7515  0.3342
 9885TIP3    H151070   6.610   6.852   3.236 -2.2300  0.0166  1.3681
 9885TIP3    H251071   6.674   6.737   3.311 -0.0738  1.5482  1.9198
 9886TIP3   OH251072   3.949   1.704  12.984 -0.2161 -0.1997  0.0193
 9886TIP3    H151073   3.921   1.617  12.955 -1.1753 -0.6399  2.2378
 9886TIP3    H251074   4.033   1.689  13.028 -0.7386 -0.1181  1.0536
 9887TIP3   OH251075   2.092   6.220  14.690 -0.3797  0.3203 -0.3682
 9887TIP3    H151076   2.049   6.297  14.653 -1.3476  0.1190  0.3333
 9887TIP3    H251077   2.182   6.249  14.707 -0.9264  1.5138  0.5571
 9888TIP3   OH251078   2.935   3.256   4.684  0.3410 -0.2059  0.7791
 9888TIP3    H151079   3.008   3.308   4.720 -1.4436  0.0797  4.1207
 9888TIP3    H251080   2.942   3.171   4.728 -1.2001 -0.2474  0.9560
 9889TIP3   OH251081   4.263   1.419  15.132 -0.6860  0.5197  0.2364
 9889TIP3    H151082   4.220   1.334  15.128 -0.7671  0.5065  1.3705
 9889TIP3    H251083   4.229   1.460  15.211 -0.5103  1.5404 -0.2053
 9890TIP3   OH251084   6.665   4.625   1.289  0.0318  0.5512 -0.0928
 9890TIP3    H151085   6.745   4.602   1.337 -0.7614  0.5245  1.2396
 9890TIP3    H251086   6.611   4.671   1.353 -2.3826 -2.2465 -0.0281
 9891TIP3   OH251087   6.019   2.035  16.088 -0.1304 -0.3126 -0.5528
 9891TIP3    H151088   6.114   2.026  16.100 -0.2587  1.1210  1.7832
 9891TIP3    H251089   5.988   1.945  16.075  1.5181 -0.8091 -1.1408
 9892TIP3   OH251090   3.255   6.559  15.338 -0.0315 -0.5689  0.4267
 9892TIP3    H151091   3.253   6.469  15.306 -0.2294 -0.8231  1.1495
 9892TIP3    H251092   3.163   6.582  15.350 -0.0233  0.0577 -0.6670
 9893TIP3   OH251093   1.115   4.323  16.658 -0.6891 -0.0247  0.3425
 9893TIP3    H151094   1.034   4.365  16.684 -0.4079 -0.4808  1.9744
 9893TIP3    H251095   1.174   4.334  16.733  0.6274 -0.0314 -0.6700
 9894TIP3   OH251096   0.603   5.863   0.486  0.4183 -0.0546 -0.3881
 9894TIP3    H151097   0.563   5.949   0.475  0.8186  0.1144 -0.5478
 9894TIP3    H251098   0.591   5.842   0.578 -0.6485 -0.3181 -0.5751
 9895TIP3   OH251099   2.237   0.547  14.634  0.2503  0.1180 -0.5834
 9895TIP3    H151100   2.223   0.543  14.729  0.3162  0.3662 -0.5620
 9895TIP3    H251101   2.234   0.456  14.605 -2.2030  0.1998 -0.6958
 9896TIP3   OH251102   4.307   4.743   3.774 -0.0276  0.1375  0.0659
 9896TIP3    H151103   4.394   4.704   3.772  0.5956  1.1855  3.4544
 9896TIP3    H251104   4.318   4.829   3.732  0.2555 -0.2946 -0.7474
 9897TIP3   OH251105   4.324   3.646  15.744  0.0685 -0.0166 -0.7388
 9897TIP3    H151106   4.263   3.597  15.689 -1.6286  0.8942  0.2814
 9897TIP3    H251107   4.300   3.738  15.730  0.0568  0.2601  0.9912
 9898TIP3   OH251108   3.819   3.072  16.722 -0.4378 -0.4709  0.0504
 9898TIP3    H151109   3.904   3.040  16.754 -0.1815  0.1075 -0.0498
 9898TIP3    H251110   3.781   2.997  16.677  0.8273 -0.1954 -1.5122
 9899TIP3   OH251111   0.467   3.290  12.832 -0.1260 -0.0602  0.3411
 9899TIP3    H151112   0.423   3.373  12.814 -1.7470 -0.6276  1.5465
 9899TIP3    H251113   0.496   3.297  12.923  3.6635  0.8699 -0.8224
 9900TIP3   OH251114   2.235   2.859   1.891 -1.1668  0.0260  0.1504
 9900TIP3    H151115   2.244   2.942   1.938 -1.2365  0.6889 -1.0015
 9900TIP3    H251116   2.306   2.860   1.827 -2.1891 -0.0557 -0.9910
 9901TIP3   OH251117   6.645   5.049   5.288 -0.0541  0.0210 -0.3949
 9901TIP3    H151118   6.626   5.130   5.336  1.2650  0.3146 -0.3565
 9901TIP3    H251119   6.683   4.991   5.354  1.0618  0.1610 -0.8997
 9902TIP3   OH251120   1.022   3.387  12.275 -0.2310 -0.6559 -0.4244
 9902TIP3    H151121   1.047   3.474  12.307  0.9937 -0.7191 -1.1458
 9902TIP3    H251122   1.067   3.379  12.191 -0.5744 -1.8698 -0.5033
 9903TIP3   OH251123   0.155   6.256  13.963 -0.6690  0.4731  0.0083
 9903TIP3    H151124   0.131   6.342  13.928 -0.8494 -0.0228 -1.1171
 9903TIP3    H251125   0.251   6.258  13.969 -0.8078  1.7795  2.7382
 9904TIP3   OH251126   5.893   5.706   5.427  0.5264  0.0314  0.0450
 9904TIP3    H151127   5.962   5.695   5.362  1.2563 -2.3226  1.1528
 9904TIP3    H251128   5.823   5.752   5.381  1.9667  0.4986 -1.7037
 9905TIP3   OH251129   2.048   6.190  14.407  0.2632  0.9106 -0.2088
 9905TIP3    H151130   2.005   6.198  14.492 -1.0880 -0.3569 -0.7441
 9905TIP3    H251131   1.977   6.195  14.343  0.5237 -3.4694 -1.0344
 9906TIP3   OH251132   0.932   6.632   1.045 -0.1972 -0.5924  0.1248
 9906TIP3    H151133   0.930   6.556   1.103 -1.0650  0.0755  1.0089
 9906TIP3    H251134   0.840   6.661   1.040 -0.0200 -0.1690 -0.9578
 9907TIP3   OH251135   3.281   2.363   1.716 -0.5274  0.0057 -0.7358
 9907TIP3    H151136   3.269   2.352   1.811  1.2036  1.3938 -0.3136
 9907TIP3    H251137   3.231   2.442   1.695  2.1726  1.9663 -0.1935
 9908TIP3   OH251138   2.188   2.814  13.973  0.6005 -0.1387 -0.4336
 9908TIP3    H151139   2.125   2.779  13.911  0.0999 -0.7468  0.3968
 9908TIP3    H251140   2.221   2.736  14.019  0.4102  0.3681  0.5698
 9909TIP3   OH251141   6.134   1.581  13.127 -0.4977  0.1090 -0.5110
 9909TIP3    H151142   6.133   1.676  13.115  1.6129  0.3254  0.8208
 9909TIP3    H251143   6.084   1.566  13.207  1.8068  0.3944  1.0053
 9910TIP3   OH251144   3.174   3.132  12.971 -0.2977  0.0792 -0.3482
 9910TIP3    H151145   3.232   3.198  12.933 -0.4346  0.0068 -0.6793
 9910TIP3    H251146   3.214   3.111  13.056 -0.3440  0.7076 -0.1702
 9911TIP3   OH251147   1.287   6.124  17.023 -0.8775 -0.5728 -0.4788
 9911TIP3    H151148   1.350   6.109  16.952 -1.0181 -1.1291 -0.4855
 9911TIP3    H251149   1.202   6.126  16.980 -0.7757  1.2585 -0.6153
 9912TIP3   OH251150   6.221   0.897   4.142  0.2226 -0.0843 -0.6735
 9912TIP3    H151151   6.224   0.808   4.107 -0.5622 -1.0846  1.7419
 9912TIP3    H251152   6.300   0.904   4.196 -0.1336  0.4360 -0.2201
 9913TIP3   OH251153   4.917   1.077  15.418  0.3617  0.1708 -0.0560
 9913TIP3    H151154   4.874   1.112  15.341  2.7741  0.2740 -1.4076
 9913TIP3    H251155   5.001   1.045  15.386  1.6029  0.6454  2.5945
 9914TIP3   OH251156   1.569   1.687   0.806  0.1020  0.3527  0.1048
 9914TIP3    H151157   1.565   1.593   0.791  0.1735  0.1778  1.2019
 9914TIP3    H251158   1.643   1.716   0.753 -1.1752  0.1237 -1.8932
 9915TIP3   OH251159   6.194   6.272  13.466 -0.0887  0.2166  0.0641
 9915TIP3    H151160   6.183   6.362  13.437 -1.2152  0.0696 -0.0104
 9915TIP3    H251161   6.268   6.239  13.417  0.5797  1.2235  0.3792
 9916TIP3   OH251162   1.674   5.825  15.741  0.1921  0.8546 -0.8711
 9916TIP3    H151163   1.608   5.875  15.694  0.7401 -0.7454 -3.4327
 9916TIP3    H251164   1.736   5.796  15.674  2.7184  1.0869  1.2688
 9917TIP3   OH251165   3.013   2.735  14.167 -0.1259  0.0366  0.2079
 9917TIP3    H151166   3.106   2.754  14.179  0.5931 -1.8243 -1.9549
 9917TIP3    H251167   2.970   2.820  14.161  1.5728  0.9012  0.2992
 9918TIP3   OH251168   0.129   1.932  14.638 -0.7228  0.2246  0.1534
 9918TIP3    H151169   0.058   1.877  14.605 -0.9157  0.9598 -0.6842
 9918TIP3    H251170   0.088   2.018  14.652  0.0271  0.6804 -0.4280
 9919TIP3   OH251171   0.111   1.603  14.357  0.3903 -0.2055 -0.1521
 9919TIP3    H151172   0.047   1.590  14.287 -0.9432  0.8637  0.8428
 9919TIP3    H251173   0.157   1.520  14.364  0.1281 -0.5228 -1.8780
 9920TIP3   OH251174   4.176   6.298   5.645  0.2237  0.0055 -0.0716
 9920TIP3    H151175   4.100   6.256   5.686 -0.0353 -0.1353 -0.6950
 9920TIP3    H251176   4.148   6.389   5.632  0.4872  0.1724  0.5219
 9921TIP3   OH251177   1.115   4.877  16.751  0.8310  0.3108  0.0302
 9921TIP3    H151178   1.061   4.862  16.673  1.2324 -0.9212 -0.0317
 9921TIP3    H251179   1.201   4.840  16.728  0.6331 -1.0969  1.4409
 9922TIP3   OH251180   1.080   4.095  10.626 -0.2119 -0.4141  0.6409
 9922TIP3    H151181   0.998   4.070  10.583 -0.4648  0.4850  0.5921
 9922TIP3    H251182   1.095   4.026  10.690 -0.9592 -0.6460  0.5765
 9923TIP3   OH251183   1.487   1.163  16.991 -0.7469 -0.2377 -0.1632
 9923TIP3    H151184   1.565   1.213  16.970 -2.2416  2.1539 -0.1757
 9923TIP3    H251185   1.453   1.134  16.906 -0.8444  0.2401 -0.2892
 9924TIP3   OH251186   1.113   3.592  13.472  0.2496  0.4897  0.5965
 9924TIP3    H151187   1.203   3.567  13.452  0.7479  0.7096  2.4560
 9924TIP3    H251188   1.082   3.636  13.393  0.2554 -3.4727 -1.7294
 9925TIP3   OH251189   4.128   2.527   3.304  0.4731  0.2045  0.6909
 9925TIP3    H151190   4.127   2.451   3.362  2.0171 -0.3879 -0.0333
 9925TIP3    H251191   4.217   2.529   3.269 -0.2067  1.0051 -1.0365
 9926TIP3   OH251192   4.844   4.385   2.679  1.0816 -0.0999 -0.2489
 9926TIP3    H151193   4.779   4.335   2.629 -0.2227  0.6678  0.6415
 9926TIP3    H251194   4.792   4.434   2.743  2.7538 -1.5697  2.3101
 9927TIP3   OH251195   4.331   5.799  12.681  0.2964  0.3506 -0.6576
 9927TIP3    H151196   4.410   5.840  12.647  1.4544 -1.7714 -0.6636
 9927TIP3    H251197   4.305   5.737  12.613 -0.1276 -0.4876  0.2406
 9928TIP3   OH251198   1.904   2.239  11.421 -0.6565  0.0215  0.5207
 9928TIP3    H151199   1.819   2.268  11.388 -0.5301 -0.5885 -0.3489
 9928TIP3    H251200   1.965   2.308  11.395 -0.4052 -0.8476 -1.2962
 9929TIP3   OH251201   6.609   2.093  15.483  0.1356  0.5177  0.3535
 9929TIP3    H151202   6.518   2.123  15.483  0.0532  0.3360 -1.8624
 9929TIP3    H251203   6.603   1.998  15.471  0.5987  0.4318  0.7976
 9930TIP3   OH251204   5.265   6.529  13.777  1.0221 -0.0359 -0.1129
 9930TIP3    H151205   5.234   6.599  13.719  0.9414  1.0299  1.2040
 9930TIP3    H251206   5.322   6.573  13.840  2.5461 -1.4720 -0.4669
 9931TIP3   OH251207   1.256   5.661  15.893 -0.0829 -0.2312  0.4511
 9931TIP3    H151208   1.351   5.664  15.910  0.2765 -0.6535 -1.3918
 9931TIP3    H251209   1.249   5.659  15.798 -1.9893  0.6568  0.5593
 9932TIP3   OH251210   0.880   3.784  12.975 -0.0610  0.2251  0.2522
 9932TIP3    H151211   0.892   3.738  12.892 -2.3699  0.6424 -0.3409
 9932TIP3    H251212   0.842   3.718  13.033 -0.4955  0.5440  0.3256
 9933TIP3   OH251213   0.701   6.249  12.975  0.4718 -0.1255  0.5261
 9933TIP3    H151214   0.671   6.324  12.923  2.3897  3.0106  3.7132
 9933TIP3    H251215   0.778   6.216  12.928 -0.9850 -0.8148 -1.4486
 9934TIP3   OH251216   0.565   1.199  12.680  0.4809 -0.2074  0.0242
 9934TIP3    H151217   0.493   1.139  12.662 -0.6533  0.7985  1.0655
 9934TIP3    H251218   0.590   1.234  12.595 -0.4515 -0.3646 -0.3172
 9935TIP3   OH251219   4.748   4.374  16.220 -0.1813 -0.6013  0.5829
 9935TIP3    H151220   4.822   4.430  16.194 -0.7098  0.6814  1.7564
 9935TIP3    H251221   4.682   4.388  16.152 -0.2677  0.1319  0.8145
 9936TIP3   OH251222   2.910   4.870  13.934  0.4003 -0.1501  0.4946
 9936TIP3    H151223   2.925   4.940  13.997 -0.0818 -0.7819  1.3218
 9936TIP3    H251224   2.993   4.823  13.930 -0.2016 -1.4282  2.3160
 9937TIP3   OH251225   4.169   1.759  17.056 -0.5842 -0.0303 -0.4232
 9937TIP3    H151226   4.202   1.816  17.126 -0.3229 -1.2260  0.4461
 9937TIP3    H251227   4.077   1.747  17.077 -0.3569 -0.9233  0.1065
 9938TIP3   OH251228   3.899   3.205   3.555 -0.1558  0.1626  0.1318
 9938TIP3    H151229   3.857   3.157   3.626 -0.6326  0.0051 -0.2563
 9938TIP3    H251230   3.985   3.163   3.545 -0.1563  0.0735  0.4943
 9939TIP3   OH251231   5.627   3.072   1.055 -0.4547  0.3413 -0.3978
 9939TIP3    H151232   5.643   3.165   1.073  0.0094  0.0512  0.6959
 9939TIP3    H251233   5.662   3.059   0.967  2.0676  0.5765  0.5253
 9940TIP3   OH251234   1.122   0.997  12.933 -0.0644  0.1105 -0.0353
 9940TIP3    H151235   1.092   0.915  12.971 -2.2049  2.0689  2.6729
 9940TIP3    H251236   1.060   1.015  12.862  0.1866 -0.3922 -0.3870
 9941TIP3   OH251237   2.851   1.183  12.351  0.5843 -0.1499  0.2566
 9941TIP3    H151238   2.789   1.221  12.414  0.8992 -0.3929  0.7093
 9941TIP3    H251239   2.800   1.117  12.304  0.2211  0.3526 -0.0652
 9942TIP3   OH251240   2.616   5.044   0.012 -0.2067 -0.4326 -0.0894
 9942TIP3    H151241   2.683   5.059  -0.055 -0.0282  2.8262  0.7251
 9942TIP3    H251242   2.654   4.977   0.069  3.2120  2.4990  1.2957
 9943TIP3   OH251243   6.553   1.445  14.671 -0.0484 -0.6508 -0.1954
 9943TIP3    H151244   6.512   1.507  14.611 -0.5043 -1.2771 -0.5296
 9943TIP3    H251245   6.541   1.360  14.630  1.4532 -0.8619 -0.2116
 9944TIP3   OH251246   2.514   6.723   2.680 -0.4850  0.4060 -0.0046
 9944TIP3    H151247   2.563   6.652   2.722 -0.7840 -0.9508 -1.8734
 9944TIP3    H251248   2.581   6.786   2.653 -0.0083 -0.2040 -0.2442
 9945TIP3   OH251249   5.076   4.216   5.913  0.3417 -0.7191 -0.2359
 9945TIP3    H151250   5.066   4.309   5.936 -1.1428 -0.4137 -1.9963
 9945TIP3    H251251   5.134   4.216   5.837 -0.2966 -1.1496 -0.7304
 9946TIP3   OH251252   2.225   4.292   1.684 -0.0870  0.2672 -0.8015
 9946TIP3    H151253   2.178   4.362   1.729  2.0934  2.1500 -1.3586
 9946TIP3    H251254   2.303   4.335   1.649 -0.0293 -1.9011 -3.4175
 9947TIP3   OH251255   2.225   0.778  16.564  0.6537  0.1929 -0.3092
 9947TIP3    H151256   2.284   0.841  16.604  0.4597 -0.9675  1.8332
 9947TIP3    H251257   2.263   0.762  16.478  2.0914  1.3003  0.0867
 9948TIP3   OH251258   0.771   0.335  11.948 -0.2119  0.1639  0.0084
 9948TIP3    H151259   0.723   0.389  12.010  0.6117 -2.1216  2.7341
 9948TIP3    H251260   0.715   0.258  11.934  0.2336  0.0110 -0.9947
 9949TIP3   OH251261   4.449   3.834  11.237 -0.2776 -0.2825  0.3236
 9949TIP3    H151262   4.511   3.784  11.292 -1.3444 -1.9487  0.0456
 9949TIP3    H251263   4.474   3.925  11.251  1.5983 -0.8643  1.0134
 9950TIP3   OH251264   6.453   1.539  12.948  0.0977  0.1217  0.1173
 9950TIP3    H151265   6.490   1.579  13.027  1.1551 -0.5170 -0.0532
 9950TIP3    H251266   6.479   1.598  12.877  0.4523 -0.1141  0.0508
 9951TIP3   OH251267   1.047   0.739  10.846 -0.2735  0.7303 -0.0992
 9951TIP3    H151268   1.020   0.650  10.870  2.3803 -0.2207 -0.4265
 9951TIP3    H251269   1.012   0.753  10.758 -0.4431 -0.1348 -0.1694
 9952TIP3   OH251270   3.935   0.896  17.165  0.0715  0.4232  0.1447
 9952TIP3    H151271   3.842   0.874  17.160 -0.3262  1.8283  1.0232
 9952TIP3    H251272   3.969   0.874  17.078 -1.4066  1.2953 -0.6820
 9953TIP3   OH251273   2.232   4.386  16.054 -0.1377 -0.4562  0.6232
 9953TIP3    H151274   2.179   4.392  16.133 -0.6226 -0.6613  0.3168
 9953TIP3    H251275   2.316   4.424  16.078 -0.8337  1.0158  0.7518
 9954TIP3   OH251276   6.010   4.077   1.545 -0.5493 -0.3412  0.1842
 9954TIP3    H151277   5.942   4.048   1.606  1.7939 -2.1411  1.9878
 9954TIP3    H251278   6.008   4.012   1.475 -0.8432 -0.2235  0.0778
 9955TIP3   OH251279   0.513   5.853   3.400  0.0940 -0.2632  0.4046
 9955TIP3    H151280   0.493   5.783   3.461  0.4005 -0.1243  0.6681
 9955TIP3    H251281   0.604   5.836   3.373  0.4416  0.4909  1.0937
 9956TIP3   OH251282   1.454   1.565   4.184  0.0004 -0.0451  0.2192
 9956TIP3    H151283   1.483   1.586   4.272  3.4240 -1.5461 -0.4750
 9956TIP3    H251284   1.408   1.481   4.193 -0.9451  0.5316  0.7872
 9957TIP3   OH251285   3.905   6.328  15.969 -0.2258 -0.1966  0.0910
 9957TIP3    H151286   3.819   6.370  15.975 -0.6280 -1.0678  0.5267
 9957TIP3    H251287   3.961   6.394  15.928 -1.4763 -0.1778 -1.6526
 9958TIP3   OH251288   2.085   1.804   1.801  0.9004  0.5950 -0.1689
 9958TIP3    H151289   2.022   1.761   1.859  1.0627  0.5460 -0.0298
 9958TIP3    H251290   2.030   1.853   1.739  0.7355  1.6688  0.8039
 9959TIP3   OH251291   4.541   1.980  15.773 -0.7730  0.4512  0.4816
 9959TIP3    H151292   4.588   1.912  15.821 -0.2850  0.4919  0.0696
 9959TIP3    H251293   4.487   2.023  15.838  1.2144  1.6735  1.3373
 9960TIP3   OH251294   0.659   3.688   1.645 -0.4513  0.3865  0.2195
 9960TIP3    H151295   0.596   3.616   1.640  0.7263 -0.6811  0.5999
 9960TIP3    H251296   0.628   3.750   1.578 -2.5138  0.3927  1.1245
 9961TIP3   OH251297   4.951   5.285  14.518  0.0086  0.0818  0.3197
 9961TIP3    H151298   4.889   5.270  14.589  0.4830  4.9051  1.9136
 9961TIP3    H251299   4.895   5.305  14.442 -0.4325 -2.3889 -0.0540
 9962TIP3   OH251300   4.320   1.998  16.946  0.0092  0.2686 -0.3170
 9962TIP3    H151301   4.296   1.973  17.036  1.1224 -0.7912 -0.3038
 9962TIP3    H251302   4.237   1.994  16.898 -0.4124 -0.1740  0.4227
 9963TIP3   OH251303   1.847   1.546  13.983 -0.8598  0.1233  0.8459
 9963TIP3    H151304   1.862   1.452  13.978  0.8517  0.4113  0.2769
 9963TIP3    H251305   1.933   1.583  14.004 -1.4548  1.5814  0.7919
 9964TIP3   OH251306   6.607   6.717   4.116 -1.1952 -0.6884 -0.7787
 9964TIP3    H151307   6.620   6.811   4.127 -0.6197 -0.9572  0.9548
 9964TIP3    H251308   6.558   6.709   4.034  0.2348  1.0138 -1.8202
 9965TIP3   OH251309   5.056   5.200   5.798  0.3804 -0.0741  0.0295
 9965TIP3    H151310   5.055   5.104   5.800 -1.5187 -0.1315 -1.5869
 9965TIP3    H251311   5.141   5.222   5.760  0.6057 -1.1438 -0.1030
 9966TIP3   OH251312   3.569   2.173   0.404  0.1137  0.2455 -0.9021
 9966TIP3    H151313   3.657   2.137   0.397 -0.3835 -1.1630 -0.2597
 9966TIP3    H251314   3.558   2.190   0.498  0.4499  2.3933 -1.2408
 9967TIP3   OH251315   4.259   4.092  14.850  0.3059  0.5719  0.1052
 9967TIP3    H151316   4.276   4.169  14.904 -0.5715  0.2377  0.8858
 9967TIP3    H251317   4.218   4.127  14.771 -1.1201  0.8419  0.9274
 9968TIP3   OH251318   0.572   6.462   2.024  0.4220  0.4349  0.0953
 9968TIP3    H151319   0.577   6.381   1.973  0.9777 -0.1008  0.9813
 9968TIP3    H251320   0.657   6.468   2.068 -0.4947  0.2125  1.9508
 9969TIP3   OH251321   6.708   4.017   4.780 -0.1796  0.3539  0.0224
 9969TIP3    H151322   6.747   3.963   4.848 -0.9190  1.0086  0.9801
 9969TIP3    H251323   6.782   4.062   4.739  0.2415  0.1470  0.5605
 9970TIP3   OH251324   5.293   5.862   3.010 -0.2553 -0.0632 -0.4709
 9970TIP3    H151325   5.235   5.861   3.086 -1.8475  0.6935 -1.6681
 9970TIP3    H251326   5.294   5.772   2.979  0.2174 -0.3282  0.2908
 9971TIP3   OH251327   4.563   0.649   0.467  0.4249  0.1800  0.4329
 9971TIP3    H151328   4.604   0.569   0.436 -0.0231  0.3538 -0.6524
 9971TIP3    H251329   4.521   0.686   0.389  1.1416  1.7898  0.7807
 9972TIP3   OH251330   1.310   3.870   1.917  0.5629 -0.2682  0.2295
 9972TIP3    H151331   1.303   3.801   1.851 -0.5986  0.5413 -0.5033
 9972TIP3    H251332   1.247   3.845   1.985  1.4181 -0.8502  0.8243
 9973TIP3   OH251333   5.088   1.716  12.733  0.1284 -0.4735  0.4090
 9973TIP3    H151334   5.112   1.679  12.818 -0.4458 -0.3714  0.6187
 9973TIP3    H251335   5.052   1.642  12.684 -1.5052 -0.0959  1.0154
 9974TIP3   OH251336   2.325   4.488   0.951 -0.4016  0.1291 -0.2085
 9974TIP3    H151337   2.297   4.570   0.991  0.6833 -0.2514  1.3989
 9974TIP3    H251338   2.419   4.483   0.971 -0.8980 -2.5714  1.7275
 9975TIP3   OH251339   0.889   3.264  16.247  0.0979  0.5263 -0.1287
 9975TIP3    H151340   0.817   3.298  16.300 -1.2266  0.0286 -1.5611
 9975TIP3    H251341   0.893   3.324  16.172  1.3219  0.6572  0.0179
 9976TIP3   OH251342   6.136   4.593  15.618  0.1262 -0.6528 -0.1035
 9976TIP3    H151343   6.162   4.630  15.702 -0.5229 -2.3273  0.8803
 9976TIP3    H251344   6.057   4.641  15.594  0.8238  0.4505 -0.2112
 9977TIP3   OH251345   0.993   1.661  15.848 -0.1977  0.5434  0.1995
 9977TIP3    H151346   1.088   1.650  15.840 -0.3047  0.1793 -0.5361
 9977TIP3    H251347   0.968   1.600  15.917  0.1898  1.0896  0.8349
 9978TIP3   OH251348   4.162   3.724  14.761  0.4552 -0.1947  0.2400
 9978TIP3    H151349   4.232   3.708  14.698  1.1529  0.7190  0.7726
 9978TIP3    H251350   4.192   3.683  14.842  0.2912  0.0172  0.4105
 9979TIP3   OH251351   0.957   1.905  16.389  0.2991  0.5560  0.1476
 9979TIP3    H151352   0.926   1.821  16.354  0.5305  0.6667 -0.3305
 9979TIP3    H251353   0.979   1.886  16.480  0.9681 -0.0615 -0.1361
 9980TIP3   OH251354   2.501   2.739   0.161  0.1344 -0.1545  0.1075
 9980TIP3    H151355   2.566   2.676   0.132 -1.3892 -1.2635 -0.9529
 9980TIP3    H251356   2.459   2.698   0.236 -0.9355 -0.4758 -0.6530
 9981TIP3   OH251357   3.978   2.414   0.975  0.0207 -0.0666 -0.1328
 9981TIP3    H151358   3.884   2.407   0.963  0.2532 -1.6344 -1.0992
 9981TIP3    H251359   4.010   2.324   0.969  1.3575  0.2251  2.0679
 9982TIP3   OH251360   0.733   6.520  13.492  0.0582  0.7279 -0.0862
 9982TIP3    H151361   0.648   6.477  13.497  0.3253  0.2558  0.4520
 9982TIP3    H251362   0.721   6.603  13.539  0.0863  0.3480  0.5883
 9983TIP3   OH251363   4.056   2.617  10.705  0.0301  0.0127  0.2069
 9983TIP3    H151364   3.961   2.621  10.698  0.1687  1.9343 -0.7422
 9983TIP3    H251365   4.086   2.589  10.619  0.3967  0.7127  0.1029
 9984TIP3   OH251366   5.718   0.526   2.772  0.5795  0.0717  0.6023
 9984TIP3    H151367   5.787   0.591   2.787  1.4032 -1.1554  2.3092
 9984TIP3    H251368   5.766   0.444   2.760 -0.4843 -0.3536 -0.7742
 9985TIP3   OH251369   5.375   5.066  13.206  0.2178 -0.5277  0.1135
 9985TIP3    H151370   5.424   5.032  13.131  0.6478 -1.5277  0.8441
 9985TIP3    H251371   5.423   5.036  13.282 -1.1377 -0.9254  0.8331
 9986TIP3   OH251372   6.745   3.224   1.347 -0.4603 -0.2847 -0.1589
 9986TIP3    H151373   6.803   3.249   1.274  1.8176 -1.2254  1.2760
 9986TIP3    H251374   6.733   3.130   1.337  0.0824 -0.4657  0.8046
 9987TIP3   OH251375   1.766   2.279   5.142  0.5730  0.2551 -0.8047
 9987TIP3    H151376   1.719   2.354   5.107  0.2168  0.5610  0.3264
 9987TIP3    H251377   1.858   2.296   5.121  0.7284  1.9200  1.0858
 9988TIP3   OH251378   4.409   4.737   0.506 -0.2871 -0.6248 -0.4125
 9988TIP3    H151379   4.357   4.700   0.435 -0.3459  0.5560 -0.9823
 9988TIP3    H251380   4.364   4.818   0.531  1.7079  0.8622 -1.4854
 9989TIP3   OH251381   0.948   3.158   4.342  0.7580 -0.7867  0.3725
 9989TIP3    H151382   0.873   3.130   4.395 -0.1600  1.1729  0.1222
 9989TIP3    H251383   0.969   3.245   4.374  2.4363 -1.0018 -0.1175
 9990TIP3   OH251384   2.508   2.729   5.441 -0.7015 -0.3862  0.3433
 9990TIP3    H151385   2.494   2.647   5.489  1.6504 -0.4004  1.0672
 9990TIP3    H251386   2.540   2.701   5.355  0.4707 -0.2543  0.7203
 9991TIP3   OH251387   5.790   6.202  13.773  0.1299  0.0022  0.4577
 9991TIP3    H151388   5.768   6.110  13.788 -1.0719  0.4677  1.6287
 9991TIP3    H251389   5.810   6.236  13.860  1.9262  0.5222 -0.1406
 9992TIP3   OH251390   3.497   5.481  15.329 -0.3908  0.2909 -0.3992
 9992TIP3    H151391   3.464   5.537  15.400  0.8753  1.5347 -0.7798
 9992TIP3    H251392   3.566   5.532  15.288  0.9053 -1.6205 -0.6676
 9993TIP3   OH251393   3.466   1.668  13.572  0.3843  0.2939  0.1063
 9993TIP3    H151394   3.512   1.587  13.592  0.7206  1.1175  2.8173
 9993TIP3    H251395   3.374   1.645  13.577  0.4829 -0.1560 -0.1226
 9994TIP3   OH251396   3.043   4.708   0.583  0.5720 -0.7069  0.0885
 9994TIP3    H151397   3.045   4.670   0.496 -0.3436  0.7840 -0.5942
 9994TIP3    H251398   3.024   4.634   0.641  0.4347 -1.5704 -1.0407
 9995TIP3   OH251399   4.639   2.468   1.608  0.3135  0.3089  0.6304
 9995TIP3    H151400   4.575   2.505   1.669 -1.5121 -0.9130 -0.5121
 9995TIP3    H251401   4.679   2.396   1.656 -0.4704 -0.0708  0.7283
 9996TIP3   OH251402   1.515   2.903  13.379  0.1060  0.4409 -0.0311
 9996TIP3    H151403   1.472   2.845  13.442 -0.2752  1.0013  0.2243
 9996TIP3    H251404   1.470   2.886  13.297 -1.1314  1.5929  0.3984
 9997TIP3   OH251405   3.416   5.959   0.120  0.7801 -0.2904 -0.4186
 9997TIP3    H151406   3.385   6.048   0.139 -0.2620 -0.6146 -0.5529
 9997TIP3    H251407   3.449   5.926   0.203  0.9275  0.1378 -0.3089
 9998TIP3   OH251408   3.111   0.839  16.202 -0.2844 -0.3926 -0.2990
 9998TIP3    H151409   3.041   0.851  16.139  1.6095  1.8573 -2.0536
 9998TIP3    H251410   3.111   0.919  16.254 -0.8408 -1.5873  1.5795
 9999TIP3   OH251411   4.406   3.256  12.894 -0.3887  0.4759  0.6991
 9999TIP3    H151412   4.374   3.166  12.894 -0.6799  0.5665 -0.8931
 9999TIP3    H251413   4.336   3.306  12.851 -0.6190  1.6045  2.3489
10000TIP3   OH251414   5.416   1.238  13.048 -0.2925  0.5751  0.2058
10000TIP3    H151415   5.328   1.262  13.078  0.1146  1.1077  1.0122
10000TIP3    H251416   5.469   1.315  13.068  0.3680  0.2355 -0.2348
10001TIP3   OH251417   2.576   3.969  12.928 -0.0194 -0.1779  0.4828
10001TIP3    H151418   2.628   3.906  12.878  0.3823 -0.3005  1.0471
10001TIP3    H251419   2.607   3.959  13.018 -1.7380 -0.9729  0.9877
10002TIP3   OH251420   3.447   4.548   3.631 -0.3019  0.5102  0.2787
10002TIP3    H151421   3.493   4.575   3.552  1.4918 -1.4540  0.6056
10002TIP3    H251422   3.504   4.481   3.670 -1.6936  0.6463  2.6317
10003TIP3   OH251423   4.805   4.001  14.711  0.3143 -0.5200  0.5582
10003TIP3    H151424   4.747   4.051  14.768 -0.3635 -1.4281  0.6811
10003TIP3    H251425   4.763   4.004  14.625  1.1551  0.5548  0.1812
10004TIP3   OH251426   0.364   2.870  15.329  0.1420  0.1220  0.3837
10004TIP3    H151427   0.459   2.869  15.339  0.2810  0.6465 -0.8814
10004TIP3    H251428   0.345   2.803  15.264 -0.2230  1.0075 -0.4332
10005TIP3   OH251429   2.293   3.121   4.620  0.4693  0.2540 -0.6532
10005TIP3    H151430   2.198   3.128   4.611  0.3124 -0.6815  0.1244
10005TIP3    H251431   2.317   3.189   4.683  0.5178  1.4857 -1.9937
10006TIP3   OH251432   5.953   1.990  16.456  0.1889  1.0425  0.0569
10006TIP3    H151433   5.967   1.999  16.550 -0.8572 -0.6766  0.3972
10006TIP3    H251434   5.859   2.002  16.444  0.1131 -0.1083 -0.5876
10007TIP3   OH251435   3.138   0.770  11.798  0.1513 -0.2572 -0.8636
10007TIP3    H151436   3.180   0.714  11.862  3.6310  1.6659 -1.3170
10007TIP3    H251437   3.195   0.765  11.721 -2.1976 -0.0214 -2.6592
10008TIP3   OH251438   5.688   0.557   4.326 -0.0045  0.0940  0.4125
10008TIP3    H151439   5.697   0.643   4.285  1.8744 -0.2723  0.0145
10008TIP3    H251440   5.611   0.519   4.284 -0.6652  1.4362  0.3543
10009TIP3   OH251441   4.762   2.756   1.058  0.2252  0.9138  0.6264
10009TIP3    H151442   4.784   2.749   0.965  2.9773  0.5263  1.2720
10009TIP3    H251443   4.771   2.667   1.092 -2.2527  0.7538  1.0171
10010TIP3   OH251444   0.853   1.648  16.303 -0.4762  0.2880  0.7421
10010TIP3    H151445   0.842   1.605  16.218 -0.6137  0.3671  0.7182
10010TIP3    H251446   0.782   1.712  16.306 -0.3360  0.4409  0.8200
10011TIP3   OH251447   2.780   4.366  12.942 -0.3776 -0.0729  0.4937
10011TIP3    H151448   2.700   4.415  12.959 -0.6914 -0.0984 -0.8581
10011TIP3    H251449   2.793   4.313  13.021 -2.9091 -1.7187 -0.1195
10012TIP3   OH251450   1.863   4.827   3.749 -0.6406  0.0736 -0.0104
10012TIP3    H151451   1.814   4.897   3.792  0.8276  1.8297 -1.1286
10012TIP3    H251452   1.860   4.850   3.656  2.1882  0.1830 -0.1154
10013TIP3   OH251453   2.943   0.610   1.451 -0.0921 -0.5055 -0.1765
10013TIP3    H151454   2.985   0.561   1.381 -0.3498 -0.3073 -0.4714
10013TIP3    H251455   2.922   0.695   1.412  1.0953  0.1404  0.5616
10014TIP3   OH251456   4.079   1.328  12.286 -0.0644  0.5267  0.2199
10014TIP3    H151457   4.101   1.328  12.380 -2.3040  2.8031  0.8006
10014TIP3    H251458   4.012   1.396  12.277 -0.5915 -0.3269 -2.8922
10015TIP3   OH251459   5.017   3.569   2.777  0.3553 -0.1089  0.0066
10015TIP3    H151460   4.945   3.569   2.714  1.0998 -0.5710 -0.8481
10015TIP3    H251461   5.064   3.650   2.760  2.4282 -1.7251 -2.2057
10016TIP3   OH251462   3.808   2.120   2.519  0.1258  0.0096 -0.4587
10016TIP3    H151463   3.716   2.141   2.498  0.7424  0.3351 -3.0950
10016TIP3    H251464   3.849   2.205   2.532  1.0896  0.2179 -4.2292
10017TIP3   OH251465   1.584   6.462  15.174 -0.0676  0.1582  0.5247
10017TIP3    H151466   1.623   6.461  15.086 -0.9971 -0.9645  0.1243
10017TIP3    H251467   1.506   6.407  15.167 -1.2773  1.6891  1.5429
10018TIP3   OH251468   6.601   2.659  13.152 -0.1437 -0.3523 -0.2194
10018TIP3    H151469   6.605   2.574  13.197 -0.0595 -0.5095 -0.5251
10018TIP3    H251470   6.539   2.710  13.204  0.0920 -0.4713  0.1830
10019TIP3   OH251471   5.956   6.663  11.134  0.0618 -0.0603 -0.0071
10019TIP3    H151472   5.909   6.734  11.177  0.0071 -0.8016  1.1602
10019TIP3    H251473   5.911   6.584  11.161  1.7590 -0.7587  0.8572
10020TIP3   OH251474   3.867   3.118   0.031  0.3180 -0.6328 -0.6641
10020TIP3    H151475   3.904   3.204   0.010 -0.9444  0.4586  1.4297
10020TIP3    H251476   3.867   3.114   0.126 -2.4150 -1.7020 -0.6666
10021TIP3   OH251477   2.293   0.796   4.092  0.2625 -0.4248  0.0971
10021TIP3    H151478   2.313   0.839   4.175 -0.4871  0.3797 -0.1343
10021TIP3    H251479   2.204   0.762   4.103  1.1696 -2.7403  0.6023
10022TIP3   OH251480   3.223   2.926  16.455  0.8559  0.1452 -0.4526
10022TIP3    H151481   3.309   2.891  16.431  1.3173  1.1620 -0.3455
10022TIP3    H251482   3.188   2.962  16.374  1.1491  0.9833 -0.2176
10023TIP3   OH251483   5.328   0.706   5.789  0.3216 -0.0249 -0.9015
10023TIP3    H151484   5.313   0.618   5.753  0.0325 -0.2732 -0.1803
10023TIP3    H251485   5.296   0.701   5.879 -1.4408  1.3676 -1.4175
10024TIP3   OH251486   1.638   3.641  11.860 -0.3340  0.2554 -0.1880
10024TIP3    H151487   1.688   3.560  11.851  0.2730  0.6792 -0.6879
10024TIP3    H251488   1.566   3.618  11.919  0.1154 -0.5131  0.0735
10025TIP3   OH251489   0.093   2.571   0.144 -0.4502 -0.0028  0.4863
10025TIP3    H151490   0.172   2.517   0.139 -1.3552 -1.4984  1.6563
10025TIP3    H251491   0.028   2.522   0.094 -1.1534  0.2390  1.1521
10026TIP3   OH251492   3.867   5.493   2.215 -0.2444 -0.6585 -0.2696
10026TIP3    H151493   3.792   5.451   2.174 -1.0026  0.1592  0.2560
10026TIP3    H251494   3.935   5.491   2.148 -1.1010 -0.3523 -1.1646
10027TIP3   OH251495   2.498   0.493  15.151 -0.0605 -0.1074 -0.0560
10027TIP3    H151496   2.472   0.447  15.230 -0.8533  1.2966  0.5247
10027TIP3    H251497   2.467   0.583  15.164  0.6825  0.3875 -1.5218
10028TIP3   OH251498   1.775   1.785   0.636 -0.7287 -0.3903  0.4495
10028TIP3    H151499   1.813   1.849   0.576 -0.4006 -1.3444 -0.3747
10028TIP3    H251500   1.848   1.730   0.663 -0.7048  0.6117  2.4802
10029TIP3   OH251501   6.000   2.777   2.169 -0.3192  0.0430  0.4867
10029TIP3    H151502   6.030   2.745   2.254 -0.9822 -0.3315  0.5827
10029TIP3    H251503   5.993   2.698   2.115  2.0698  0.4917 -0.5397
10030TIP3   OH251504   0.674   1.031   5.719 -0.4576 -0.0888 -0.1188
10030TIP3    H151505   0.698   1.049   5.628  0.0682  0.0474  0.0447
10030TIP3    H251506   0.646   0.940   5.719 -0.2157 -0.1634 -0.3701
10031TIP3   OH251507   2.923   3.961   4.939 -0.0273  0.2356 -0.2119
10031TIP3    H151508   2.950   3.938   4.851 -0.3989  1.1187 -0.5595
10031TIP3    H251509   2.928   4.057   4.942  1.5550  0.1259  1.2282
10032TIP3   OH251510   6.729   1.824  17.160 -0.2491  0.5848 -0.4718
10032TIP3    H151511   6.684   1.873  17.228 -3.1011  0.0324 -1.8626
10032TIP3    H251512   6.690   1.855  17.078  1.1346 -0.7136 -1.6612
10033TIP3   OH251513   4.677   3.329   0.365  0.0796 -0.0574 -0.7727
10033TIP3    H151514   4.735   3.397   0.329 -1.4070  0.6179 -1.9021
10033TIP3    H251515   4.698   3.329   0.459  1.3473  0.7378 -1.0317
10034TIP3   OH251516   5.094   4.512  13.601 -0.1318  0.1969  0.2314
10034TIP3    H151517   5.007   4.474  13.598 -0.5401  0.7981  3.1759
10034TIP3    H251518   5.153   4.437  13.611 -0.4805 -0.0524  0.4071
10035TIP3   OH251519   5.774   3.357   1.069 -0.4007 -0.2883 -0.4150
10035TIP3    H151520   5.774   3.363   0.973  1.7923 -0.2716 -0.4380
10035TIP3    H251521   5.709   3.422   1.097  0.0657  0.8235 -1.8345
10036TIP3   OH251522   1.445   5.788  11.907 -0.6644 -0.1793 -0.3967
10036TIP3    H151523   1.448   5.875  11.866 -1.6518  0.2907  0.4987
10036TIP3    H251524   1.366   5.747  11.873 -0.0184 -0.8809 -1.0852
10037TIP3   OH251525   1.545   2.647   4.307 -0.1299 -0.0346 -0.6116
10037TIP3    H151526   1.502   2.732   4.318 -0.5223 -0.2661 -0.3383
10037TIP3    H251527   1.515   2.595   4.382 -0.5054 -0.6615 -1.1844
10038TIP3   OH251528   3.234   5.215   4.605 -0.0500  0.0820 -0.3151
10038TIP3    H151529   3.142   5.211   4.580  0.3672 -0.7050 -1.7429
10038TIP3    H251530   3.277   5.148   4.553  1.3104  0.3050  0.4833
10039TIP3   OH251531   0.874   5.154  16.649  0.0756 -0.3196  0.3042
10039TIP3    H151532   0.865   5.150  16.744 -1.0394 -2.7147  0.1301
10039TIP3    H251533   0.894   5.065  16.622  0.6676  0.3781 -1.7018
10040TIP3   OH251534   0.135   3.817   0.615  0.5194  0.5105 -0.4594
10040TIP3    H151535   0.104   3.892   0.665 -0.4858  0.0521 -0.3883
10040TIP3    H251536   0.221   3.797   0.653 -0.4920 -0.2172  1.5107
10041TIP3   OH251537   1.346   4.145  12.655 -0.0398 -0.1611  0.1460
10041TIP3    H151538   1.401   4.213  12.693  2.6018  0.5431 -4.5717
10041TIP3    H251539   1.382   4.063  12.688 -0.1316  0.5299  1.9842
10042TIP3   OH251540   3.454   4.875   0.698 -0.1771  0.0136  0.0711
10042TIP3    H151541   3.543   4.883   0.731 -0.5474 -2.1805  1.7612
10042TIP3    H251542   3.458   4.802   0.636 -0.4504  1.1056 -1.2646
10043TIP3   OH251543   1.889   0.450  15.393  0.3668 -0.0007  0.0133
10043TIP3    H151544   1.929   0.444  15.306 -0.9276 -1.3193 -0.5181
10043TIP3    H251545   1.797   0.469  15.375  0.2922  0.7083  1.1380
10044TIP3   OH251546   3.960   3.437   3.888 -0.0046  0.2236 -0.2044
10044TIP3    H151547   3.873   3.412   3.856  0.0221 -1.1570  0.7524
10044TIP3    H251548   4.019   3.373   3.849  0.7263  1.7301 -1.6131
10045TIP3   OH251549   2.900   4.785  15.512  0.3159  1.1541 -0.6241
10045TIP3    H151550   2.851   4.854  15.558  0.1797  0.1818  0.7370
10045TIP3    H251551   2.835   4.716  15.496  0.6746  0.9184 -1.0772
10046TIP3   OH251552   4.222   6.147  14.477  1.1265 -0.6651  0.4328
10046TIP3    H151553   4.196   6.177  14.390  0.6685 -2.4906 -0.0910
10046TIP3    H251554   4.141   6.112  14.515  1.3024  0.2187  1.6402
10047TIP3   OH251555   3.191   1.710  12.335 -0.6851  0.6959  0.1724
10047TIP3    H151556   3.181   1.626  12.379  0.2799 -0.2754 -1.4263
10047TIP3    H251557   3.122   1.711  12.270 -0.6093  1.0847  0.0969
10048TIP3   OH251558   3.500   5.078  14.349 -0.4075  0.1961 -0.7613
10048TIP3    H151559   3.417   5.036  14.325 -0.8626  0.8596 -0.3660
10048TIP3    H251560   3.499   5.080  14.444  0.2819 -0.2126 -0.7413
10049TIP3   OH251561   5.723   1.201  16.631 -0.6097  0.1999 -0.1042
10049TIP3    H151562   5.800   1.257  16.626  0.5562 -1.2641  1.3201
10049TIP3    H251563   5.750   1.119  16.590 -2.6945  1.0001 -3.3398
10050TIP3   OH251564   3.362   2.870   5.384 -0.2338  0.2192 -0.2443
10050TIP3    H151565   3.340   2.842   5.473  1.5418 -0.4310  0.0264
10050TIP3    H251566   3.312   2.811   5.327  0.2706 -0.7794  0.3334
10051TIP3   OH251567   3.758   2.456   4.616  0.4052 -0.0374 -0.2670
10051TIP3    H151568   3.697   2.521   4.582  0.5926  1.1540  1.6093
10051TIP3    H251569   3.730   2.373   4.577 -0.2206  1.0559 -2.1924
10052TIP3   OH251570   2.973   0.364   5.454 -0.3638  0.4069 -0.0639
10052TIP3    H151571   2.955   0.437   5.395  1.0979  0.6300 -0.2553
10052TIP3    H251572   2.930   0.289   5.413 -1.0497  0.9554 -0.3700
10053TIP3   OH251573   5.835   0.776   3.637 -0.6186 -0.1584  0.0202
10053TIP3    H151574   5.909   0.718   3.656 -0.1524 -0.1061 -1.5125
10053TIP3    H251575   5.758   0.726   3.664 -0.0158 -0.1355  1.8144
10054TIP3   OH251576   6.006   4.610  13.446 -0.1987 -0.6157  0.3211
10054TIP3    H151577   6.062   4.532  13.446 -1.0407 -1.2445 -0.7761
10054TIP3    H251578   6.036   4.661  13.521  0.1187 -2.1893  1.3021
10055TIP3   OH251579   0.031   5.577   2.330  0.4224 -0.2841  0.1204
10055TIP3    H151580  -0.052   5.529   2.333  0.4235 -0.2388  2.2390
10055TIP3    H251581   0.010   5.663   2.365  0.8104  0.6551 -1.9167
10056TIP3   OH251582   3.578   4.755   1.847  0.0418  0.1648 -0.2150
10056TIP3    H151583   3.628   4.700   1.908  0.1265 -0.3387 -0.7361
10056TIP3    H251584   3.594   4.716   1.761  1.0407  1.7189 -0.7369
10057TIP3   OH251585   5.942   1.414  13.262 -0.0694  0.2025 -0.3713
10057TIP3    H151586   5.874   1.364  13.216  0.3103  1.4217 -2.3213
10057TIP3    H251587   6.008   1.349  13.285 -0.3349 -0.4668 -1.4399
10058TIP3   OH251588   0.624   1.978   2.062 -0.2858 -0.1029 -0.4333
10058TIP3    H151589   0.605   2.071   2.071  0.0995  0.0229 -0.8696
10058TIP3    H251590   0.682   1.973   1.986 -0.3443 -0.7035 -0.4408
10059TIP3   OH251591   3.701   0.636  11.421 -0.2441 -0.8075 -0.3620
10059TIP3    H151592   3.655   0.680  11.350  0.0552 -1.0164 -0.6869
10059TIP3    H251593   3.638   0.574  11.457 -0.7851  0.1239  0.3210
10060TIP3   OH251594   0.012   6.456  17.213 -0.3635 -0.3163 -0.5120
10060TIP3    H151595   0.073   6.475  17.285  0.6816 -1.0336 -1.1907
10060TIP3    H251596  -0.073   6.489  17.244  0.4957  1.3290  0.1556
10061TIP3   OH251597   5.760   3.297   4.905 -0.1511 -0.0735 -0.0502
10061TIP3    H151598   5.801   3.274   4.989 -0.6030 -0.0465  0.1781
10061TIP3    H251599   5.678   3.248   4.904 -0.9973  1.2899  0.3206
10062TIP3   OH251600   4.282   0.679  11.519 -0.1472  0.2319  0.2269
10062TIP3    H151601   4.209   0.676  11.457 -0.5229  0.5397  0.6496
10062TIP3    H251602   4.241   0.694  11.604  0.2984 -0.9522  0.6627
10063TIP3   OH251603   4.766   2.830  13.328  0.3090  0.2893 -0.0138
10063TIP3    H151604   4.725   2.744  13.329  1.4445 -0.2531  2.0366
10063TIP3    H251605   4.747   2.867  13.414  0.7999  1.6130 -0.4635
10064TIP3   OH251606   5.384   4.528   5.531  0.0862  0.1644  0.1234
10064TIP3    H151607   5.399   4.549   5.623 -0.2643  0.2327  0.1677
10064TIP3    H251608   5.471   4.514   5.494  0.2816  0.9429  0.2716
10065TIP3   OH251609   2.985   1.820   4.260 -0.2338 -0.3045  0.5953
10065TIP3    H151610   2.984   1.885   4.190  0.2877 -0.3427  0.5526
10065TIP3    H251611   3.052   1.851   4.321 -1.9987  0.7540  2.0592
10066TIP3   OH251612   3.799   3.187   3.965 -0.3755  0.4596  0.0543
10066TIP3    H151613   3.750   3.140   4.033 -0.5379  1.2516  0.4985
10066TIP3    H251614   3.762   3.276   3.966  0.7645  0.9415  0.0840
10067TIP3   OH251615   4.158   6.584  14.734  0.0318 -0.4409 -0.1475
10067TIP3    H151616   4.085   6.525  14.715  0.7768 -0.7066 -2.3967
10067TIP3    H251617   4.141   6.661  14.681  1.0198 -0.2180 -0.1482
10068TIP3   OH251618   1.976   6.749   5.018  0.8245  0.2557 -0.3891
10068TIP3    H151619   1.898   6.748   4.963  2.3680  0.3194 -2.6975
10068TIP3    H251620   1.958   6.686   5.088 -2.0363  1.7469  0.2735
10069TIP3   OH251621   1.969   5.917   0.604  0.0239  0.1581 -0.3273
10069TIP3    H151622   2.026   5.934   0.679  1.6625  0.2275 -1.5721
10069TIP3    H251623   1.989   5.827   0.579  0.0617  0.3989 -1.1690
10070TIP3   OH251624   2.899   3.174  14.270 -0.2874  0.0427 -0.8407
10070TIP3    H151625   2.930   3.244  14.212  0.1341  2.7187  2.4070
10070TIP3    H251626   2.979   3.136  14.306 -0.5516 -1.1919 -1.5519
10071TIP3   OH251627   5.376   3.250  12.559  0.4842  0.2219  0.2362
10071TIP3    H151628   5.454   3.228  12.609  2.1411  3.0166 -1.0170
10071TIP3    H251629   5.331   3.317  12.610  0.1038  0.2627 -0.1417
10072TIP3   OH251630   6.434   4.096  13.884  0.4225 -0.2961  0.4965
10072TIP3    H151631   6.519   4.075  13.846  0.2484  4.2562 -2.8774
10072TIP3    H251632   6.454   4.145  13.964  0.9450 -0.1033  0.2436
10073TIP3   OH251633   0.295   6.673   3.303  0.9487 -0.0144 -0.1225
10073TIP3    H151634   0.372   6.702   3.352 -0.1950  1.3539  0.8884
10073TIP3    H251635   0.312   6.702   3.213  1.5446  0.4040  0.1189
10074TIP3   OH251636   5.837   6.179   5.123 -0.1663  0.4304  0.6856
10074TIP3    H151637   5.809   6.270   5.113 -0.5493  0.1239 -1.1577
10074TIP3    H251638   5.792   6.149   5.202 -0.5881  1.6226  0.9123
10075TIP3   OH251639   3.456   0.966  15.388 -0.0241  0.0253 -0.2092
10075TIP3    H151640   3.426   0.876  15.394  0.0538  0.0685  1.0658
10075TIP3    H251641   3.407   1.012  15.456  1.5598  0.4753  0.6538
10076TIP3   OH251642   0.022   0.855  11.639 -0.1486 -0.2424  1.2850
10076TIP3    H151643   0.066   0.893  11.715 -0.1991  2.3223  0.0872
10076TIP3    H251644   0.085   0.792  11.603 -0.4676 -2.1382  3.9018
10077TIP3   OH251645   3.484   5.490  12.227  0.2461  0.3908 -0.5463
10077TIP3    H151646   3.559   5.459  12.176  0.7607  1.8259 -0.6891
10077TIP3    H251647   3.447   5.560  12.174 -0.2725  0.7162  0.2398
10078TIP3   OH251648   1.218   4.357  11.297  0.7608 -0.1751 -0.6910
10078TIP3    H151649   1.158   4.329  11.228  1.3311 -1.2985 -0.7305
10078TIP3    H251650   1.304   4.328  11.268  1.2466  0.8881 -0.3358
10079TIP3   OH251651   1.604   3.750  14.103  0.0952  0.8241  0.0746
10079TIP3    H151652   1.611   3.784  14.192  0.9532  1.7773 -0.3553
10079TIP3    H251653   1.673   3.685  14.096 -1.1495 -0.6110  0.6930
10080TIP3   OH251654   6.737   5.774  13.792  0.0648 -0.7976 -0.1493
10080TIP3    H151655   6.789   5.758  13.713 -0.3510  0.4140 -0.6877
10080TIP3    H251656   6.802   5.781  13.862  0.6186  0.2598 -0.7436
10081TIP3   OH251657   0.967   4.031  14.306 -0.1267 -0.0106 -0.5404
10081TIP3    H151658   0.963   4.107  14.248 -0.3477  0.7049  0.3944
10081TIP3    H251659   1.037   4.051  14.368  1.1112 -1.4309 -1.4592
10082TIP3   OH251660   5.055   3.265   0.983 -0.8726 -0.2537 -0.1288
10082TIP3    H151661   4.968   3.227   1.001 -0.9899 -0.8415 -1.8161
10082TIP3    H251662   5.048   3.356   1.012 -2.4365  0.0259 -1.3228
10083TIP3   OH251663   5.049   6.392  15.302 -0.4377 -0.3110 -0.1699
10083TIP3    H151664   5.132   6.344  15.297 -0.4009 -0.2497 -0.1515
10083TIP3    H251665   5.068   6.465  15.361 -0.7908 -0.8953  0.6937
10084TIP3   OH251666   3.126   2.433  12.880 -0.3735  0.4174  0.2566
10084TIP3    H151667   3.206   2.386  12.862 -0.7490 -0.0348 -0.2353
10084TIP3    H251668   3.128   2.508  12.821 -0.3051  0.4199  0.2629
10085TIP3   OH251669   2.296   1.573  16.861  0.5500 -0.9801 -0.1774
10085TIP3    H151670   2.272   1.485  16.832  1.5549 -0.4432 -2.6862
10085TIP3    H251671   2.216   1.625  16.849 -0.5727 -1.8467  2.8956
10086TIP3   OH251672   3.226   2.280   2.499  0.2504 -0.3313  0.0866
10086TIP3    H151673   3.286   2.240   2.436 -1.4524 -2.3601 -0.2950
10086TIP3    H251674   3.226   2.373   2.475  1.4068 -0.6913 -1.4212
10087TIP3   OH251675   5.938   4.977   3.188  0.2396 -0.1371 -0.1098
10087TIP3    H151676   5.855   4.942   3.156  0.4959  0.5758 -1.6045
10087TIP3    H251677   5.913   5.054   3.238 -0.0280 -0.1090 -0.2822
10088TIP3   OH251678   1.536   1.475  13.179  0.1037 -0.3103  0.0042
10088TIP3    H151679   1.600   1.537  13.215 -0.8232  0.7322 -0.1350
10088TIP3    H251680   1.479   1.528  13.124  0.6271 -1.6518 -1.8904
10089TIP3   OH251681   5.734   2.887   2.163  0.0607 -0.0167 -0.0304
10089TIP3    H151682   5.709   2.866   2.073 -1.3468 -1.4843  0.6752
10089TIP3    H251683   5.817   2.842   2.176  0.8277  1.1190 -0.9425
10090TIP3   OH251684   2.631   1.940  14.332  0.0674  0.4867 -0.3775
10090TIP3    H151685   2.644   2.034  14.342  0.1475  0.2452  2.0081
10090TIP3    H251686   2.580   1.914  14.409 -1.2179 -1.1847 -1.7608
10091TIP3   OH251687   6.768   4.173  10.868  0.1148  0.1308 -0.4458
10091TIP3    H151688   6.841   4.229  10.841 -0.6222  2.0818  1.5001
10091TIP3    H251689   6.694   4.203  10.815 -0.2348  0.9110  0.4655
10092TIP3   OH251690   0.225   4.688   4.378  0.0771 -0.2374 -0.0743
10092TIP3    H151691   0.299   4.748   4.376  1.4836 -1.8277  1.9780
10092TIP3    H251692   0.226   4.645   4.292  0.3632  1.0947 -0.7475
10093TIP3   OH251693   3.767   4.728  15.019  0.2192  0.0947 -0.1196
10093TIP3    H151694   3.820   4.788  15.071  1.1650 -0.4952 -0.3997
10093TIP3    H251695   3.827   4.658  14.993 -0.6621 -0.5280 -0.5288
10094TIP3   OH251696   4.784   5.502  12.144  0.4621 -0.3543  0.2315
10094TIP3    H151697   4.744   5.587  12.128  0.1945 -0.5006  0.1159
10094TIP3    H251698   4.762   5.450  12.067 -1.8060 -1.4132  1.5257
10095TIP3   OH251699   2.728   4.459   4.631  0.3430 -0.0038  0.4921
10095TIP3    H151700   2.736   4.445   4.537 -0.1791  0.5861  0.3535
10095TIP3    H251701   2.796   4.404   4.670  1.4432  0.7651 -0.3029
10096TIP3   OH251702   6.270   4.477  13.732 -0.3265 -0.1534  0.4464
10096TIP3    H151703   6.326   4.470  13.809 -0.5397 -0.9373  0.5411
10096TIP3    H251704   6.181   4.476  13.767 -0.4542 -1.5031  0.1480
10097TIP3   OH251705   1.479   1.937  13.589  0.0534  0.5032  0.4504
10097TIP3    H151706   1.519   1.949  13.675 -0.1577 -1.2855  0.8085
10097TIP3    H251707   1.521   1.858  13.553 -2.2204 -0.6855  0.3004
10098TIP3   OH251708   3.046   1.285   5.852  0.5700  0.4922  0.3058
10098TIP3    H151709   3.017   1.197   5.875 -3.0448  1.5667  0.0905
10098TIP3    H251710   3.065   1.279   5.758 -0.5674  0.1494  0.0859
10099TIP3   OH251711   0.864   1.149  16.135  0.9517  0.1946 -0.8609
10099TIP3    H151712   0.859   1.074  16.194  1.1158 -0.0769 -1.1959
10099TIP3    H251713   0.787   1.201  16.156  1.5904  0.6792  0.3947
10100TIP3   OH251714   5.206   0.666  17.132 -0.4828  0.5125  0.5449
10100TIP3    H151715   5.255   0.608  17.190  0.9344  0.0615 -1.0806
10100TIP3    H251716   5.121   0.623  17.121  0.1380 -0.6497  0.2973
10101TIP3   OH251717   0.343   4.287  15.885 -0.1433 -0.8575  0.2217
10101TIP3    H151718   0.412   4.222  15.871  1.1118  0.6279 -0.7126
10101TIP3    H251719   0.354   4.314  15.976  0.8718 -0.2416 -0.0709
10102TIP3   OH251720   1.437   4.234  10.748 -0.5508  0.1513  0.3434
10102TIP3    H151721   1.460   4.283  10.827  1.4254  1.1620 -0.8397
10102TIP3    H251722   1.371   4.288  10.704  0.3430  0.9045 -0.0732
10103TIP3   OH251723   1.226   3.015   3.455 -0.6238  0.1792 -0.5528
10103TIP3    H151724   1.174   2.939   3.426  0.5975 -0.5814 -0.7872
10103TIP3    H251725   1.263   3.051   3.375  0.4423 -0.2001 -0.2349
10104TIP3   OH251726   2.370   5.179   2.624  0.0547 -0.1979 -0.2156
10104TIP3    H151727   2.401   5.223   2.703  1.8035 -0.4142 -0.7680
10104TIP3    H251728   2.294   5.230   2.596  1.4465  1.8749 -0.2887
10105TIP3   OH251729   3.871   0.872  13.850  0.2424 -0.0118  0.0854
10105TIP3    H151730   3.927   0.936  13.893  0.7062  0.3035 -0.9990
10105TIP3    H251731   3.931   0.812  13.807 -0.2602  0.7826 -1.7474
10106TIP3   OH251732   6.090   0.751   4.851  0.3026  0.1439  0.1080
10106TIP3    H151733   6.140   0.736   4.931 -0.8410  2.7765  1.3588
10106TIP3    H251734   6.000   0.730   4.875 -0.1765  1.7503 -0.2228
10107TIP3   OH251735   2.012   5.648   0.558 -0.4460  0.4554  0.3634
10107TIP3    H151736   2.033   5.561   0.523 -0.0716  0.3070  0.9365
10107TIP3    H251737   2.070   5.657   0.634  0.0931  1.5384 -0.1656
10108TIP3   OH251738   3.984   1.303  16.515  0.5547 -0.5741  0.2137
10108TIP3    H151739   3.979   1.327  16.607  1.3607 -0.4637  0.2255
10108TIP3    H251740   3.899   1.330  16.479 -0.3384 -1.9700  1.2355
10109TIP3   OH251741   4.319   0.445   1.936 -0.2268 -0.1900  0.4443
10109TIP3    H151742   4.375   0.522   1.948  0.8340 -1.0240  0.8858
10109TIP3    H251743   4.246   0.477   1.882 -0.6136  1.5057  1.9204
10110TIP3   OH251744   4.130   0.182  11.658 -0.2354 -0.3125 -0.0264
10110TIP3    H151745   4.100   0.272  11.666  0.7390 -0.0083  0.2179
10110TIP3    H251746   4.209   0.188  11.604  0.2324 -0.9352  0.5840
10111TIP3   OH251747   1.019   2.337   5.169  0.6351 -0.8586  0.3352
10111TIP3    H151748   1.001   2.427   5.194 -1.4840 -1.4039  0.8804
10111TIP3    H251749   1.044   2.294   5.250  2.7510 -0.5273 -0.1157
10112TIP3   OH251750   4.010   5.028  10.413  0.2276 -0.2680  0.3417
10112TIP3    H151751   4.013   4.950  10.358 -1.4620 -0.5425  0.6022
10112TIP3    H251752   4.037   4.997  10.500  2.9361  0.1776 -0.3174
10113TIP3   OH251753   0.922   1.508  11.449  0.2927 -0.2522  0.2115
10113TIP3    H151754   0.938   1.603  11.446  0.7498 -0.3451 -0.5228
10113TIP3    H251755   1.009   1.470  11.458  0.2633 -0.6627 -1.1322
10114TIP3   OH251756   6.481   2.773  11.233 -0.2041  0.0280  0.4172
10114TIP3    H151757   6.442   2.841  11.287 -1.1370 -0.2064  0.0601
10114TIP3    H251758   6.416   2.758  11.164  1.1871  0.7091 -1.0809
10115TIP3   OH251759   6.763   3.635   3.179  0.9719 -0.6097  0.0155
10115TIP3    H151760   6.853   3.657   3.154  0.7247 -0.8123 -1.0454
10115TIP3    H251761   6.713   3.715   3.165  0.6563 -0.9827 -1.0121
10116TIP3   OH251762   2.908   6.651  14.627 -0.2085 -0.5225 -0.6067
10116TIP3    H151763   2.848   6.596  14.676 -0.4138  0.0025 -0.2633
10116TIP3    H251764   2.919   6.730  14.681  0.6631 -0.5446 -0.7313
10117TIP3   OH251765   1.370   5.390   5.892  0.3145  0.0435 -0.2274
10117TIP3    H151766   1.465   5.381   5.882  0.2836 -0.6550  0.0703
10117TIP3    H251767   1.357   5.482   5.913  0.9409  0.1195 -0.1568
10118TIP3   OH251768   2.580   4.649  17.220  0.0593  0.5093 -0.1439
10118TIP3    H151769   2.667   4.669  17.185  1.0593 -1.2028  1.2786
10118TIP3    H251770   2.523   4.649  17.143  1.5705  0.3131 -1.2824
10119TIP3   OH251771   0.125   1.431   4.136  0.4550 -0.9416  0.0727
10119TIP3    H151772   0.139   1.344   4.173 -1.5009 -1.0785  0.5655
10119TIP3    H251773   0.033   1.430   4.108  0.3354  1.0340  0.3149
10120TIP3   OH251774   3.717   4.351   2.746  0.6942  0.0348 -0.2954
10120TIP3    H151775   3.762   4.384   2.825  0.6862 -0.2273 -0.1823
10120TIP3    H251776   3.667   4.427   2.714  0.9138  0.2189 -0.2042
10121TIP3   OH251777   0.080   3.507  11.862 -0.1540  0.4627  0.5193
10121TIP3    H151778   0.077   3.424  11.814  1.1837  1.0509 -0.6095
10121TIP3    H251779   0.010   3.560  11.823 -1.6130 -0.4339  1.8543
10122TIP3   OH251780   3.916   4.372  14.660 -0.5535 -0.0662  0.5212
10122TIP3    H151781   3.832   4.329  14.645  0.8342 -2.9528  0.5744
10122TIP3    H251782   3.945   4.339  14.746  1.0499  0.1435  0.0793
10123TIP3   OH251783   3.687   6.292   1.737 -0.5187 -0.5243 -0.0314
10123TIP3    H151784   3.736   6.308   1.817 -2.5219  3.5735  0.5240
10123TIP3    H251785   3.604   6.253   1.767 -1.3288  1.1459 -0.0280
10124TIP3   OH251786   5.570   3.902  11.342  0.3437 -0.4467  0.3019
10124TIP3    H151787   5.563   3.880  11.434 -2.2484 -0.6315  0.0861
10124TIP3    H251788   5.487   3.944  11.320  1.0788 -0.0220 -1.8474
10125TIP3   OH251789   0.153   4.505   1.849 -0.0325  0.3897  0.1196
10125TIP3    H151790   0.168   4.587   1.896  0.0722  0.0942  0.6057
10125TIP3    H251791   0.235   4.487   1.804 -0.4158  1.1284 -0.8900
10126TIP3   OH251792   2.867   1.568  12.465 -0.0603  0.1518 -0.1093
10126TIP3    H151793   2.908   1.608  12.542  1.4002  0.7334 -1.1415
10126TIP3    H251794   2.773   1.571  12.483  0.3101 -0.5881  2.0387
10127TIP3   OH251795   3.866   6.226   6.454 -0.1150 -0.1854  0.5024
10127TIP3    H151796   3.950   6.184   6.469  0.4680  1.6414  2.5369
10127TIP3    H251797   3.888   6.315   6.427 -1.4107  0.2009  0.6820
10128TIP3   OH251798   0.037   4.939   2.365 -0.7129 -0.2544 -0.4484
10128TIP3    H151799   0.008   5.006   2.428 -0.6848  0.3622 -1.0904
10128TIP3    H251800  -0.043   4.892   2.341 -0.7379 -0.4322 -0.0292
10129TIP3   OH251801   5.375   1.249  14.163 -0.5737  0.6259  0.0146
10129TIP3    H151802   5.416   1.304  14.231 -1.0588 -0.1279  0.9354
10129TIP3    H251803   5.296   1.215  14.204 -0.4014 -0.5759 -0.6128
10130TIP3   OH251804   6.507   6.318   4.194 -0.0866 -0.0388 -0.4917
10130TIP3    H151805   6.446   6.387   4.167 -1.3809 -0.8511  0.2721
10130TIP3    H251806   6.450   6.243   4.213  1.0325 -0.3796  1.6206
10131TIP3   OH251807   3.366   6.468   4.869  0.0749 -0.5443 -0.5579
10131TIP3    H151808   3.283   6.509   4.842 -0.7080 -0.5989  1.5931
10131TIP3    H251809   3.364   6.381   4.829 -1.5321 -1.0250  0.5077
10132TIP3   OH251810   1.039   2.818  12.068 -0.2275 -0.5283 -0.3102
10132TIP3    H151811   1.012   2.845  12.156 -1.7128 -1.2672 -0.5283
10132TIP3    H251812   1.132   2.838  12.065 -0.1507 -0.5115  1.4517
10133TIP3   OH251813   2.003   1.601  14.447 -0.2289 -0.5362  0.3369
10133TIP3    H151814   1.977   1.518  14.406  0.4594  0.3740 -1.9926
10133TIP3    H251815   2.092   1.585  14.477 -0.3601 -0.8640  0.5655
10134TIP3   OH251816   4.546   2.128   0.009  0.4814  0.0865  0.4375
10134TIP3    H151817   4.533   2.157   0.100 -0.4612 -1.7372  0.8979
10134TIP3    H251818   4.508   2.040   0.006  1.6925 -0.3907 -1.4006
10135TIP3   OH251819   1.234   1.831   0.621  0.0523  0.3443 -0.2287
10135TIP3    H151820   1.139   1.833   0.627  0.0429 -2.0165  1.1156
10135TIP3    H251821   1.252   1.820   0.527 -0.9891  0.6896 -0.4743
10136TIP3   OH251822   4.280   1.419  16.466 -0.0440  0.1844 -0.4046
10136TIP3    H151823   4.340   1.436  16.393  1.2196  1.9579  0.9938
10136TIP3    H251824   4.266   1.324  16.465  1.7831 -0.0836 -1.5510
10137TIP3   OH251825   4.660   2.276  16.438  0.1281  0.0450  0.3483
10137TIP3    H151826   4.750   2.290  16.409  0.3469 -0.6842  0.6792
10137TIP3    H251827   4.651   2.331  16.516 -0.0027  0.8372 -0.2124
10138TIP3   OH251828   0.111   0.158   1.245  0.2513  0.3185  0.4485
10138TIP3    H151829   0.113   0.178   1.151 -0.1057 -2.7095 -0.2365
10138TIP3    H251830   0.198   0.184   1.276  1.1417 -0.6469 -1.1514
10139TIP3   OH251831   2.364   0.716   0.290  0.0920  0.3885  0.2678
10139TIP3    H151832   2.448   0.756   0.312  0.7477 -0.5596 -0.4712
10139TIP3    H251833   2.320   0.782   0.236  0.0389  1.1916  1.2755
10140TIP3   OH251834   0.899   5.914  12.413  0.4930 -0.4445  0.3736
10140TIP3    H151835   0.874   5.986  12.470  0.4166 -0.2037  0.0383
10140TIP3    H251836   0.958   5.953  12.348  0.7736 -0.7638  0.4325
10141TIP3   OH251837   4.614   5.059  17.150 -0.2481 -0.4986 -0.0811
10141TIP3    H151838   4.647   5.025  17.233 -0.3278 -1.3544 -0.3944
10141TIP3    H251839   4.627   4.988  17.088 -0.4056  0.0521 -0.7581
10142TIP3   OH251840   4.986   2.146   6.705 -0.5103 -0.5624  0.1626
10142TIP3    H151841   5.000   2.202   6.782 -3.4017 -0.5796  0.7536
10142TIP3    H251842   4.967   2.208   6.634  1.0375 -0.6030 -0.3090
10143TIP3   OH251843   0.358   4.953   4.894 -0.6913  0.0102 -0.4854
10143TIP3    H151844   0.264   4.970   4.886 -0.8625 -1.0178 -0.7002
10143TIP3    H251845   0.384   4.999   4.974 -1.8353 -1.6163  0.8481
10144TIP3   OH251846   5.159   4.805  11.550  0.3012  0.0284 -0.5350
10144TIP3    H151847   5.198   4.868  11.489 -0.2851  0.6636 -0.2656
10144TIP3    H251848   5.091   4.762  11.498  0.8326 -0.5166 -0.7756
10145TIP3   OH251849   0.407   6.173   3.008  0.2534 -0.1129 -0.5654
10145TIP3    H151850   0.459   6.120   3.068  0.0522 -0.3303 -0.5824
10145TIP3    H251851   0.318   6.139   3.018 -0.1372  1.1970  0.5174
10146TIP3   OH251852   0.039   5.465  14.585 -0.2770 -0.0308 -0.2373
10146TIP3    H151853  -0.024   5.519  14.633  0.4595 -0.0324  0.7487
10146TIP3    H251854   0.072   5.523  14.516 -2.3379 -0.4605 -1.6140
10147TIP3   OH251855   0.053   0.340  15.783 -0.0838  1.0024  0.3969
10147TIP3    H151856   0.034   0.420  15.733  0.9348  0.6195 -0.6173
10147TIP3    H251857   0.003   0.272  15.738  2.4722  0.2567 -1.4228
10148TIP3   OH251858   2.025   3.114  11.156 -0.0088 -0.2286  0.2598
10148TIP3    H151859   2.012   3.043  11.217 -0.2351 -0.7349 -0.3725
10148TIP3    H251860   1.983   3.085  11.075  0.9827  0.0864 -0.3821
10149TIP3   OH251861   5.472   5.719   2.276 -0.3017 -0.5602  0.3186
10149TIP3    H151862   5.424   5.723   2.193 -1.2436 -0.3843  0.8620
10149TIP3    H251863   5.511   5.632   2.277  1.7121  0.2823 -1.4029
10150TIP3   OH251864   3.967   2.538  11.176 -0.2903  0.0246 -1.0121
10150TIP3    H151865   3.990   2.452  11.212  1.4749  0.6779 -0.5728
10150TIP3    H251866   3.899   2.518  11.111 -2.4275 -1.3282  1.5417
10151TIP3   OH251867   5.246   5.157  14.005  0.0944  0.1981 -0.0941
10151TIP3    H151868   5.301   5.227  13.970  1.0820 -0.3097  0.4128
10151TIP3    H251869   5.263   5.082  13.947  2.2819 -0.8590  1.8401
10152TIP3   OH251870   4.184   0.434  16.778  0.4581  0.3879  0.0033
10152TIP3    H151871   4.192   0.339  16.783  0.8543  0.3602 -1.1425
10152TIP3    H251872   4.251   0.467  16.838 -1.3607 -0.0690  2.3739
10153TIP3   OH251873   3.062   4.527   2.001 -0.4584 -0.6292  0.0252
10153TIP3    H151874   3.115   4.465   1.951  0.0514 -0.6710  0.6104
10153TIP3    H251875   3.030   4.590   1.936 -0.1206 -0.9034 -0.4061
10154TIP3   OH251876   3.784   1.673  16.694 -0.3569  0.5806 -0.1459
10154TIP3    H151877   3.773   1.599  16.755  1.6348 -0.0766 -0.5341
10154TIP3    H251878   3.720   1.656  16.625  0.6044 -1.2542 -0.6423
10155TIP3   OH251879   6.053   0.875  12.837  0.8638  0.4608  0.7954
10155TIP3    H151880   6.010   0.851  12.755  1.3131  0.7475  0.4721
10155TIP3    H251881   6.019   0.963  12.856  3.0109  1.6598 -0.6654
10156TIP3   OH251882   1.881   2.597  16.515  0.6286 -0.1936  0.5942
10156TIP3    H151883   1.880   2.502  16.503 -0.7837  0.0999 -1.8686
10156TIP3    H251884   1.974   2.620  16.518  0.9842 -1.5437  0.2001
10157TIP3   OH251885   5.606   2.013  15.888  0.1385 -0.4560 -0.3481
10157TIP3    H151886   5.550   1.951  15.935  0.3991  0.4880  1.2504
10157TIP3    H251887   5.550   2.048  15.819 -0.6068 -1.0286 -0.0458
10158TIP3   OH251888   0.618   4.989  16.576  0.1954 -0.1860  0.5472
10158TIP3    H151889   0.706   4.951  16.566 -1.3482 -3.7272 -0.3738
10158TIP3    H251890   0.580   4.985  16.488 -1.4723 -0.1401  1.2566
10159TIP3   OH251891   1.967   1.725  17.140  0.0955  0.0651 -0.3902
10159TIP3    H151892   1.942   1.816  17.158 -0.7816 -0.7021  2.5595
10159TIP3    H251893   1.907   1.697  17.071 -0.7139  1.2359 -0.1797
10160TIP3   OH251894   0.002   1.882  13.887 -0.5736  0.0203 -0.4500
10160TIP3    H151895   0.097   1.877  13.882 -0.4510 -0.5075  1.8941
10160TIP3    H251896  -0.017   1.969  13.921 -0.9430  0.1595 -0.9954
10161TIP3   OH251897   5.940   5.418  16.095  0.5158  0.1384  0.5130
10161TIP3    H151898   5.952   5.460  16.009 -0.7415 -1.4960 -0.4986
10161TIP3    H251899   5.888   5.481  16.145  1.3456  1.1500  0.1187
10162TIP3   OH251900   1.537   0.449  15.577  0.4742 -0.1439  0.6792
10162TIP3    H151901   1.456   0.459  15.627  1.6024 -0.7408  2.6720
10162TIP3    H251902   1.548   0.355  15.566 -0.2289  0.0071 -1.5131
10163TIP3   OH251903   6.510   0.457   3.713  0.0433  0.3029 -0.1393
10163TIP3    H151904   6.453   0.470   3.637 -1.4472 -1.4869  0.6440
10163TIP3    H251905   6.548   0.543   3.729 -1.7816  1.3391 -1.1844
10164TIP3   OH251906   6.111   5.124   5.750 -0.6165 -0.1262  0.4539
10164TIP3    H151907   6.122   5.184   5.676  0.1906  0.4424  1.0330
10164TIP3    H251908   6.200   5.107   5.781 -0.7256 -2.5038 -0.3988
10165TIP3   OH251909   5.837   0.048  14.255  0.2108 -0.1997  0.1822
10165TIP3    H151910   5.849  -0.046  14.246 -2.5162 -0.6009  0.3251
10165TIP3    H251911   5.745   0.059  14.277  0.4495  2.5171  0.0646
10166TIP3   OH251912   3.651   3.681  11.942 -0.2214 -0.1586  0.6419
10166TIP3    H151913   3.651   3.776  11.949  0.6594 -0.0486 -0.6474
10166TIP3    H251914   3.562   3.655  11.965 -1.6156  1.3054 -2.8437
10167TIP3   OH251915   6.094   5.344   2.060  0.2565  0.3298 -0.0270
10167TIP3    H151916   6.013   5.370   2.102  1.4409  0.1803  2.4116
10167TIP3    H251917   6.086   5.377   1.970 -2.5081  0.2162  0.1463
10168TIP3   OH251918   1.484   5.123   0.463  0.0362 -0.0146  0.2151
10168TIP3    H151919   1.402   5.100   0.420  0.0546 -0.8098  0.6145
10168TIP3    H251920   1.507   5.046   0.515  0.4061  0.6576  1.0594
10169TIP3   OH251921   3.777   5.404  13.072 -0.2641 -0.5038 -0.1752
10169TIP3    H151922   3.738   5.317  13.081 -1.1475 -0.0528  0.3840
10169TIP3    H251923   3.703   5.464  13.068  0.3720  0.4385  1.7524
10170TIP3   OH251924   2.041   1.452  17.224  0.2289  0.6287  0.1748
10170TIP3    H151925   1.977   1.454  17.153 -0.3100 -0.5164  0.6260
10170TIP3    H251926   1.989   1.446  17.304  0.8143  2.3413  0.7174
10171TIP3   OH251927   6.067   5.199  12.341 -0.4683 -0.2613  0.1394
10171TIP3    H151928   6.042   5.162  12.256 -1.3773 -1.4184  0.8854
10171TIP3    H251929   5.998   5.261  12.362 -0.7051 -0.6273  0.4416
10172TIP3   OH251930   1.966   2.862   0.976  0.0118 -0.7529  0.3969
10172TIP3    H151931   1.887   2.873   1.029 -0.1814 -0.9811  0.1568
10172TIP3    H251932   1.944   2.904   0.892  1.3724  2.3034  1.5045
10173TIP3   OH251933   4.991   5.647   1.222  0.1794 -0.8298  0.3583
10173TIP3    H151934   5.008   5.651   1.316  0.1817 -0.4252  0.3399
10173TIP3    H251935   5.064   5.597   1.186  0.5227 -0.4164  0.4836
10174TIP3   OH251936   1.331   3.753   5.172 -0.2973  0.0048  0.3723
10174TIP3    H151937   1.362   3.843   5.184  0.0780 -0.1319  0.4415
10174TIP3    H251938   1.408   3.699   5.191 -0.6851 -0.3541  0.9336
10175TIP3   OH251939   5.552   0.400  12.975  0.1159 -0.0127 -0.5731
10175TIP3    H151940   5.485   0.395  13.043 -0.1042 -0.8583 -0.8500
10175TIP3    H251941   5.559   0.494  12.954  2.0179  0.5893  2.4431
10176TIP3   OH251942   6.697   1.335  16.055 -0.0188  0.6730 -0.3193
10176TIP3    H151943   6.625   1.393  16.034 -0.8698 -0.6398 -1.1357
10176TIP3    H251944   6.745   1.326  15.972 -0.5043 -0.5982 -0.4740
10177TIP3   OH251945   2.159   0.665  15.058 -0.1777 -0.2010  0.1768
10177TIP3    H151946   2.093   0.722  15.096  1.7987  1.5981  0.9521
10177TIP3    H251947   2.199   0.620  15.132 -0.9620 -1.8257 -0.3424
10178TIP3   OH251948   4.622   3.784  11.443  0.1145  0.3072 -0.1102
10178TIP3    H151949   4.705   3.752  11.477 -1.3901 -2.1372  1.4135
10178TIP3    H251950   4.619   3.876  11.469  3.1257  0.9337 -1.8185
10179TIP3   OH251951   1.475   2.686   4.610 -0.1043 -0.1625  0.6622
10179TIP3    H151952   1.431   2.762   4.648  1.0760  0.4372  0.8408
10179TIP3    H251953   1.568   2.704   4.622  0.2459 -0.5051 -1.4940
10180TIP3   OH251954   6.221   6.688  11.260  0.3166  0.0799  0.0302
10180TIP3    H151955   6.284   6.631  11.303 -0.2917  1.0188  2.1953
10180TIP3    H251956   6.137   6.645  11.273  0.0253  0.7904  0.5222
10181TIP3   OH251957   4.612   5.837   3.683  0.1325 -0.7618 -0.5445
10181TIP3    H151958   4.629   5.865   3.772  1.4681  0.1278 -1.0547
10181TIP3    H251959   4.578   5.915   3.638  0.8107 -0.8120 -1.1612
10182TIP3   OH251960   1.437   6.133  11.468 -0.4898 -0.5012 -0.6585
10182TIP3    H151961   1.438   6.228  11.460 -1.3103 -0.4693 -0.3849
10182TIP3    H251962   1.392   6.102  11.390 -2.6108 -0.5211  0.5383
10183TIP3   OH251963   0.494   4.579   2.945  0.2723  0.1813 -0.3995
10183TIP3    H151964   0.550   4.505   2.920  0.6436  0.1181  0.5649
10183TIP3    H251965   0.439   4.595   2.869 -0.2111 -1.4662 -0.4128
10184TIP3   OH251966   4.478   2.012  10.583 -0.3816 -0.3097  0.4017
10184TIP3    H151967   4.384   2.005  10.565 -0.1142 -0.2316 -1.0568
10184TIP3    H251968   4.490   1.962  10.663 -1.3885 -1.8008 -0.3472
10185TIP3   OH251969   2.100   0.695   1.705  0.7824 -0.2009 -0.2261
10185TIP3    H151970   2.087   0.715   1.613  0.9856  1.7339  0.1490
10185TIP3    H251971   2.182   0.739   1.728  2.1357 -2.8564  0.2464
10186TIP3   OH251972   6.206   6.737   2.142  0.0982 -0.2536 -0.3052
10186TIP3    H151973   6.292   6.695   2.148 -0.1265 -0.6284  0.3779
10186TIP3    H251974   6.224   6.830   2.154  0.4251 -0.3104 -0.3400
10187TIP3   OH251975   5.761   5.124   5.035  0.2366 -0.0438 -0.2833
10187TIP3    H151976   5.737   5.206   4.992  0.2032 -0.7117 -1.5824
10187TIP3    H251977   5.846   5.102   4.998 -0.7100 -1.6846 -1.5727
10188TIP3   OH251978   1.619   4.052   1.828  0.1992 -0.1868  0.3518
10188TIP3    H151979   1.662   4.014   1.750  0.1778  0.7522 -0.1177
10188TIP3    H251980   1.682   4.116   1.861  0.7367 -1.4465  1.8317
10189TIP3   OH251981   6.568   1.581   5.117  0.0424 -0.3823  0.0394
10189TIP3    H151982   6.609   1.667   5.111 -1.4760  0.4085  0.8092
10189TIP3    H251983   6.503   1.580   5.047  0.0874 -0.9155  0.0050
10190TIP3   OH251984   4.313   1.107  16.745 -0.2040  0.7465 -0.4895
10190TIP3    H151985   4.319   1.011  16.748  0.5841  0.8219  0.7057
10190TIP3    H251986   4.399   1.137  16.773 -0.9635  1.8248  0.7058
10191TIP3   OH251987   0.460   4.719  14.041 -0.0758 -0.2345  0.4020
10191TIP3    H151988   0.511   4.792  14.004  1.1592  0.2031  2.8460
10191TIP3    H251989   0.480   4.645  13.984 -0.3778  1.0433 -1.4057
10192TIP3   OH251990   0.654   6.255   1.391  0.0003 -0.1506 -0.5426
10192TIP3    H151991   0.649   6.201   1.470  0.5910 -0.3577 -0.6430
10192TIP3    H251992   0.600   6.209   1.327  0.5678 -0.6751 -0.6542
10193TIP3   OH251993   4.226   6.155   4.171 -0.0256  0.0414 -0.4620
10193TIP3    H151994   4.283   6.225   4.140 -0.9560  1.3107  0.6194
10193TIP3    H251995   4.267   6.124   4.251 -0.9682  1.1250  0.4497
10194TIP3   OH251996   4.418   4.764  11.558  0.3729  0.3256  0.2614
10194TIP3    H151997   4.500   4.765  11.509  0.6244  0.0390  0.6728
10194TIP3    H251998   4.354   4.804  11.499  0.7059  0.1228 -0.2374
10195TIP3   OH251999   6.621   4.932   3.068  0.3208 -0.2005 -0.4150
10195TIP3    H152000   6.604   4.839   3.083  0.8620 -0.0400  1.3569
10195TIP3    H252001   6.536   4.974   3.073  0.2775 -0.3891  0.5360
10196TIP3   OH252002   1.709   4.429   4.598  0.0804 -0.1425  0.5890
10196TIP3    H152003   1.708   4.477   4.516 -0.7387  1.6098  1.5939
10196TIP3    H252004   1.794   4.384   4.599  0.3192  0.2494 -0.9465
10197TIP3   OH252005   2.638   1.833   2.754  0.4816 -0.3010 -0.1714
10197TIP3    H152006   2.723   1.793   2.736  1.1514  1.1316 -0.2758
10197TIP3    H252007   2.658   1.925   2.769 -1.0252 -0.0098  0.1087
10198TIP3   OH252008   3.998   0.071  16.276  0.3430  0.3158 -0.3193
10198TIP3    H152009   3.983  -0.012  16.321  0.0717 -0.0274 -1.0272
10198TIP3    H252010   3.997   0.047  16.183  0.4123  1.0898 -0.5170
10199TIP3   OH252011   4.288   1.546  12.432  0.0376  0.2920  0.0862
10199TIP3    H152012   4.211   1.600  12.451  0.2132  0.8278 -0.7523
10199TIP3    H252013   4.327   1.585  12.354  0.6393 -0.5405 -0.0333
10200TIP3   OH252014   4.171   1.440  13.632 -0.0654  0.0355  0.5457
10200TIP3    H152015   4.218   1.472  13.555 -0.2380  0.5739  0.6590
10200TIP3    H252016   4.231   1.458  13.705  1.1200 -2.6636  0.2690
10201TIP3   OH252017   4.806   2.923   0.565 -0.3936 -0.3008 -0.2973
10201TIP3    H152018   4.746   2.899   0.494  0.6875  0.1893 -1.3934
10201TIP3    H252019   4.818   2.842   0.614 -1.5823 -0.5186 -0.3453
10202TIP3   OH252020   4.316   1.227  14.869  0.1610  0.2063  0.0163
10202TIP3    H152021   4.301   1.281  14.946  1.6877  0.6597  0.0188
10202TIP3    H252022   4.264   1.148  14.884  0.6770  0.1547  1.6553
10203TIP3   OH252023   2.110   0.017  13.926  0.3621 -0.3751 -0.0329
10203TIP3    H152024   2.029  -0.021  13.960 -0.0419 -1.7539 -2.3649
10203TIP3    H252025   2.139  -0.045  13.858  2.6679  0.7562 -0.1482
10204TIP3   OH252026   4.180   0.078   5.340  0.4908  0.2206  0.0713
10204TIP3    H152027   4.093   0.045   5.317  1.1155 -0.6274 -1.1445
10204TIP3    H252028   4.163   0.159   5.388 -1.0293 -0.9236  1.5430
10205TIP3   OH252029   4.735   0.654   1.096 -0.3553  0.4043 -0.1908
10205TIP3    H152030   4.704   0.649   1.006  0.3977 -2.7791 -0.3432
10205TIP3    H252031   4.658   0.632   1.149 -0.6950  1.8634 -0.0778
10206TIP3   OH252032   5.082   3.980   2.924 -0.1732  0.2247  0.0774
10206TIP3    H152033   5.041   3.927   2.991 -0.3642  1.8456  1.2736
10206TIP3    H252034   5.108   3.918   2.856 -3.0200 -1.0376  0.0840
10207TIP3   OH252035   0.915   5.891   1.953  0.0158  0.6955 -0.3911
10207TIP3    H152036   1.007   5.917   1.945  0.2824 -0.4355 -1.2653
10207TIP3    H252037   0.876   5.957   2.010  1.6646  0.4579  1.0638
10208TIP3   OH252038   4.420   1.122   1.626  0.0009  0.2593 -0.4035
10208TIP3    H152039   4.382   1.088   1.545  0.2948  1.2600 -0.9717
10208TIP3    H252040   4.402   1.054   1.691 -2.6789  0.6813 -0.6807
10209TIP3   OH252041   0.935   0.588   2.603 -0.3238 -0.6421 -0.3350
10209TIP3    H152042   0.850   0.619   2.633  0.4698  0.5789  0.7326
10209TIP3    H252043   0.984   0.572   2.684  0.8391 -0.2271 -0.9431
10210TIP3   OH252044   3.159   1.031   4.920  0.2706 -0.2461 -0.0610
10210TIP3    H152045   3.142   1.055   5.011  1.4476  1.4806 -0.2768
10210TIP3    H252046   3.113   0.948   4.909 -1.1318  0.2570  1.6720
10211TIP3   OH252047   0.074   1.203  14.642 -0.0784  0.2559  0.1717
10211TIP3    H152048   0.089   1.293  14.671 -0.0450  0.3905 -0.2583
10211TIP3    H252049   0.019   1.165  14.710  1.1935  0.1306  1.1414
10212TIP3   OH252050   5.181   6.169   2.347  0.3867  0.5696 -0.1106
10212TIP3    H152051   5.142   6.120   2.419  1.5973 -0.5433 -0.2034
10212TIP3    H252052   5.240   6.231   2.390  0.4123  0.5353 -0.0964
10213TIP3   OH252053   3.704   0.621  12.851  0.2767 -0.5028 -0.1024
10213TIP3    H152054   3.717   0.569  12.930 -0.2446 -0.4468  0.0235
10213TIP3    H252055   3.642   0.689  12.878  0.5559 -0.1273 -0.3997
10214TIP3   OH252056   5.082   3.260  13.401  0.2826  0.0485  0.0114
10214TIP3    H152057   5.106   3.289  13.313  2.4248  0.8640  0.8224
10214TIP3    H252058   5.035   3.178  13.387  2.8303 -1.1700 -1.8002
10215TIP3   OH252059   2.747   0.767  11.346 -0.0522  0.5515  0.6991
10215TIP3    H152060   2.717   0.792  11.434 -0.3452  1.8149  0.2448
10215TIP3    H252061   2.789   0.682  11.359  0.3471  0.9523  2.1544
10216TIP3   OH252062   6.344   2.059  17.203  0.2901  0.3101 -0.0806
10216TIP3    H152063   6.385   2.041  17.119  0.0655 -2.8901  0.4434
10216TIP3    H252064   6.405   2.117  17.248  1.3927  0.3563 -1.6105
10217TIP3   OH252065   4.983   5.168   3.025 -0.4942 -0.0191 -0.4421
10217TIP3    H152066   4.937   5.199   2.947 -0.3174 -0.2894 -0.6505
10217TIP3    H252067   4.944   5.218   3.097  0.4645  1.4201 -0.8954
10218TIP3   OH252068   4.855   5.619  11.178 -0.5330  0.0425  0.2680
10218TIP3    H152069   4.847   5.526  11.159 -0.6814 -0.2108  1.5098
10218TIP3    H252070   4.765   5.652  11.179 -0.3717  0.6244 -2.1400
10219TIP3   OH252071   0.269   6.323  12.241  0.2521  0.3457  1.0329
10219TIP3    H152072   0.331   6.263  12.200  0.3019  0.8988  0.2788
10219TIP3    H252073   0.276   6.403  12.189 -2.0081  0.0019  0.1443
10220TIP3   OH252074   6.237   3.159  16.034  0.2173 -0.3420 -0.2797
10220TIP3    H152075   6.227   3.254  16.034  2.8108 -0.0409 -1.0160
10220TIP3    H252076   6.165   3.127  15.980 -1.5572  1.0672  1.1847
10221TIP3   OH252077   0.322   4.135   0.037 -0.3678  0.0586  0.4684
10221TIP3    H152078   0.323   4.045   0.068 -1.6572  0.0086  0.3817
10221TIP3    H252079   0.277   4.131  -0.048  1.4992  0.4564 -0.5686
10222TIP3   OH252080   6.405   4.514   1.229 -0.3322  0.0506  0.1774
10222TIP3    H152081   6.355   4.592   1.206  0.4112  0.6161  0.4713
10222TIP3    H252082   6.496   4.541   1.221 -0.0642 -1.2163 -1.1834
10223TIP3   OH252083   1.289   6.732   5.212 -0.2498 -0.3469 -0.0313
10223TIP3    H152084   1.368   6.680   5.229 -1.3895 -1.7160  1.2283
10223TIP3    H252085   1.220   6.667   5.201 -1.0460  0.8147 -2.0356
10224TIP3   OH252086   6.774   2.736   5.006  0.4960 -0.1810 -0.0579
10224TIP3    H152087   6.847   2.797   4.992 -0.3447  0.7981 -0.1889
10224TIP3    H252088   6.799   2.686   5.083  1.1227  0.4373  0.1453
10225TIP3   OH252089   2.575   5.638  12.578 -0.3959  0.6274 -0.1352
10225TIP3    H152090   2.647   5.610  12.522  0.7406  1.6195  0.7940
10225TIP3    H252091   2.516   5.685  12.519  0.4394  1.0649 -0.6357
10226TIP3   OH252092   5.597   4.867   5.025 -0.0119  0.7224 -0.3451
10226TIP3    H152093   5.662   4.818   4.975  1.4712  1.0847  1.1438
10226TIP3    H252094   5.640   4.951   5.043 -0.2502  0.3671  2.0251
10227TIP3   OH252095   4.599   5.737  10.453  0.1033 -0.6723 -0.1689
10227TIP3    H152096   4.671   5.741  10.389  0.5171  2.1999  0.4555
10227TIP3    H252097   4.525   5.777  10.408  0.3019  1.0491  1.0149
10228TIP3   OH252098   6.068   5.096   2.205 -0.4831  0.2990 -0.6821
10228TIP3    H152099   6.085   5.176   2.157 -0.7834  0.9409  0.2690
10228TIP3    H252100   6.121   5.103   2.285  0.2824 -0.9041 -1.0641
10229TIP3   OH252101   0.983   0.808   2.198 -0.9875  0.3989  0.1839
10229TIP3    H152102   0.995   0.887   2.251  0.2650  1.4605 -1.6261
10229TIP3    H252103   1.037   0.742   2.241  1.3267  1.6951 -0.6202
10230TIP3   OH252104   0.939   6.741   0.440  0.4399 -0.1824  0.3569
10230TIP3    H152105   0.879   6.814   0.450  0.5014 -0.1772  0.7015
10230TIP3    H252106   1.024   6.781   0.425  0.4850 -0.1783  0.6086
10231TIP3   OH252107   0.008   5.104  10.325  0.1637  0.3671 -0.0394
10231TIP3    H152108   0.055   5.105  10.409 -0.9479 -0.6726  0.6161
10231TIP3    H252109  -0.076   5.145  10.344 -0.9363 -1.7591 -0.1046
10232TIP3   OH252110   2.184   3.334  17.200 -0.1202  0.7723 -0.2019
10232TIP3    H152111   2.126   3.329  17.123 -1.7248  1.6983  0.9171
10232TIP3    H252112   2.228   3.418  17.191  1.1739  0.0190 -1.1079
10233TIP3   OH252113   2.760   0.164  16.845 -0.0196  0.0590  0.5011
10233TIP3    H152114   2.752   0.091  16.906  0.1093 -0.3552  0.0320
10233TIP3    H252115   2.689   0.224  16.869 -0.5890 -0.5736  0.4110
10234TIP3   OH252116   3.277   2.214   4.573 -0.1964 -0.2823 -0.0985
10234TIP3    H152117   3.361   2.169   4.571  0.5318  0.7874  2.9698
10234TIP3    H252118   3.230   2.181   4.497  2.4997 -1.8589 -1.1581
10235TIP3   OH252119   3.868   6.492   6.373  0.1816  0.2649 -0.4090
10235TIP3    H152120   3.863   6.581   6.407 -1.3832  0.8518 -2.1340
10235TIP3    H252121   3.940   6.494   6.310 -0.7248  0.6834 -1.4550
10236TIP3   OH252122   4.721   0.024   5.703 -0.0583  0.2829  0.6077
10236TIP3    H152123   4.792   0.051   5.645  0.4266  0.7934  1.4251
10236TIP3    H252124   4.764   0.009   5.787 -0.9825  0.9783  1.2069
10237TIP3   OH252125   5.487   1.015  12.463 -0.6175  0.3840  0.1197
10237TIP3    H152126   5.536   1.081  12.414 -0.7260 -0.7738 -1.6301
10237TIP3    H252127   5.401   1.055  12.476  0.5616  2.1896  2.6969
10238TIP3   OH252128   1.068   1.713  14.946  0.0215  0.1131  0.5800
10238TIP3    H152129   0.989   1.764  14.929 -0.9134 -0.6259  2.6803
10238TIP3    H252130   1.125   1.773  14.995 -0.0564 -0.0181  0.8327
10239TIP3   OH252131   0.780   4.623   5.323  0.1344 -0.2403  0.2337
10239TIP3    H152132   0.856   4.633   5.265 -0.0446  0.5115  0.1252
10239TIP3    H252133   0.757   4.713   5.347 -1.0789 -0.4342 -0.1999
10240TIP3   OH252134   1.573   2.304  14.729  0.5810  0.1653  0.1701
10240TIP3    H152135   1.660   2.336  14.751  1.2482 -2.1038  1.0400
10240TIP3    H252136   1.542   2.262  14.810 -1.1361  0.5606 -0.2553
10241TIP3   OH252137   0.003   1.399   2.554 -0.2400  0.0908 -0.3818
10241TIP3    H152138   0.052   1.459   2.612 -1.4152  0.1415  0.5705
10241TIP3    H252139  -0.069   1.367   2.608 -0.1304 -1.5153 -1.1701
10242TIP3   OH252140   1.094   6.258   0.771 -0.0011 -0.0743 -0.2115
10242TIP3    H152141   1.016   6.280   0.821  1.5270  0.1081  2.1764
10242TIP3    H252142   1.138   6.342   0.757  0.4060 -0.3242 -0.4380
10243TIP3   OH252143   3.661   5.985   2.900 -0.3143  0.4915  0.8018
10243TIP3    H152144   3.609   6.064   2.911  0.5693  0.7668  3.2292
10243TIP3    H252145   3.751   6.013   2.919  0.3624 -0.5595 -0.7343
10244TIP3   OH252146   2.923   5.714  13.502  0.1689  0.2167  1.3862
10244TIP3    H152147   2.938   5.641  13.442  2.5012  0.8565  1.1179
10244TIP3    H252148   2.833   5.741  13.485 -1.1119 -3.1897  2.1866
10245TIP3   OH252149   5.562   1.661  16.810 -0.0246 -0.3049 -0.3334
10245TIP3    H152150   5.528   1.656  16.720 -1.8638  0.2326  0.3177
10245TIP3    H252151   5.624   1.734  16.808 -2.5316  1.9206 -0.4213
10246TIP3   OH252152   6.413   3.938  13.379 -0.0722  0.2534 -0.0962
10246TIP3    H152153   6.378   4.027  13.383 -2.1279 -0.4936 -0.5111
10246TIP3    H252154   6.407   3.906  13.468 -2.7454 -0.6748 -0.5591
10247TIP3   OH252155   0.350   6.261   3.409 -0.3690 -0.4416  0.0064
10247TIP3    H152156   0.346   6.170   3.381 -2.5264  0.0138 -1.3196
10247TIP3    H252157   0.303   6.262   3.492 -3.7239  0.0349 -1.7939
10248TIP3   OH252158   4.863   0.169  13.651 -0.6436  0.1651  0.3905
10248TIP3    H152159   4.838   0.158  13.742 -1.4346  0.1467  0.1803
10248TIP3    H252160   4.956   0.190  13.653 -0.6149 -0.0453  1.1853
10249TIP3   OH252161   2.253   3.595  14.122  0.3699 -0.1760 -0.1268
10249TIP3    H152162   2.243   3.610  14.028 -1.3567 -0.3813 -0.0029
10249TIP3    H252163   2.328   3.648  14.147 -1.3990  2.8410 -0.9725
10250TIP3   OH252164   0.671   3.072   2.295  0.2763  0.5580  0.8652
10250TIP3    H152165   0.579   3.044   2.292  0.1113  0.9427  2.1567
10250TIP3    H252166   0.695   3.066   2.387  1.4095  0.9340  0.5985
10251TIP3   OH252167   1.673   2.159  14.414  0.3913  0.0618  0.5149
10251TIP3    H152168   1.732   2.201  14.476  1.9819  2.0974 -2.2563
10251TIP3    H252169   1.731   2.111  14.355 -1.1052 -2.1015  0.7641
10252TIP3   OH252170   3.933   4.895   1.647 -0.1816 -0.0675 -0.5346
10252TIP3    H152171   3.929   4.856   1.559  1.5382  1.0030 -1.1165
10252TIP3    H252172   4.027   4.894   1.669 -0.3168  1.9807  0.2227
10253TIP3   OH252173   3.640   4.704  17.017 -0.4353 -0.1163  0.1477
10253TIP3    H152174   3.579   4.774  16.993 -1.2889 -0.6584  0.7004
10253TIP3    H252175   3.669   4.727  17.105 -0.3584 -0.2121  0.1474
10254TIP3   OH252176   4.638   4.353   3.691  0.1339  0.1618 -0.3785
10254TIP3    H152177   4.701   4.363   3.762 -1.2712  2.4632  0.5800
10254TIP3    H252178   4.557   4.329   3.734 -0.2290 -0.5014 -1.4076
10255TIP3   OH252179   4.720   1.320  13.143 -0.9955 -0.4244  0.0506
10255TIP3    H152180   4.776   1.336  13.067 -0.1005 -0.2840  0.7281
10255TIP3    H252181   4.692   1.229  13.134 -1.6453 -0.1312 -0.9298
10256TIP3   OH252182   0.055   6.402  16.093 -0.3581 -0.2928 -0.3552
10256TIP3    H152183   0.015   6.358  16.168 -2.0562  2.5158  0.4462
10256TIP3    H252184   0.111   6.469  16.131 -1.7005  1.5627 -1.5634
10257TIP3   OH252185   5.801   4.566   0.504 -0.2298 -0.1925 -0.2386
10257TIP3    H152186   5.849   4.552   0.422 -0.3809  0.3384 -0.4161
10257TIP3    H252187   5.837   4.647   0.540  0.0320 -0.5700  0.3664
10258TIP3   OH252188   5.641   5.720  11.716  0.2538  0.5506 -0.4769
10258TIP3    H152189   5.683   5.641  11.750 -1.3477 -0.2340 -0.2650
10258TIP3    H252190   5.647   5.783  11.788  0.7814  0.3438 -0.3358
10259TIP3   OH252191   6.426   1.510   4.664  1.0433 -0.4870  0.1176
10259TIP3    H152192   6.496   1.482   4.721  0.8902  0.0849  0.5911
10259TIP3    H252193   6.346   1.478   4.706  0.8925  0.3600  0.4989
10260TIP3   OH252194   1.231   2.186   2.617 -0.4311  0.1947  0.4413
10260TIP3    H152195   1.313   2.223   2.583 -1.8093  3.1543  0.1788
10260TIP3    H252196   1.224   2.221   2.706 -2.4580  1.7955 -0.2996
10261TIP3   OH252197   4.025   3.003  13.257 -0.3079 -0.2065  0.2778
10261TIP3    H152198   4.035   2.908  13.252 -0.0473 -0.1852  0.3766
10261TIP3    H252199   3.970   3.026  13.182  1.2547 -0.2082 -0.9085
10262TIP3   OH252200   3.180   3.747   2.093  0.1418 -0.4041  0.5284
10262TIP3    H152201   3.193   3.691   2.169  2.6176  0.5497  0.8670
10262TIP3    H252202   3.263   3.742   2.045 -0.7584  0.3973 -1.1542
10263TIP3   OH252203   2.576   3.733   5.045 -0.4513  0.1250 -0.4299
10263TIP3    H152204   2.514   3.801   5.070  0.1964  0.1369  1.2063
10263TIP3    H252205   2.565   3.665   5.111  1.4942  0.2741  0.0749
10264TIP3   OH252206   1.244   4.934   2.900 -0.5286 -0.0713 -0.2618
10264TIP3    H152207   1.184   4.997   2.860 -0.2514  0.3992  0.0668
10264TIP3    H252208   1.188   4.861   2.927 -1.2263  1.1747  1.7415
10265TIP3   OH252209   5.060   3.146  10.531 -0.3977 -0.4193 -0.0656
10265TIP3    H152210   5.033   3.237  10.543  0.1865 -0.3419  0.6750
10265TIP3    H252211   5.014   3.098  10.600 -3.4250 -1.2391 -2.5650
10266TIP3   OH252212   6.161   3.554   2.709 -0.0606 -0.4677 -0.2866
10266TIP3    H152213   6.235   3.589   2.757  0.9253 -0.5992 -1.6644
10266TIP3    H252214   6.087   3.559   2.770  0.6252  1.5850  0.3989
10267TIP3   OH252215   6.568   2.598   3.113  0.2627 -0.3389  0.0396
10267TIP3    H152216   6.635   2.666   3.106  0.1077 -0.2395 -0.5081
10267TIP3    H252217   6.489   2.646   3.139  0.4735 -0.4975  0.9902
10268TIP3   OH252218   1.901   5.370  14.705  0.1310  0.0443  0.2935
10268TIP3    H152219   1.878   5.355  14.613 -0.9347  1.1445  0.3805
10268TIP3    H252220   1.986   5.327  14.715 -0.9346 -2.4025 -0.5294
10269TIP3   OH252221   0.332   1.219  13.132 -0.1654 -0.2432  0.4193
10269TIP3    H152222   0.347   1.284  13.201 -0.7048 -0.0378  0.3427
10269TIP3    H252223   0.398   1.239  13.066 -0.9576  0.8550 -0.0583
10270TIP3   OH252224   6.441   0.418   3.323  0.0727 -0.7815  0.3252
10270TIP3    H152225   6.466   0.490   3.265 -0.2804 -0.1629  0.9240
10270TIP3    H252226   6.372   0.455   3.378  0.5578 -1.2827  1.2847
10271TIP3   OH252227   4.527   6.299  12.876  0.0904 -0.0487  0.1461
10271TIP3    H152228   4.523   6.394  12.866  1.3371 -0.2475 -2.9977
10271TIP3    H252229   4.574   6.284  12.958  2.2928  2.0655 -0.6808
10272TIP3   OH252230   0.833   5.013   1.203 -0.1563 -0.0666 -0.5166
10272TIP3    H152231   0.758   5.001   1.145  0.5716 -3.0495 -0.9484
10272TIP3    H252232   0.908   4.984   1.152  1.2130  2.0625  0.2150
10273TIP3   OH252233   0.398   3.010  11.993  0.0560 -0.2584 -0.4331
10273TIP3    H152234   0.450   3.089  12.011 -1.8244  0.7544  0.6660
10273TIP3    H252235   0.373   2.978  12.079 -0.9499 -0.8744 -0.9532
10274TIP3   OH252236   1.477   2.114  12.540 -0.5716  0.2608 -0.3884
10274TIP3    H152237   1.537   2.189  12.533  0.0294 -0.1839 -0.0147
10274TIP3    H252238   1.408   2.145  12.599  0.4086  0.0590  0.9029
10275TIP3   OH252239   5.608   3.599  11.287 -0.0509 -0.0523  0.3609
10275TIP3    H152240   5.571   3.564  11.206 -0.9101 -1.9824  1.5256
10275TIP3    H252241   5.532   3.631  11.336  0.1879 -0.9773  1.3527
10276TIP3   OH252242   6.164   0.961  16.550 -0.0112  0.4272  0.1375
10276TIP3    H152243   6.137   1.009  16.473 -1.0635 -1.1857 -0.5215
10276TIP3    H252244   6.231   1.017  16.591 -0.1885  1.7625 -1.3523
10277TIP3   OH252245   5.764   4.182   4.610 -0.1523 -0.3157  0.3083
10277TIP3    H152246   5.847   4.151   4.574 -0.1161 -0.9862  0.9528
10277TIP3    H252247   5.789   4.238   4.684 -0.2962 -2.0344  1.6946
10278TIP3   OH252248   3.493   0.701  12.322 -0.1233 -1.1935  0.0271
10278TIP3    H152249   3.507   0.796  12.327 -1.4982 -1.0163  0.8655
10278TIP3    H252250   3.398   0.692  12.311  0.1355 -2.4478 -1.2405
10279TIP3   OH252251   3.927   4.513  13.520 -0.0916  0.1160 -0.0807
10279TIP3    H152252   3.998   4.545  13.466  1.4680 -0.4263  1.5944
10279TIP3    H252253   3.858   4.490  13.458  1.1621  0.6890 -1.7246
10280TIP3   OH252254   6.196   1.772  15.517  0.1436 -0.4678  0.2672
10280TIP3    H152255   6.160   1.822  15.590  1.6056  0.2692  0.4906
10280TIP3    H252256   6.136   1.698  15.507 -0.6188 -0.0423  1.5680
10281TIP3   OH252257   5.384   6.016   5.431 -0.0644 -0.1253 -0.5890
10281TIP3    H152258   5.314   5.981   5.375 -1.4992 -0.7670  1.5145
10281TIP3    H252259   5.361   6.108   5.443 -0.7605 -0.3997  0.3279
10282TIP3   OH252260   1.079   2.174   3.655  0.3152  0.7402  0.0008
10282TIP3    H152261   1.059   2.246   3.596  0.3596 -0.9012 -2.0720
10282TIP3    H252262   1.139   2.119   3.606  0.8634 -0.3236  1.8365
10283TIP3   OH252263   2.524   6.193  16.293 -0.3420 -0.1080  0.2321
10283TIP3    H152264   2.532   6.263  16.227 -0.6689  0.2513  0.5673
10283TIP3    H252265   2.560   6.231  16.373 -0.5735 -0.3048  0.4298
10284TIP3   OH252266   3.186   4.495  14.064 -0.0106  0.1751 -0.2649
10284TIP3    H152267   3.221   4.564  14.120 -4.2113  0.6450  1.8918
10284TIP3    H252268   3.182   4.418  14.120  2.5415 -1.3705 -2.0511
10285TIP3   OH252269   4.244   3.813  11.509  0.2391  0.2470 -0.4485
10285TIP3    H152270   4.245   3.776  11.421  0.6118  0.7447 -0.6548
10285TIP3    H252271   4.161   3.860  11.514  0.0492 -0.0915 -0.4031
10286TIP3   OH252272   0.821   4.140   0.164 -0.1099 -0.0285  0.7792
10286TIP3    H152273   0.742   4.108   0.120  0.0660  4.1699 -2.9377
10286TIP3    H252274   0.788   4.193   0.236 -0.5691 -0.9249  1.2406
10287TIP3   OH252275   5.074   0.931  13.817  0.0761  0.7321  0.7195
10287TIP3    H152276   5.105   0.864  13.756  0.6168  0.1283  1.6466
10287TIP3    H252277   5.085   1.013  13.769 -1.9941  0.0594 -1.0027
10288TIP3   OH252278   0.883   1.027  14.753  0.2746 -0.1767 -0.3829
10288TIP3    H152279   0.882   1.079  14.672 -0.6488 -0.9774 -0.8947
10288TIP3    H252280   0.976   1.021  14.776  0.3389  2.3000  0.0869
10289TIP3   OH252281   0.814   3.112  14.265  0.1266 -0.1340 -0.0477
10289TIP3    H152282   0.727   3.084  14.237 -0.3049  0.3066  0.8033
10289TIP3    H252283   0.818   3.204  14.239 -0.7385  0.6173  2.3061
10290TIP3   OH252284   0.915   4.781   4.390 -0.1613  0.1563 -0.1892
10290TIP3    H152285   0.914   4.791   4.485  0.1400  1.6273 -0.3288
10290TIP3    H252286   0.938   4.868   4.357  2.3498 -0.9605 -1.5149
10291TIP3   OH252287   4.170   1.510  15.907  0.4034 -0.0059  0.4254
10291TIP3    H152288   4.255   1.503  15.865 -0.5809  1.6375 -1.9475
10291TIP3    H252289   4.184   1.569  15.981  1.3808 -0.0304  0.2640
10292TIP3   OH252290   1.239   4.902   4.598  0.0243 -0.1451 -0.3339
10292TIP3    H152291   1.170   4.894   4.664 -0.4066  1.3745 -0.5779
10292TIP3    H252292   1.312   4.852   4.634 -1.3942 -2.3008 -0.3532
10293TIP3   OH252293   6.674   1.150  11.857  0.6905  0.5732  0.2845
10293TIP3    H152294   6.671   1.202  11.938  0.1297 -1.9090  1.9046
10293TIP3    H252295   6.746   1.089  11.872  1.5270  1.0386 -1.7234
10294TIP3   OH252296   3.454   6.782  14.890  0.4693  0.0919  0.5544
10294TIP3    H152297   3.391   6.787  14.818  2.2585 -0.9605 -1.1135
10294TIP3    H252298   3.470   6.688  14.902  2.6070  0.3639  0.1193
10295TIP3   OH252299   4.773   1.633   3.480 -0.2286  0.3672 -0.1098
10295TIP3    H152300   4.811   1.555   3.438 -0.8612  0.8458 -1.6041
10295TIP3    H252301   4.681   1.631   3.455 -0.6144  0.6735  1.2756
10296TIP3   OH252302   5.468   3.215   3.669 -0.1867 -0.1158 -0.7999
10296TIP3    H152303   5.433   3.240   3.755  0.7684  2.5156 -1.1078
10296TIP3    H252304   5.534   3.282   3.650  0.8973 -1.6879 -2.7935
10297TIP3   OH252305   6.528   0.170   2.737  0.1708 -0.3283  0.5641
10297TIP3    H152306   6.554   0.094   2.789  1.0507 -1.3790 -1.3858
10297TIP3    H252307   6.588   0.240   2.765  0.1875 -0.6843  1.4333
10298TIP3   OH252308   3.695   1.732   3.669 -0.0338 -0.0815 -0.0039
10298TIP3    H152309   3.620   1.791   3.682  0.1408  0.0066  0.6368
10298TIP3    H252310   3.665   1.648   3.703  0.7315  0.3647  1.8446
10299TIP3   OH252311   4.241   1.299  12.904  0.0338 -0.3648  0.4162
10299TIP3    H152312   4.279   1.361  12.966 -0.0253 -0.8470  0.9321
10299TIP3    H252313   4.148   1.319  12.903  0.1297  0.0815 -0.0193
10300TIP3   OH252314   1.755   6.477  17.042 -0.0640  0.0915 -0.7090
10300TIP3    H152315   1.808   6.547  17.004  0.0248  0.0229 -0.7157
10300TIP3    H252316   1.781   6.399  16.993 -0.3775  0.1076 -0.9017
10301TIP3   OH252317   2.406   4.682  12.137  0.6819 -0.0269  0.1608
10301TIP3    H152318   2.382   4.660  12.227 -0.6923  1.9309  0.3038
10301TIP3    H252319   2.322   4.703  12.095  1.3173 -0.8470 -1.5616
10302TIP3   OH252320   4.835   4.263  11.317 -0.4287  0.4068  0.2767
10302TIP3    H152321   4.918   4.288  11.277 -0.5068 -1.9018 -1.3587
10302TIP3    H252322   4.768   4.291  11.254 -0.6388 -1.7370 -0.4689
10303TIP3   OH252323   0.644   4.750   0.837  0.3223  0.4063  0.1746
10303TIP3    H152324   0.699   4.709   0.771  0.0461  0.9080 -0.3731
10303TIP3    H252325   0.555   4.744   0.801  0.4146  2.5262 -0.4525
10304TIP3   OH252326   1.908   1.292  15.863 -0.1826 -0.4777 -0.2828
10304TIP3    H152327   1.951   1.210  15.841 -0.1446 -0.6197  0.3139
10304TIP3    H252328   1.823   1.266  15.898 -0.0463 -0.2825  0.2049
10305TIP3   OH252329   1.534   2.250   3.000  0.5192  0.5181 -0.2049
10305TIP3    H152330   1.563   2.186   2.936  2.2710  1.5260 -0.4565
10305TIP3    H252331   1.591   2.236   3.076 -0.4925  0.3732  0.5358
10306TIP3   OH252332   1.429   2.879   5.317  0.1508 -0.3045  0.1416
10306TIP3    H152333   1.458   2.965   5.288  0.8887  0.2697  2.4392
10306TIP3    H252334   1.337   2.874   5.291  0.8817 -0.0245 -2.6044
10307TIP3   OH252335   1.446   4.767   2.795  0.1054  0.2379  0.2659
10307TIP3    H152336   1.382   4.836   2.813 -0.5620 -1.0522  3.0842
10307TIP3    H252337   1.396   4.686   2.798  1.9616 -0.9072  3.7330
10308TIP3   OH252338   0.480   0.091  16.066 -0.7600  0.2628  0.0194
10308TIP3    H152339   0.557   0.079  16.010 -0.1474 -1.4882  1.1794
10308TIP3    H252340   0.508   0.157  16.130 -0.6382  0.4956 -0.2680
10309TIP3   OH252341   0.181   2.638  13.170 -0.8339 -0.0423 -0.0770
10309TIP3    H152342   0.132   2.556  13.167 -0.6568 -0.1079 -1.6703
10309TIP3    H252343   0.178   2.664  13.262  1.4330 -3.2371  1.0170
10310TIP3   OH252344   4.810   3.191   2.432 -0.2528 -0.0721 -0.4741
10310TIP3    H152345   4.717   3.168   2.420 -0.4404  0.1446  0.5817
10310TIP3    H252346   4.853   3.107   2.446 -0.4932 -0.0616  0.3626
10311TIP3   OH252347   5.572   4.827  16.709 -0.2693 -0.1224  0.2016
10311TIP3    H152348   5.604   4.916  16.715  0.2432 -0.2127 -0.9434
10311TIP3    H252349   5.542   4.805  16.797  1.5578  0.4428  0.9795
10312TIP3   OH252350   4.100   6.733  11.548 -0.1723 -0.0408  0.3504
10312TIP3    H152351   4.085   6.823  11.576  0.8008  0.1776  0.1666
10312TIP3    H252352   4.141   6.691  11.624  1.0050  0.1358 -0.1875
10313TIP3   OH252353   6.172   2.642  13.199 -0.0059 -0.2408 -0.5048
10313TIP3    H152354   6.237   2.712  13.206 -0.7709  0.3345  1.1547
10313TIP3    H252355   6.111   2.659  13.271 -0.3327 -2.4753 -0.2148
10314TIP3   OH252356   3.111   3.954  16.787 -0.0708 -0.1446 -0.0195
10314TIP3    H152357   3.193   3.971  16.834 -0.0131  1.9113 -0.8214
10314TIP3    H252358   3.135   3.953  16.695 -0.9638  0.6898 -0.2758
10315TIP3   OH252359   0.716   4.811   6.083  0.0110  0.7346  0.2116
10315TIP3    H152360   0.800   4.775   6.112 -0.2566  1.6876  2.2097
10315TIP3    H252361   0.685   4.862   6.157 -1.6493  1.5904 -1.0572
10316TIP3   OH252362   2.077   5.413  15.944  0.0851  0.2386  0.6865
10316TIP3    H152363   2.084   5.318  15.954  1.4858  0.0410 -1.6402
10316TIP3    H252364   2.123   5.449  16.019  0.8552 -0.9454  0.7977
10317TIP3   OH252365   5.337   2.405   2.889 -0.1121  0.6455 -0.6685
10317TIP3    H152366   5.388   2.325   2.903 -0.3558  0.0355 -3.0485
10317TIP3    H252367   5.400   2.476   2.898  0.3907  0.1157  0.0600
10318TIP3   OH252368   0.063   3.251  13.537 -0.4504  0.4825 -0.1508
10318TIP3    H152369   0.093   3.312  13.604 -0.0811  1.1437 -0.9037
10318TIP3    H252370   0.104   3.282  13.456 -1.2443 -0.0366 -0.7646
10319TIP3   OH252371   2.821   3.579   1.347 -0.1990  0.3079 -0.1812
10319TIP3    H152372   2.786   3.664   1.320  1.4986  0.8635 -0.6649
10319TIP3    H252373   2.835   3.531   1.266 -2.0146 -0.8166  0.1284
10320TIP3   OH252374   5.485   6.601   2.021 -0.7419  0.0779  0.1532
10320TIP3    H152375   5.573   6.564   2.018 -0.5965  0.4475 -0.1769
10320TIP3    H252376   5.492   6.678   2.077 -0.3323  1.4602 -1.7343
10321TIP3   OH252377   5.349   3.844  10.619 -0.1067  0.8244  0.0408
10321TIP3    H152378   5.393   3.920  10.581  1.1618  1.0460  1.8561
10321TIP3    H252379   5.412   3.810  10.683  0.4963 -3.4507 -2.6569
10322TIP3   OH252380   1.818   4.197  15.625  0.0633  0.5861 -0.7701
10322TIP3    H152381   1.859   4.185  15.711  1.5088  0.7876 -1.4123
10322TIP3    H252382   1.730   4.162  15.636  1.4103 -2.8367 -0.2470
10323TIP3   OH252383   6.351   6.381  13.740 -0.1056  0.7667  0.2863
10323TIP3    H152384   6.307   6.364  13.824 -0.7468 -1.2797 -0.4338
10323TIP3    H252385   6.433   6.332  13.746  0.8108  2.2877  0.5062
10324TIP3   OH252386   1.345   5.832  15.100 -0.0438  0.1974  0.0450
10324TIP3    H152387   1.278   5.809  15.035  1.0274  0.3816 -1.1447
10324TIP3    H252388   1.417   5.869  15.049  1.5652 -1.2786  1.1383
10325TIP3   OH252389   0.533   1.243  11.688 -0.1679  0.5864 -0.4728
10325TIP3    H152390   0.584   1.203  11.758 -1.7123 -0.0079  0.3262
10325TIP3    H252391   0.596   1.300  11.642  1.3528 -0.5945  0.0999
10326TIP3   OH252392   5.137   4.394  15.904  0.4772 -0.0968  0.2910
10326TIP3    H152393   5.185   4.319  15.939  1.0222 -0.5245 -1.3065
10326TIP3    H252394   5.108   4.365  15.817  0.5774  1.4854 -0.2923
10327TIP3   OH252395   4.507   4.071   3.803 -0.1539 -0.1558 -0.4210
10327TIP3    H152396   4.602   4.076   3.808 -0.1232 -1.0701  0.0472
10327TIP3    H252397   4.476   4.112   3.884 -0.1273 -0.5994 -0.1828
10328TIP3   OH252398   2.221   3.697   2.405 -0.2421 -0.5055 -0.8532
10328TIP3    H152399   2.274   3.655   2.336  1.8146  1.8703 -0.7929
10328TIP3    H252400   2.284   3.749   2.454 -2.2373  0.2427  0.9413
10329TIP3   OH252401   6.591   2.594   4.156 -0.9478  0.6446  0.0687
10329TIP3    H152402   6.668   2.606   4.212 -0.2144  2.2396 -1.2599
10329TIP3    H252403   6.517   2.614   4.213 -0.4130 -0.9119  1.3594
10330TIP3   OH252404   4.920   6.659   2.774 -0.1273  0.4438  0.2467
10330TIP3    H152405   4.940   6.658   2.868  0.8990  0.1497  0.0369
10330TIP3    H252406   5.003   6.684   2.733 -0.3395 -0.2895 -0.6368
10331TIP3   OH252407   6.236   1.039  14.704  0.3321 -0.2678  0.0627
10331TIP3    H152408   6.306   0.977  14.682  0.2149 -0.3453 -0.0912
10331TIP3    H252409   6.277   1.100  14.765  1.3850  1.4091 -2.2411
10332TIP3   OH252410   1.346   3.870   2.784  0.7507  0.3095 -0.0604
10332TIP3    H152411   1.319   3.788   2.826  0.4077  1.5537  2.2596
10332TIP3    H252412   1.418   3.902   2.838  0.0274  2.1861 -0.1698
10333TIP3   OH252413   4.863   5.992   4.202 -0.0567 -0.0223 -0.1704
10333TIP3    H152414   4.878   5.925   4.136  0.9016  0.2242 -0.2124
10333TIP3    H252415   4.808   6.057   4.158  0.0362 -0.1776 -0.5175
10334TIP3   OH252416   1.996   6.727   4.710  0.2316 -0.7440 -0.1271
10334TIP3    H152417   2.061   6.794   4.689  1.2049 -1.6744 -0.1399
10334TIP3    H252418   2.048   6.647   4.723 -0.7261 -1.0905  1.6929
10335TIP3   OH252419   4.834   3.383  12.586  0.2715 -0.5822 -0.6867
10335TIP3    H152420   4.743   3.363  12.563  0.2693  0.8123 -1.9711
10335TIP3    H252421   4.886   3.335  12.522  0.4375 -1.1649 -0.1203
10336TIP3   OH252422   6.575   0.375   6.128 -0.0146  0.0543  0.2216
10336TIP3    H152423   6.618   0.320   6.063 -1.1540  1.5001 -1.8038
10336TIP3    H252424   6.514   0.317   6.173 -0.7355 -0.4976 -1.4431
10337TIP3   OH252425   3.141   2.554  16.064  0.2156 -0.6978  0.5267
10337TIP3    H152426   3.126   2.577  15.972  0.2716 -0.2613  0.6260
10337TIP3    H252427   3.169   2.462  16.062  0.4233 -0.6260  0.0932
10338TIP3   OH252428   4.448   0.988  12.315 -0.1950  0.2787 -0.0084
10338TIP3    H152429   4.408   1.039  12.244  0.3238 -0.2593 -0.6950
10338TIP3    H252430   4.485   1.055  12.373  1.6040  0.7015 -1.5616
10339TIP3   OH252431   0.834   0.974  15.236  0.2503 -0.8503  0.0371
10339TIP3    H152432   0.871   1.058  15.208  0.4961 -1.0609 -0.2683
10339TIP3    H252433   0.763   0.998  15.295 -1.0804 -0.3705 -1.7329
10340TIP3   OH252434   5.444   5.013   1.239  0.3799 -0.4138  0.1305
10340TIP3    H152435   5.385   5.004   1.164  1.0245  1.3326 -0.6177
10340TIP3    H252436   5.416   5.094   1.282  0.3140 -1.1588  1.5191
10341TIP3   OH252437   3.824   5.459  10.779  0.3590  0.4892 -0.5689
10341TIP3    H152438   3.732   5.471  10.802  0.4503  1.2974 -0.6034
10341TIP3    H252439   3.834   5.501  10.694  0.1862 -1.8981 -1.8219
10342TIP3   OH252440   1.226   4.417  13.522  0.5588 -0.0938  0.6348
10342TIP3    H152441   1.212   4.508  13.499 -1.8049 -0.1300  1.7699
10342TIP3    H252442   1.181   4.367  13.454 -1.6463 -0.3023  2.1928
10343TIP3   OH252443   5.591   0.063  14.349  0.0861 -0.6207 -0.3015
10343TIP3    H152444   5.542   0.096  14.274 -0.6706 -0.1084  0.4054
10343TIP3    H252445   5.536  -0.007  14.385 -0.3440  0.2412  0.7449
10344TIP3   OH252446   6.725   5.169   2.490 -0.4862  0.0672 -0.3099
10344TIP3    H152447   6.656   5.229   2.463 -1.0103 -0.1170  0.6084
10344TIP3    H252448   6.705   5.148   2.581 -0.6887 -2.0024 -0.8000
10345TIP3   OH252449   1.095   4.666   1.731  0.3838 -0.1475 -0.5816
10345TIP3    H152450   1.169   4.654   1.670  0.7009 -1.5108  0.0598
10345TIP3    H252451   1.129   4.727   1.796  1.1076 -1.1101 -0.0429
10346TIP3   OH252452   0.500   4.251  17.027  0.1654  0.1915  0.0129
10346TIP3    H152453   0.536   4.340  17.032 -0.6160  0.5615 -0.7110
10346TIP3    H252454   0.575   4.194  17.042  0.9148  0.9575 -0.7635
10347TIP3   OH252455   0.018   2.731  15.103  0.0251  0.6147  0.2054
10347TIP3    H152456   0.030   2.648  15.148 -2.8886  0.6984  1.2780
10347TIP3    H252457  -0.054   2.773  15.150  0.1214  2.8628 -1.5584
10348TIP3   OH252458   6.508   1.788  13.355 -0.0650  0.4023 -0.4504
10348TIP3    H152459   6.555   1.792  13.438 -1.9112  1.6130  0.5776
10348TIP3    H252460   6.544   1.711  13.311  1.4860  0.1844  1.1303
10349TIP3   OH252461   1.065   3.110   0.111  0.0529 -0.0950  0.4957
10349TIP3    H152462   1.079   3.023   0.149 -1.1290  0.4409  2.1708
10349TIP3    H252463   0.970   3.121   0.109  0.1510  0.6624 -0.8819
10350TIP3   OH252464   5.193   4.564  11.728  0.6797  0.1905  0.3777
10350TIP3    H152465   5.185   4.644  11.677 -1.7173  0.6602  1.3965
10350TIP3    H252466   5.259   4.512  11.682  0.4244  1.6754 -1.7316
10351TIP3   OH252467   0.276   2.992   3.058 -0.1377 -0.4056  0.0075
10351TIP3    H152468   0.219   2.994   3.136 -1.6388 -2.1494 -1.0226
10351TIP3    H252469   0.362   2.968   3.092 -0.3985  0.4780  1.3431
10352TIP3   OH252470   2.826   4.947  12.462 -0.2713 -0.3157  0.4478
10352TIP3    H152471   2.883   4.878  12.496 -1.6196 -2.1606 -0.8845
10352TIP3    H252472   2.753   4.950  12.524  0.7639  1.3794  1.6265
10353TIP3   OH252473   3.180   0.688  16.871  0.0625  0.2515 -0.7027
10353TIP3    H152474   3.133   0.648  16.945 -0.5159  1.2909 -0.5080
10353TIP3    H252475   3.208   0.613  16.818  0.5373 -0.5160  0.5984
10354TIP3   OH252476   4.534   4.866  15.142 -0.3958  0.5005 -0.7983
10354TIP3    H152477   4.586   4.905  15.072 -0.7323  0.6745 -0.9512
10354TIP3    H252478   4.444   4.887  15.119 -0.3993  2.2095  0.6926
10355TIP3   OH252479   3.335   3.673  12.997 -0.2261  0.0338  0.7118
10355TIP3    H152480   3.415   3.722  12.981 -1.1537  2.0938  2.1863
10355TIP3    H252481   3.283   3.684  12.918 -0.1578  0.8990  0.7840
10356TIP3   OH252482   3.139   0.537   0.212 -0.0012  0.5885  0.0795
10356TIP3    H152483   3.082   0.614   0.219  0.2412  0.6728  1.1575
10356TIP3    H252484   3.098   0.472   0.269 -0.8231 -0.4818 -1.6720
10357TIP3   OH252485   0.710   6.763  15.941  0.3309  0.3338  0.4332
10357TIP3    H152486   0.748   6.696  15.884  0.8553  0.2506  0.8745
10357TIP3    H252487   0.756   6.844  15.918 -0.0425  0.4681  0.1586
10358TIP3   OH252488   6.672   0.061   0.349 -0.0905  0.3333  0.7958
10358TIP3    H152489   6.606   0.127   0.371  0.9107  1.1480  1.3857
10358TIP3    H252490   6.740   0.072   0.416  1.3258  0.4530 -0.6470
10359TIP3   OH252491   4.350   1.161  15.728  0.2670  0.0345  0.1018
10359TIP3    H152492   4.385   1.118  15.650 -2.3877 -0.1130 -1.0477
10359TIP3    H252493   4.301   1.093  15.774 -1.1754  0.9937  0.0083
10360TIP3   OH252494   1.981   5.061  14.391 -0.2912  0.4065 -0.5845
10360TIP3    H152495   2.056   5.107  14.427  0.6787 -2.5337  1.3645
10360TIP3    H252496   2.011   4.971  14.379 -3.6232 -1.0095  0.8032
10361TIP3   OH252497   3.668   4.882   6.169 -0.0326 -0.0380 -0.6879
10361TIP3    H152498   3.734   4.836   6.118  0.0638 -0.5782 -0.0774
10361TIP3    H252499   3.697   4.874   6.260 -1.5802 -1.3661 -0.2896
10362TIP3   OH252500   6.248   4.488  16.417 -0.0470  0.5493 -0.5167
10362TIP3    H152501   6.258   4.412  16.474 -1.7090 -0.2376 -1.2603
10362TIP3    H252502   6.157   4.515  16.428  0.0511  1.3645 -1.6005
10363TIP3   OH252503   6.351   5.199  14.313 -0.6549  0.2451 -0.5108
10363TIP3    H152504   6.422   5.175  14.253 -0.0733  1.4510 -0.3388
10363TIP3    H252505   6.312   5.277  14.273 -1.3582  0.0679 -0.1758
10364TIP3   OH252506   5.501   3.911   4.139  0.0168 -0.0048  0.0696
10364TIP3    H152507   5.447   3.840   4.174 -1.3561  0.1000 -1.7658
10364TIP3    H252508   5.528   3.961   4.216  0.0093 -1.8210  1.2747
10365TIP3   OH252509   1.348   2.449   4.090  0.4394 -0.1457  0.2533
10365TIP3    H152510   1.352   2.462   4.185  1.7470 -1.0006  0.3123
10365TIP3    H252511   1.405   2.375   4.073 -0.2488 -0.3707 -1.1473
10366TIP3   OH252512   2.441   5.920   0.354  0.0078  0.0251 -0.3623
10366TIP3    H152513   2.400   5.876   0.428 -0.7179  0.6817 -0.3585
10366TIP3    H252514   2.515   5.865   0.330 -0.8499 -1.1611 -0.3254
10367TIP3   OH252515   0.413   4.235  13.651 -0.5592  0.4833  0.7313
10367TIP3    H152516   0.408   4.142  13.628 -0.7873  0.4569  0.8931
10367TIP3    H252517   0.501   4.246  13.687 -0.7225  0.2171  1.2179
10368TIP3   OH252518   3.900   5.903   2.746  0.8005 -0.2540  0.5252
10368TIP3    H152519   3.917   5.891   2.839  1.0877 -2.3297  0.2343
10368TIP3    H252520   3.816   5.948   2.742 -0.0395 -1.7032  1.7490
10369TIP3   OH252521   4.890   6.652   0.972  0.0950  0.2107 -0.7075
10369TIP3    H152522   4.905   6.747   0.980 -0.2101  0.0495  2.3230
10369TIP3    H252523   4.949   6.613   1.036 -2.2691 -1.4222  0.5346
10370TIP3   OH252524   0.233   0.575  13.810 -0.1696  0.1222  0.4775
10370TIP3    H152525   0.316   0.530  13.824  1.1803  2.3467 -0.0494
10370TIP3    H252526   0.169   0.505  13.797  1.9970 -1.5852 -1.2545
10371TIP3   OH252527   2.621   6.289  16.990  0.9732 -0.3423  0.1859
10371TIP3    H152528   2.569   6.325  16.919  0.7007 -0.4298  0.3388
10371TIP3    H252529   2.711   6.294  16.959  0.8560 -0.3645 -0.1580
10372TIP3   OH252530   4.336   5.038  13.719 -0.2068  0.1833  0.6173
10372TIP3    H152531   4.317   5.074  13.806 -0.9983  2.0337 -0.2849
10372TIP3    H252532   4.419   4.993  13.729  0.6085  1.9258  1.9210
10373TIP3   OH252533   2.845   1.676   3.015  0.1444  0.1395 -0.5290
10373TIP3    H152534   2.868   1.767   3.034  0.2921 -0.1488  0.7113
10373TIP3    H252535   2.774   1.683   2.951 -0.7689  1.1597  0.5714
10374TIP3   OH252536   0.736   2.108  16.964  0.0577  0.0952  0.5677
10374TIP3    H152537   0.642   2.127  16.969 -0.4057 -0.9538 -2.4494
10374TIP3    H252538   0.779   2.188  16.992 -1.7656  1.3812 -0.2187
10375TIP3   OH252539   4.063   3.763   4.717 -0.1144 -0.7141  0.0206
10375TIP3    H152540   4.000   3.791   4.783 -1.9050 -0.5034 -1.7510
10375TIP3    H252541   4.069   3.668   4.728  0.0213 -0.6135  0.8390
10376TIP3   OH252542   3.526   4.515   4.716 -0.2064 -0.3290 -0.2107
10376TIP3    H152543   3.588   4.466   4.662  0.5916 -0.6336  0.9690
10376TIP3    H252544   3.497   4.453   4.782 -2.0385 -0.2904 -0.9238
10377TIP3   OH252545   2.888   5.020   2.452 -0.0078  0.7489  0.2165
10377TIP3    H152546   2.832   4.944   2.437 -0.3686  0.3601  3.1788
10377TIP3    H252547   2.865   5.080   2.381 -1.1864 -1.0645 -0.9986
10378TIP3   OH252548   0.038   3.742   4.034 -0.0686  0.0982  0.1163
10378TIP3    H152549   0.057   3.742   3.941 -2.2901  0.2041 -0.3589
10378TIP3    H252550   0.041   3.834   4.060  0.8175  0.0466  0.2340
10379TIP3   OH252551   5.180   0.551  16.750  0.1594 -0.3069 -0.1467
10379TIP3    H152552   5.259   0.507  16.718  0.0287 -0.1460 -0.7120
10379TIP3    H252553   5.113   0.528  16.686 -0.2514 -0.4413  0.3309
10380TIP3   OH252554   3.636   3.545   0.345  0.3496 -0.7654  0.0163
10380TIP3    H152555   3.693   3.597   0.288  0.7122 -1.4663 -0.2629
10380TIP3    H252556   3.547   3.566   0.316  0.5322 -1.0923 -0.7852
10381TIP3   OH252557   5.044   1.340  12.027 -0.0763 -0.0665 -0.4198
10381TIP3    H152558   4.954   1.317  12.048  0.5118 -0.3131  1.9832
10381TIP3    H252559   5.083   1.258  11.996 -0.1461 -0.4239  0.4325
10382TIP3   OH252560   1.461   4.978  17.099 -0.3715  0.2988  0.8348
10382TIP3    H152561   1.556   4.976  17.110 -0.2346 -2.0839 -0.4730
10382TIP3    H252562   1.445   5.053  17.042  0.8512 -0.1418 -0.1049
10383TIP3   OH252563   4.157   0.969  11.185 -0.6473 -0.2490 -0.0097
10383TIP3    H152564   4.135   1.062  11.194 -1.3404 -0.3245 -0.8767
10383TIP3    H252565   4.088   0.923  11.233  0.0118 -0.2958  0.9040
10384TIP3   OH252566   4.345   3.542   0.894  0.4460  0.4064  0.3473
10384TIP3    H152567   4.295   3.502   0.823  0.0992 -0.1358  0.8838
10384TIP3    H252568   4.437   3.534   0.867  0.3389 -0.1814  0.1538
10385TIP3   OH252569   5.702   3.868   3.472  0.3852  0.0838  0.1582
10385TIP3    H152570   5.644   3.800   3.506 -0.6981  0.3192 -1.2034
10385TIP3    H252571   5.678   3.947   3.520 -0.9058  0.3384 -0.8792
10386TIP3   OH252572   0.300   1.867   3.805  0.2539 -0.0833  0.7692
10386TIP3    H152573   0.379   1.816   3.790  1.1896  1.2169  1.2428
10386TIP3    H252574   0.229   1.803   3.795  1.1674 -0.7319 -2.3697
10387TIP3   OH252575   0.678   1.056  14.482  0.2422 -0.3021  0.0187
10387TIP3    H152576   0.699   1.132  14.536 -0.0872  0.1558 -0.4902
10387TIP3    H252577   0.763   1.026  14.448  0.4346 -0.5120  0.6767
10388TIP3   OH252578   3.699   6.292  12.921  0.1545 -0.0980 -0.4063
10388TIP3    H152579   3.655   6.331  12.996  3.0070  1.2621  0.6198
10388TIP3    H252580   3.727   6.206  12.952 -1.8655 -1.0365 -1.1170
10389TIP3   OH252581   0.973   2.026  12.750  0.1651  0.2248 -0.0492
10389TIP3    H152582   0.920   2.086  12.802  0.7738  1.1185 -0.4496
10389TIP3    H252583   0.934   2.029  12.662 -0.5439 -0.8872  0.2153
10390TIP3   OH252584   4.528   2.151  16.225 -0.1127  0.0207 -0.3435
10390TIP3    H152585   4.586   2.190  16.291 -1.5919  0.5025  0.7016
10390TIP3    H252586   4.579   2.151  16.145  1.6705 -0.4002  0.7595
10391TIP3   OH252587   3.344   2.647  13.206  0.4187 -0.1289  0.1882
10391TIP3    H152588   3.261   2.605  13.183 -1.1595  1.4499  2.7612
10391TIP3    H252589   3.392   2.579  13.254  0.0854 -0.6458 -0.1991
10392TIP3   OH252590   0.535   1.298  12.942 -0.3728 -0.4962  0.0381
10392TIP3    H152591   0.623   1.329  12.964 -0.8364 -0.0084  1.2671
10392TIP3    H252592   0.545   1.254  12.857  1.2365 -1.2774  0.6113
10393TIP3   OH252593   6.505   0.069  16.011  0.4520  0.3749 -0.6067
10393TIP3    H152594   6.468   0.005  15.950  0.4920 -3.1636  2.9206
10393TIP3    H252595   6.565   0.019  16.066 -0.0684  3.2658  2.7825
10394TIP3   OH252596   4.280   2.171   2.895 -0.2118 -0.0573  0.2032
10394TIP3    H152597   4.252   2.170   2.803  2.0922 -0.0798 -0.5204
10394TIP3    H252598   4.314   2.083   2.911 -1.0972 -0.2185  1.2472
10395TIP3   OH252599   5.668   1.968  11.916 -0.1033  0.4741  0.3897
10395TIP3    H152600   5.751   1.949  11.872 -0.3338  1.0424 -0.3029
10395TIP3    H252601   5.615   1.889  11.901  0.3790  0.0184  1.0231
10396TIP3   OH252602   1.464   2.177  11.585  0.2043 -0.2917  0.4926
10396TIP3    H152603   1.452   2.124  11.506 -0.8775  0.1909  0.3310
10396TIP3    H252604   1.382   2.224  11.595  0.1132 -0.7888  2.2439
10397TIP3   OH252605   4.010   2.324  13.147 -0.1080 -0.0131 -0.5759
10397TIP3    H152606   4.046   2.330  13.058  0.1880  1.6520 -0.3589
10397TIP3    H252607   4.081   2.354  13.204  0.4662 -3.1457  0.4363
10398TIP3   OH252608   3.220   5.068  15.573  0.3843 -0.1258 -0.6033
10398TIP3    H152609   3.276   5.115  15.511  0.4936  1.5113  0.6949
10398TIP3    H252610   3.247   5.101  15.659 -0.0608 -2.0377  0.3040
10399TIP3   OH252611   2.491   0.720  11.814  0.4673 -0.4301  0.3276
10399TIP3    H152612   2.565   0.778  11.828 -0.1087  0.0044  1.7024
10399TIP3    H252613   2.518   0.663  11.743  1.6583  0.4892  0.0258
10400TIP3   OH252614   6.652   5.465   1.770 -0.4184  0.6227  0.2485
10400TIP3    H152615   6.650   5.371   1.750  0.4983  0.5059  0.6933
10400TIP3    H252616   6.727   5.476   1.828  1.2227  2.0570 -2.0426
10401TIP3   OH252617   1.865   0.919  14.119  0.3019 -0.4779 -0.2030
10401TIP3    H152618   1.779   0.924  14.078 -1.3355 -0.3014  3.1467
10401TIP3    H252619   1.877   0.826  14.138  0.1535 -0.3046  0.7515
10402TIP3   OH252620   4.124   2.868   4.950 -0.1823  0.1770 -0.2569
10402TIP3    H152621   4.142   2.962   4.941  2.6747 -0.2792  0.1931
10402TIP3    H252622   4.044   2.864   5.002  1.4374  2.3488  2.5231
10403TIP3   OH252623   3.872   1.634   3.042 -0.1907  0.4180 -0.4938
10403TIP3    H152624   3.957   1.592   3.024 -0.3590  0.3826 -1.2119
10403TIP3    H252625   3.895   1.722   3.072  0.1744 -0.1898  1.1121
10404TIP3   OH252626   1.433   0.865   4.282  0.2668  0.4559  0.2281
10404TIP3    H152627   1.461   0.866   4.191  1.9879  0.8190  0.7558
10404TIP3    H252628   1.397   0.777   4.294  0.2811  0.3140 -0.7256
10405TIP3   OH252629   6.653   6.522   5.441 -0.7331 -0.5876 -0.2301
10405TIP3    H152630   6.660   6.549   5.533 -3.0706  0.4056 -0.3164
10405TIP3    H252631   6.742   6.496   5.417  0.0635 -0.1192  2.0823
10406TIP3   OH252632   5.140   6.128   1.960  0.2976 -0.3736  0.7139
10406TIP3    H152633   5.100   6.197   2.013 -1.7200  1.0478 -2.5357
10406TIP3    H252634   5.073   6.060   1.956  1.2430 -1.3692  1.6598
10407TIP3   OH252635   3.301   3.879  13.411  0.1793 -0.7369 -0.1050
10407TIP3    H152636   3.246   3.957  13.403  1.3254  0.0807 -0.1146
10407TIP3    H252637   3.382   3.901  13.365  0.3744 -2.0796 -0.4398
10408TIP3   OH252638   1.586   1.950   4.259 -0.1921 -1.0950 -0.1211
10408TIP3    H152639   1.672   1.913   4.278  0.5533  0.3803 -0.6033
10408TIP3    H252640   1.576   2.020   4.323 -0.8898 -1.0328 -0.2994
10409TIP3   OH252641   4.294   4.767   1.195 -0.6856 -0.3090 -0.1214
10409TIP3    H152642   4.350   4.840   1.219  0.1649 -1.4505  1.5029
10409TIP3    H252643   4.343   4.718   1.129 -0.7491 -0.0695 -0.3459
10410TIP3   OH252644   3.094   0.755  14.608 -0.0670  0.9291 -0.0049
10410TIP3    H152645   3.091   0.729  14.700 -1.2187  2.2940  0.3785
10410TIP3    H252646   3.012   0.721  14.571  0.2975  0.5579 -0.4728
10411TIP3   OH252647   6.248   0.176  13.972  0.0951  0.5082  0.0506
10411TIP3    H152648   6.253   0.205  13.881 -2.4926 -0.6064 -0.4997
10411TIP3    H252649   6.291   0.091  13.973 -0.7870  0.0489 -0.3736
10412TIP3   OH252650   4.899   0.545  15.729 -0.2723  0.4419  0.0392
10412TIP3    H152651   4.867   0.534  15.818 -0.7782  0.1124 -0.1813
10412TIP3    H252652   4.910   0.640  15.719 -1.3172  0.5716  0.0721
10413TIP3   OH252653   5.415   1.934   1.098 -0.1765  0.3526 -0.2221
10413TIP3    H152654   5.476   1.970   1.033  1.0332  0.0888  0.7610
10413TIP3    H252655   5.337   1.912   1.047  0.6714  0.3658 -1.5570
10414TIP3   OH252656   4.965   2.915   0.924  0.5979 -0.1267  0.3395
10414TIP3    H152657   4.941   2.990   0.978 -1.0655  0.1518 -0.7671
10414TIP3    H252658   4.981   2.844   0.986 -0.7943  0.3232  1.2235
10415TIP3   OH252659   3.423   1.512  12.312 -0.5269 -0.3014 -0.6626
10415TIP3    H152660   3.373   1.594  12.313 -0.6440 -0.3756 -0.5154
10415TIP3    H252661   3.477   1.518  12.233 -1.6154 -0.7293 -1.4540
10416TIP3   OH252662   3.322   6.186   4.282  0.6913 -0.0361  0.2181
10416TIP3    H152663   3.243   6.224   4.245 -1.4737 -2.4091  2.1710
10416TIP3    H252664   3.341   6.240   4.359 -1.4355 -1.8074  2.0584
10417TIP3   OH252665   0.498   1.396   4.129  0.1926  0.6410 -0.2860
10417TIP3    H152666   0.425   1.458   4.130  1.5949  2.3509 -0.9691
10417TIP3    H252667   0.530   1.394   4.220 -0.1243  0.5718 -0.1753
10418TIP3   OH252668   3.765   2.180   3.906 -0.2886 -0.1387 -0.1522
10418TIP3    H152669   3.850   2.138   3.891 -0.5718 -0.7306 -0.1275
10418TIP3    H252670   3.787   2.270   3.931  0.4484 -0.9556  2.3387
10419TIP3   OH252671   5.079   6.336   2.140 -0.0559  0.1284  0.2807
10419TIP3    H152672   5.165   6.371   2.163  0.5279 -0.4448 -0.9807
10419TIP3    H252673   5.049   6.291   2.219 -0.5139  2.8375  1.6992
10420TIP3   OH252674   1.924   3.717  12.216  0.1026  0.2358 -0.0354
10420TIP3    H152675   1.973   3.727  12.134 -0.6262  0.3751 -0.4643
10420TIP3    H252676   1.846   3.771  12.204 -1.7067 -2.3727 -0.6310
10421TIP3   OH252677   2.241   2.546  15.867 -0.0558 -0.1175  0.1726
10421TIP3    H152678   2.240   2.642  15.863  1.2059 -0.0932  0.0948
10421TIP3    H252679   2.199   2.525  15.950  0.6131  0.5496  0.6900
10422TIP3   OH252680   3.652   6.724   1.896 -0.0889 -0.3621 -0.1323
10422TIP3    H152681   3.715   6.656   1.921  0.8517  0.6783  0.3855
10422TIP3    H252682   3.596   6.734   1.973  1.4563  1.3147  0.8292
10423TIP3   OH252683   4.063   0.805  10.858  0.5494  0.2707  0.1145
10423TIP3    H152684   3.982   0.813  10.807  1.2056  0.7236 -0.8761
10423TIP3    H252685   4.088   0.896  10.876  2.5262  0.2357 -2.3062
10424TIP3   OH252686   5.153   4.734  12.723  0.0111 -0.5165  0.8326
10424TIP3    H152687   5.182   4.794  12.792 -2.2868 -0.1013  1.4805
10424TIP3    H252688   5.059   4.751  12.715  0.0178 -1.4682 -1.5163
10425TIP3   OH252689   4.875   2.135  15.423 -0.4365 -0.2708  0.1493
10425TIP3    H152690   4.815   2.076  15.468  0.2738 -0.6507  0.6139
10425TIP3    H252691   4.842   2.223  15.443 -0.8558 -0.4768  0.3705
10426TIP3   OH252692   2.410   1.927  13.413  0.8567 -0.2761  0.6628
10426TIP3    H152693   2.505   1.923  13.403  0.8934 -1.1629  1.2805
10426TIP3    H252694   2.376   1.872  13.342  0.8052  0.2083  0.3181
10427TIP3   OH252695   4.037   3.461  13.335 -0.7880 -0.5667 -0.4682
10427TIP3    H152696   4.039   3.546  13.379 -0.6341 -0.6446 -0.3235
10427TIP3    H252697   4.068   3.399  13.401 -0.6887 -0.7038 -0.6434
10428TIP3   OH252698   5.185   6.235  10.780 -0.2145 -0.4933  0.4012
10428TIP3    H152699   5.279   6.222  10.766 -0.6654 -0.6650 -2.8353
10428TIP3    H252700   5.179   6.314  10.834  1.7596 -0.4758  0.6326
10429TIP3   OH252701   5.713   5.082  16.237  1.1075  0.1402 -0.3265
10429TIP3    H152702   5.786   5.118  16.186 -0.2919  0.7743 -1.9176
10429TIP3    H252703   5.635   5.115  16.193 -0.1478 -0.0136  1.7416
10430TIP3   OH252704   0.610   3.122  16.522 -0.3235 -0.0659  0.1897
10430TIP3    H152705   0.649   3.093  16.439 -1.4907 -0.6848 -0.1394
10430TIP3    H252706   0.661   3.199  16.546 -0.8399  0.9120 -1.7823
10431TIP3   OH252707   2.760   5.912  12.511 -0.4772  0.1989 -0.2084
10431TIP3    H152708   2.788   6.001  12.491 -0.8673  0.4962  0.5396
10431TIP3    H252709   2.664   5.915  12.504 -0.8346  0.8302  3.5282
10432TIP3   OH252710   6.168   5.248   0.708 -0.7508  0.4481 -0.1590
10432TIP3    H152711   6.232   5.302   0.753  0.3854  0.1977 -1.4431
10432TIP3    H252712   6.220   5.191   0.651 -1.9934 -1.1478  0.2537
10433TIP3   OH252713   3.228   2.885   1.420  0.2322  0.2296 -0.2530
10433TIP3    H152714   3.286   2.816   1.453 -1.9152 -0.5114  2.1222
10433TIP3    H252715   3.179   2.844   1.349  1.6029  0.4516 -1.3457
10434TIP3   OH252716   3.949   0.541  11.484  0.3930  0.7467  0.4699
10434TIP3    H152717   3.871   0.596  11.490  0.3460  0.7321  0.0371
10434TIP3    H252718   3.927   0.475  11.419  1.1544  1.3940 -0.4598
10435TIP3   OH252719   2.359   6.168  16.980  0.4797  0.2972  0.2273
10435TIP3    H152720   2.283   6.224  17.000  0.2218  1.2514 -3.1954
10435TIP3    H252721   2.434   6.220  17.007 -0.0039 -0.2928  2.8322
10436TIP3   OH252722   5.096   1.106  16.416  0.5700 -0.3225 -0.1888
10436TIP3    H152723   5.098   1.101  16.512 -0.3014  0.6402 -0.1183
10436TIP3    H252724   5.140   1.026  16.388 -0.5103 -1.3703  1.0056
10437TIP3   OH252725   2.830   6.059   1.686  0.2922 -0.7830  0.2846
10437TIP3    H152726   2.755   6.058   1.744  0.1905 -0.4131  0.1550
10437TIP3    H252727   2.881   5.981   1.712 -0.5254 -1.4703 -0.1450
10438TIP3   OH252728   4.980   3.706  11.333  0.3103  0.0266 -0.2579
10438TIP3    H152729   5.057   3.686  11.280 -0.1911 -2.0221 -0.2392
10438TIP3    H252730   4.926   3.762  11.277  1.4274  0.8025 -0.5730
10439TIP3   OH252731   3.024   4.541   0.336  0.6533  0.1689  0.3420
10439TIP3    H152732   2.970   4.476   0.381  2.8689 -0.9168  1.5140
10439TIP3    H252733   3.008   4.526   0.243 -1.1470 -0.0317  0.6633
10440TIP3   OH252734   5.520   0.272  14.536  0.6064 -0.2287 -0.3052
10440TIP3    H152735   5.551   0.188  14.502  0.8635 -0.0058 -0.6236
10440TIP3    H252736   5.454   0.301  14.472  0.7353 -0.0434 -0.3556
10441TIP3   OH252737   3.197   4.388  14.696 -0.1710  0.3270 -0.1901
10441TIP3    H152738   3.185   4.303  14.654 -0.7369 -0.1766  0.9527
10441TIP3    H252739   3.195   4.451  14.624 -0.0324 -0.6004 -1.0201
10442TIP3   OH252740   4.212   5.205   3.521  0.6651 -0.1578  0.3858
10442TIP3    H152741   4.174   5.293   3.514 -0.3476 -0.7001 -1.5450
10442TIP3    H252742   4.157   5.152   3.463  1.5662 -1.9612  1.1689
10443TIP3   OH252743   6.270   1.385  15.569 -0.2724 -0.1408 -0.2691
10443TIP3    H152744   6.254   1.425  15.654  2.0132 -0.1236  0.1910
10443TIP3    H252745   6.297   1.295  15.590  1.4518  0.2148 -0.8884
10444TIP3   OH252746   1.730   3.404  14.861 -0.5117 -0.1857 -0.6541
10444TIP3    H152747   1.775   3.320  14.857 -0.1642 -0.1058  1.1494
10444TIP3    H252748   1.677   3.407  14.782 -0.3701 -2.0144 -0.8309
10445TIP3   OH252749   3.010   0.974  13.361  0.2134 -0.6392  0.0205
10445TIP3    H152750   3.070   0.940  13.428  0.1509 -0.3181  0.2387
10445TIP3    H252751   2.927   0.985  13.407  0.4602  0.6367  0.1612
10446TIP3   OH252752   3.372   0.716   2.849  0.1339 -0.3925  0.0645
10446TIP3    H152753   3.283   0.691   2.872  0.4782 -0.3638  1.5043
10446TIP3    H252754   3.412   0.740   2.933  1.4069 -0.1515 -0.6036
10447TIP3   OH252755   6.078   5.368   3.117 -0.0090 -0.0775  0.4101
10447TIP3    H152756   6.065   5.428   3.190  0.6347  1.8743 -1.0511
10447TIP3    H252757   6.173   5.360   3.108 -0.0427  1.2091 -1.3938
10448TIP3   OH252758   5.035   1.012   3.719 -0.0259  0.1021  0.6010
10448TIP3    H152759   4.960   1.044   3.768  0.1895  0.9464  0.3901
10448TIP3    H252760   5.093   0.974   3.785 -1.4178 -2.1566  0.5752
10449TIP3   OH252761   6.634   6.785  12.663 -0.5197 -0.7422 -0.6039
10449TIP3    H152762   6.670   6.859  12.711 -1.7604 -1.4592  1.5265
10449TIP3    H252763   6.539   6.792  12.677 -0.6253 -2.9081 -0.0773
10450TIP3   OH252764   5.048   1.105   2.876 -0.6042 -0.0786 -1.0432
10450TIP3    H152765   4.963   1.108   2.920  0.5061 -1.4992  1.2507
10450TIP3    H252766   5.065   1.197   2.853 -1.1378  0.7882  1.7257
10451TIP3   OH252767   0.591   4.136   1.560  0.4192  0.2876  0.2966
10451TIP3    H152768   0.546   4.060   1.523 -1.0239  1.7029 -0.9090
10451TIP3    H252769   0.663   4.098   1.611  0.4998 -1.8377 -1.3109
10452TIP3   OH252770   0.554   3.961   6.333  0.9304 -0.7998 -0.2773
10452TIP3    H152771   0.609   3.883   6.347  0.2270 -1.3563 -0.5546
10452TIP3    H252772   0.486   3.931   6.273 -1.7807 -1.1745  2.8214
10453TIP3   OH252773   3.465   0.716  14.923 -0.1797 -0.1916  0.1770
10453TIP3    H152774   3.405   0.770  14.871 -1.5565 -0.7500  1.1435
10453TIP3    H252775   3.552   0.752  14.906 -0.5884 -0.4630 -2.6104
10454TIP3   OH252776   0.970   0.806  11.754  0.6828  0.0130  0.7348
10454TIP3    H152777   0.886   0.765  11.735  0.6485  0.7938 -0.9110
10454TIP3    H252778   1.031   0.763  11.694  1.3818 -0.2362  1.6087
10455TIP3   OH252779   0.594   2.088  11.654  0.1583  0.6207  0.2682
10455TIP3    H152780   0.572   2.180  11.643  0.5332  0.7367  0.4675
10455TIP3    H252781   0.648   2.067  11.578 -1.2563  0.1340 -0.6175
10456TIP3   OH252782   3.997   6.240  14.090 -0.1291  0.1008  0.1564
10456TIP3    H152783   4.013   6.226  14.183 -1.7923 -0.8613  0.3174
10456TIP3    H252784   4.049   6.318  14.068 -0.1235  0.6327  1.9789
10457TIP3   OH252785   4.367   2.659  11.797  0.0325  0.5517 -0.3935
10457TIP3    H152786   4.425   2.732  11.820 -1.3061  2.2551 -2.2243
10457TIP3    H252787   4.330   2.630  11.880  2.0050  0.7272  0.5715
10458TIP3   OH252788   4.484   5.019  16.639  0.2489  0.5436 -0.6879
10458TIP3    H152789   4.503   5.104  16.680  0.1866  0.1448  0.1709
10458TIP3    H252790   4.437   4.970  16.706  2.4006 -1.0723 -0.2984
10459TIP3   OH252791   2.449   6.201   2.306  0.2172  0.2977  0.2198
10459TIP3    H152792   2.507   6.126   2.311  0.7942  0.6626 -0.8835
10459TIP3    H252793   2.403   6.190   2.223 -0.6394  0.4846  0.6649
10460TIP3   OH252794   1.714   3.452   1.024  0.1269  0.3050  0.0640
10460TIP3    H152795   1.730   3.511   1.098  0.0187 -1.6869  1.7223
10460TIP3    H252796   1.631   3.409   1.044  1.1769 -1.8897 -0.0583
10461TIP3   OH252797   0.117   4.700  15.715  0.4319  0.3806  0.2062
10461TIP3    H152798   0.115   4.697  15.619 -0.1583  0.5112  0.2101
10461TIP3    H252799   0.053   4.767  15.738 -2.3052 -2.3151  0.8153
10462TIP3   OH252800   5.152   4.575   1.022  0.2956  0.3713 -0.4954
10462TIP3    H152801   5.186   4.558   0.935 -0.7127  2.0254 -1.2349
10462TIP3    H252802   5.070   4.527   1.026  0.8709 -0.5872 -0.0562
10463TIP3   OH252803   5.072   3.928  12.086  0.1390  0.0802 -0.0143
10463TIP3    H152804   5.150   3.876  12.106  0.2991  1.0663  2.0636
10463TIP3    H252805   4.999   3.876  12.119  0.1826  0.4942  0.7561
10464TIP3   OH252806   5.695   4.313   3.921  0.3463 -0.9897  0.3997
10464TIP3    H152807   5.769   4.296   3.979  0.6564  0.6441  0.4974
10464TIP3    H252808   5.650   4.388   3.960 -0.2372 -0.7427 -0.7197
10465TIP3   OH252809   2.564   4.284   5.251 -0.5779  0.3624  0.1269
10465TIP3    H152810   2.593   4.373   5.272  0.2945  0.2284 -0.4937
10465TIP3    H252811   2.570   4.237   5.335 -3.3056  1.4721  0.9844
10466TIP3   OH252812   4.595   5.349  12.706 -0.1966  0.1894  0.1225
10466TIP3    H152813   4.596   5.441  12.678 -0.4078 -0.2270 -1.3025
10466TIP3    H252814   4.515   5.341  12.759 -0.6459  0.6158 -0.4879
10467TIP3   OH252815   3.103   1.196   2.056 -0.8302  0.5635  0.1796
10467TIP3    H152816   3.088   1.273   2.001  0.3450  0.3736 -0.4280
10467TIP3    H252817   3.106   1.230   2.145  0.8130  1.4017 -0.1757
10468TIP3   OH252818   0.971   0.989   3.353  0.4617 -0.2537  0.0720
10468TIP3    H152819   0.933   0.941   3.426  1.0017  1.2554  1.3676
10468TIP3    H252820   1.032   0.927   3.313  0.7924 -0.8185  1.4143
10469TIP3   OH252821   3.318   0.238   6.340  0.1310  0.1832  0.4836
10469TIP3    H152822   3.228   0.214   6.362  0.7244 -0.4661  2.3582
10469TIP3    H252823   3.338   0.312   6.398  1.2166 -0.5349  1.0549
10470TIP3   OH252824   5.362   4.825   2.974 -0.3251  0.1747 -0.7061
10470TIP3    H152825   5.346   4.796   2.884  0.9201  1.2238 -1.2755
10470TIP3    H252826   5.314   4.908   2.981  0.0729  0.3978 -0.5994
10471TIP3   OH252827   3.294   2.647   1.952  0.2902  0.2657  0.2852
10471TIP3    H152828   3.204   2.655   1.921  0.5523  0.3118 -0.4805
10471TIP3    H252829   3.342   2.615   1.876  1.0179  0.7593  0.5379
10472TIP3   OH252830   0.581   3.940   0.873  0.1813 -0.1540  0.1357
10472TIP3    H152831   0.617   3.892   0.798 -1.6428 -2.4306  0.6306
10472TIP3    H252832   0.632   3.909   0.948  1.1152  1.1105  0.0312
10473TIP3   OH252833   6.662   1.652  16.508 -0.5147 -0.7272  0.4330
10473TIP3    H152834   6.700   1.647  16.421  0.0763 -0.3520  0.6701
10473TIP3    H252835   6.615   1.569  16.519 -0.1131 -1.0104 -0.0142
10474TIP3   OH252836   1.819   4.219   5.645  0.1157  0.7600  0.3985
10474TIP3    H152837   1.857   4.162   5.711 -0.2838  0.3804  0.3046
10474TIP3    H252838   1.856   4.306   5.663 -1.1946  0.9793  2.0797
10475TIP3   OH252839   4.495   1.756   4.782 -0.0702 -0.0659 -0.1695
10475TIP3    H152840   4.515   1.838   4.736  0.9693 -0.0197  0.3508
10475TIP3    H252841   4.414   1.725   4.742 -1.7946  2.4361  1.2571
10476TIP3   OH252842   6.476   4.699  12.084 -0.0601 -0.2146 -0.5495
10476TIP3    H152843   6.512   4.787  12.092  0.6459 -0.5678  0.2276
10476TIP3    H252844   6.540   4.651  12.032 -1.1566  0.1195 -2.2460
10477TIP3   OH252845   0.265   1.072   3.794  0.2555 -0.4519 -0.3122
10477TIP3    H152846   0.266   0.997   3.735 -0.0817 -1.5889  1.0942
10477TIP3    H252847   0.186   1.121   3.769  0.9701 -0.0444 -1.8380
10478TIP3   OH252848   1.545   5.668  14.555  0.3055  0.0096  0.3510
10478TIP3    H152849   1.601   5.629  14.622 -0.7857  0.2197  1.4146
10478TIP3    H252850   1.538   5.760  14.581 -0.8622 -0.1032  0.4895
10479TIP3   OH252851   3.625   1.626  13.968  0.0534 -0.1437 -0.0544
10479TIP3    H152852   3.667   1.540  13.972 -0.4910 -0.3242  2.1043
10479TIP3    H252853   3.667   1.669  13.893 -1.0024 -2.9777 -2.3888
10480TIP3   OH252854   1.328   6.031   1.129 -0.4043  0.2876  0.0784
10480TIP3    H152855   1.303   5.968   1.197  0.3867  1.1558  1.1930
10480TIP3    H252856   1.271   6.010   1.055 -0.2966 -1.6078  0.4989
10481TIP3   OH252857   2.779   2.978  14.053  0.2309  0.5929 -0.4695
10481TIP3    H152858   2.761   3.034  14.129  0.2025 -1.8673  1.3917
10481TIP3    H252859   2.696   2.975  14.004 -1.1192 -1.3865  1.8388
10482TIP3   OH252860   4.284   6.267  10.944 -0.2942 -0.2269  0.2634
10482TIP3    H152861   4.342   6.194  10.926 -0.6637 -0.5599  0.4158
10482TIP3    H252862   4.341   6.344  10.945  0.4514 -0.7839  2.4584
10483TIP3   OH252863   3.373   5.931  16.811  0.1319 -0.3526 -0.4090
10483TIP3    H152864   3.428   5.924  16.889  0.9225 -0.4915 -0.9634
10483TIP3    H252865   3.306   5.864  16.823  0.5889 -0.7673 -0.1090
10484TIP3   OH252866   6.707   4.658   4.941  0.3192 -0.6212 -0.6377
10484TIP3    H152867   6.706   4.734   4.999  1.9128 -2.3940  1.8199
10484TIP3    H252868   6.640   4.676   4.876 -0.9565  1.8100  1.2947
10485TIP3   OH252869   0.432   2.196  16.555 -0.0503  0.5232  0.0713
10485TIP3    H152870   0.447   2.138  16.480 -0.4176  1.1596 -0.4944
10485TIP3    H252871   0.350   2.240  16.536  1.0123  2.4202 -0.2673
10486TIP3   OH252872   4.500   1.340  16.274 -0.1325  0.0576 -0.1278
10486TIP3    H152873   4.554   1.409  16.236 -0.5322  0.3481 -0.1673
10486TIP3    H252874   4.416   1.347  16.228 -0.3981 -0.0194  0.3450
10487TIP3   OH252875   2.100   0.782   0.229 -0.2907 -0.3298 -0.1710
10487TIP3    H152876   2.012   0.819   0.229 -0.0751  0.1842  0.1889
10487TIP3    H252877   2.087   0.689   0.247 -0.5986  0.1359  2.1836
10488TIP3   OH252878   3.001   0.528   2.279 -0.0890 -0.6025 -0.2143
10488TIP3    H152879   2.964   0.569   2.357 -1.0361 -0.3729 -0.7818
10488TIP3    H252880   2.958   0.571   2.206  2.8846  1.2373 -0.9808
10489TIP3   OH252881   4.677   0.051  16.177 -0.4269 -0.1058 -0.4003
10489TIP3    H152882   4.625   0.112  16.230  2.0216  1.5977  0.1036
10489TIP3    H252883   4.726  -0.001  16.240  2.1781  1.6351 -0.9249
10490TIP3   OH252884   4.390   3.463  15.298  0.1775  0.2970  0.1432
10490TIP3    H152885   4.396   3.558  15.296  1.9468  0.1969  0.2638
10490TIP3    H252886   4.366   3.443  15.389 -0.5828  0.6380  0.0228
10491TIP3   OH252887   0.236   3.663   1.551  0.0636  0.3571 -0.0882
10491TIP3    H152888   0.173   3.714   1.602  0.8835  1.3984 -0.1214
10491TIP3    H252889   0.229   3.698   1.462 -0.9559 -1.0771 -0.5924
10492TIP3   OH252890   3.917   5.434  16.888 -0.1955 -0.5002  0.1907
10492TIP3    H152891   3.848   5.501  16.883  0.2531 -0.0116  0.4861
10492TIP3    H252892   3.870   5.351  16.879 -0.6482 -0.1127 -1.0523
10493TIP3   OH252893   0.002   4.534  14.618  0.2085 -0.5084 -0.3000
10493TIP3    H152894  -0.086   4.571  14.629  0.0522 -0.3446 -2.0035
10493TIP3    H252895   0.061   4.602  14.649 -0.2390 -0.3098  0.1222
10494TIP3   OH252896   0.297   2.043  13.389 -0.0885 -0.1627 -0.1755
10494TIP3    H152897   0.368   1.994  13.347  0.4650  0.5396 -0.0689
10494TIP3    H252898   0.310   2.134  13.360 -1.3162 -0.1243 -0.6673
10495TIP3   OH252899   1.783   0.314   0.406  0.6897  0.3976  0.4343
10495TIP3    H152900   1.820   0.230   0.433  0.1367 -0.0155 -0.0808
10495TIP3    H252901   1.831   0.379   0.457  0.8371 -0.2611  1.1413
10496TIP3   OH252902   1.230   5.468  13.646 -0.5366  0.0048  0.5300
10496TIP3    H152903   1.260   5.557  13.629 -2.1221  0.3169 -0.7401
10496TIP3    H252904   1.234   5.459  13.741  1.1526  0.8684  0.5702
10497TIP3   OH252905   1.378   2.352  15.970  0.1400  0.1968  0.0695
10497TIP3    H152906   1.305   2.407  15.942  1.0108  1.6450  0.6216
10497TIP3    H252907   1.450   2.413  15.986  0.7858 -0.9762  1.7829
10498TIP3   OH252908   5.685   0.395   1.692 -0.0743 -0.1377  0.6083
10498TIP3    H152909   5.674   0.360   1.604 -1.0862  1.5341  0.0603
10498TIP3    H252910   5.764   0.351   1.726  0.2724 -0.8394 -1.0779
10499TIP3   OH252911   3.129   0.514   5.754  0.3534 -0.1287  0.4993
10499TIP3    H152912   3.034   0.516   5.745  0.5129  1.1658 -1.0745
10499TIP3    H252913   3.159   0.595   5.712  2.2288 -1.0374  0.0415
10500TIP3   OH252914   0.169   3.877  16.223 -0.2707  0.1996 -0.5004
10500TIP3    H152915   0.145   3.794  16.263  0.7184  0.4748  0.7147
10500TIP3    H252916   0.093   3.933  16.235  0.2657  0.4878  1.6221
10501TIP3   OH252917   4.664   3.167   4.405  0.1739 -0.4395  0.3622
10501TIP3    H152918   4.692   3.116   4.482  0.8806  2.3866  2.0570
10501TIP3    H252919   4.745   3.182   4.356  0.2749  0.6487  0.8616
10502TIP3   OH252920   0.616   3.290   5.964  0.0363 -0.0493  0.2657
10502TIP3    H152921   0.631   3.311   6.056  0.6108 -2.1088  0.6838
10502TIP3    H252922   0.521   3.283   5.956 -0.0381  0.5944  0.6008
10503TIP3   OH252923   4.363   6.723  11.167  0.1365  0.4329 -0.2970
10503TIP3    H152924   4.433   6.768  11.215 -0.4908  0.5567  0.5166
10503TIP3    H252925   4.386   6.735  11.075  1.0172  0.7445 -0.0430
10504TIP3   OH252926   2.915   2.003  16.861  0.4236 -0.1028 -0.1204
10504TIP3    H152927   2.993   2.007  16.805  1.1390 -0.5338  0.8295
10504TIP3    H252928   2.950   1.997  16.950 -0.7029 -0.6261  0.2955
10505TIP3   OH252929   6.532   3.524   4.808 -0.1804  0.1308 -0.0762
10505TIP3    H152930   6.590   3.507   4.734  0.1553 -0.0075  0.2182
10505TIP3    H252931   6.444   3.512   4.773  0.0105 -1.1888 -0.1484
10506TIP3   OH252932   5.916   3.945   4.928  0.0325  0.4036  0.5054
10506TIP3    H152933   5.942   4.036   4.922 -1.9530  0.9061 -1.2897
10506TIP3    H252934   5.820   3.948   4.934 -0.1350 -1.5742 -0.7434
10507TIP3   OH252935   0.787   1.861  15.853  0.0234 -0.0001  0.0315
10507TIP3    H152936   0.799   1.921  15.927  0.0145 -0.1307  0.1403
10507TIP3    H252937   0.858   1.797  15.863  0.8978  0.8239 -0.9182
10508TIP3   OH252938   0.730   3.506  17.048  0.4068  0.5667 -0.5290
10508TIP3    H152939   0.746   3.549  16.964  2.1481 -0.7469 -0.9035
10508TIP3    H252940   0.654   3.449  17.032 -0.8948  2.2406 -0.4674
10509TIP3   OH252941   6.226   1.227   5.479  0.0915  0.3954 -0.2509
10509TIP3    H152942   6.297   1.231   5.543 -1.6452 -2.7271  2.0332
10509TIP3    H252943   6.161   1.290   5.511  0.4570  0.9485 -0.5856
10510TIP3   OH252944   4.696   6.689   4.175 -0.8253  0.0417 -1.0760
10510TIP3    H152945   4.616   6.733   4.149 -1.5650 -0.5029  0.2321
10510TIP3    H252946   4.668   6.603   4.205  0.0815  0.2702  0.5150
10511TIP3   OH252947   0.533   5.827  15.701  0.2724  0.7226  0.1491
10511TIP3    H152948   0.438   5.828  15.708  0.2073 -0.5496 -0.3814
10511TIP3    H252949   0.560   5.915  15.726 -0.8833  0.4381  2.5223
10512TIP3   OH252950   6.171   5.891   4.840 -0.2004  0.7574  1.1534
10512TIP3    H152951   6.125   5.949   4.900 -0.1372  1.4352  0.5612
10512TIP3    H252952   6.105   5.868   4.774 -0.7759 -1.4395  2.4739
10513TIP3   OH252953   4.705   5.639   6.289 -0.1609 -0.8527 -0.1097
10513TIP3    H152954   4.743   5.708   6.343  0.3915 -1.0073 -0.3003
10513TIP3    H252955   4.663   5.580   6.351  1.8503 -1.8967  0.2973
10514TIP3   OH252956   1.729   1.149   4.599 -0.5880 -0.1530  0.2378
10514TIP3    H152957   1.669   1.124   4.529  0.4855  0.7680 -1.0534
10514TIP3    H252958   1.744   1.243   4.586  0.4935 -0.1991  1.0173
10515TIP3   OH252959   2.611   5.001  13.712 -0.0883 -0.0949  0.9052
10515TIP3    H152960   2.597   4.935  13.779  0.6522  0.4446  1.5913
10515TIP3    H252961   2.638   5.079  13.760  0.7415  0.2060 -0.0334
10516TIP3   OH252962   2.156   4.785  11.285  0.1128 -0.2694 -0.3794
10516TIP3    H152963   2.215   4.737  11.227  2.3531 -0.6904  2.1238
10516TIP3    H252964   2.083   4.726  11.300  1.0699 -1.4403 -0.2501
10517TIP3   OH252965   2.654   6.421   3.534  0.0115 -0.5380 -0.5630
10517TIP3    H152966   2.588   6.489   3.550  0.6727 -0.1238  0.4989
10517TIP3    H252967   2.661   6.416   3.439 -2.5434 -1.5669 -0.7331
10518TIP3   OH252968   1.537   6.600   5.233  0.1116  0.5828 -0.1188
10518TIP3    H152969   1.501   6.512   5.246  0.1191  0.5020 -0.6360
10518TIP3    H252970   1.598   6.612   5.306  0.3360  0.0439 -0.2200
10519TIP3   OH252971   1.816   2.356  17.192 -0.0492 -0.1348  0.0716
10519TIP3    H152972   1.900   2.318  17.218  0.3572  1.2689  0.8543
10519TIP3    H252973   1.793   2.414  17.264 -0.8443  0.7938 -0.9229
10520TIP3   OH252974   2.818   1.919  13.645 -0.0577  0.2346 -0.9225
10520TIP3    H152975   2.883   1.932  13.576 -0.2858  1.6219 -0.8891
10520TIP3    H252976   2.826   1.997  13.700 -0.3840 -0.5186  0.2133
10521TIP3   OH252977   4.174   0.649  15.219  0.1662  0.0293 -0.3184
10521TIP3    H152978   4.244   0.592  15.188 -0.8232 -1.7226  0.5599
10521TIP3    H252979   4.171   0.634  15.314 -2.6991 -1.5255 -0.5854
10522TIP3   OH252980   6.752   0.359   1.355  0.0093 -0.2699 -0.1859
10522TIP3    H152981   6.831   0.412   1.346 -0.4833  0.6881  0.8987
10522TIP3    H252982   6.780   0.270   1.336  1.0680  0.2441 -1.0905
10523TIP3   OH252983   3.571   6.331   2.386 -0.0904 -0.6941  0.2021
10523TIP3    H152984   3.517   6.292   2.454 -1.5753 -1.8966 -1.6206
10523TIP3    H252985   3.525   6.412   2.361  1.6467  0.9555  2.1833
10524TIP3   OH252986   4.376   5.179   2.550 -0.4668 -0.2532 -0.4445
10524TIP3    H152987   4.458   5.131   2.537 -0.6090 -0.1135 -2.0151
10524TIP3    H252988   4.404   5.269   2.570 -0.2260 -0.5733  0.6783
10525TIP3   OH252989   2.206   3.673  10.740  0.0908 -0.2801  0.7718
10525TIP3    H152990   2.227   3.754  10.787 -0.5871  0.1667  0.3274
10525TIP3    H252991   2.288   3.623  10.739  0.5221  0.4154  1.0339
10526TIP3   OH252992   6.034   5.435   4.498 -0.8261  0.7164 -0.4476
10526TIP3    H152993   5.989   5.478   4.571 -0.0367  0.3232  0.2807
10526TIP3    H252994   5.974   5.445   4.424 -1.7911  0.8114  0.3364
10527TIP3   OH252995   6.536   4.694  15.929  0.3113 -0.2033  0.0238
10527TIP3    H152996   6.506   4.618  15.879  1.7129 -0.5054 -0.3932
10527TIP3    H252997   6.456   4.735  15.962 -0.7602  0.6816 -3.4625
10528TIP3   OH252998   4.796   2.921  16.443 -0.1657 -0.2692 -0.0060
10528TIP3    H152999   4.783   2.964  16.527  1.4381 -0.2064  0.2227
10528TIP3    H253000   4.722   2.951  16.389 -2.0643 -1.5210  1.8319
10529TIP3   OH253001   3.994   1.003   2.039 -0.0942  0.3767  0.1589
10529TIP3    H153002   3.957   1.059   2.107 -0.1920  0.8913 -0.3157
10529TIP3    H253003   3.922   0.944   2.015 -0.3363  0.7876 -0.1312
10530TIP3   OH253004   5.226   1.918   6.389  0.1082 -0.1015 -0.2511
10530TIP3    H153005   5.264   1.830   6.385 -0.4375 -0.3183 -0.6764
10530TIP3    H253006   5.146   1.907   6.441 -0.5050 -0.0567 -1.1738
10531TIP3   OH253007   5.155   5.542  13.293 -0.3006  0.0347  0.4527
10531TIP3    H153008   5.118   5.590  13.219 -0.0860 -0.6018 -0.0747
10531TIP3    H253009   5.134   5.450  13.275 -0.6055 -0.0878  1.3915
10532TIP3   OH253010   6.434   5.902   2.361 -0.0299  0.0396  0.5685
10532TIP3    H153011   6.400   5.865   2.280 -0.5767  1.1338  0.2844
10532TIP3    H253012   6.527   5.880   2.361  0.4064  1.7840 -1.3486
10533TIP3   OH253013   2.393   1.170  13.182  0.0129  0.9249 -0.0295
10533TIP3    H153014   2.483   1.201  13.183  0.4070 -0.1901  1.8819
10533TIP3    H253015   2.386   1.116  13.103  1.0604  0.8672 -0.0797
10534TIP3   OH253016   5.005   3.741  16.716 -0.2391  0.2356  0.4502
10534TIP3    H153017   4.997   3.677  16.787  1.5108 -0.8892 -0.3063
10534TIP3    H253018   5.091   3.723  16.678  0.0575  2.7123 -0.1420
10535TIP3   OH253019   1.248   3.777  15.595 -0.1730  0.0440 -0.3838
10535TIP3    H153020   1.225   3.870  15.582 -0.1434  0.0996 -0.0297
10535TIP3    H253021   1.230   3.761  15.687 -1.1241 -0.5693 -0.6639
10536TIP3   OH253022   4.579   6.098  15.918 -0.1470 -0.0979 -0.1872
10536TIP3    H153023   4.488   6.108  15.893 -0.0722  0.3333 -0.2834
10536TIP3    H253024   4.629   6.127  15.842  0.0728 -0.5753 -0.2289
10537TIP3   OH253025   4.637   4.357  14.305  0.0761 -0.0587  0.2329
10537TIP3    H153026   4.724   4.392  14.326 -0.0254  1.0136 -1.0431
10537TIP3    H253027   4.576   4.419  14.343 -0.1508 -0.9763  1.3920
10538TIP3   OH253028   4.242   1.959  14.844 -0.3602  0.3554 -0.4410
10538TIP3    H153029   4.193   1.886  14.807  2.8354 -0.3054 -3.6536
10538TIP3    H253030   4.278   1.926  14.926 -1.9729 -0.4314 -0.0468
10539TIP3   OH253031   4.832   1.998   6.279  0.3663  0.0241  0.0480
10539TIP3    H153032   4.869   1.933   6.338  0.4930  0.2179  0.1822
10539TIP3    H253033   4.869   1.977   6.193  0.2658 -0.1911  0.0589
10540TIP3   OH253034   4.506   0.273   3.720  0.3856  0.5027  0.1596
10540TIP3    H153035   4.527   0.365   3.707  0.9805  0.0034 -2.6152
10540TIP3    H253036   4.567   0.226   3.664 -0.3897 -1.5556  0.9948
10541TIP3   OH253037   3.716   5.897  16.000  0.0178  0.7966 -0.4375
10541TIP3    H153038   3.799   5.939  16.023  2.6921 -3.1377 -2.4945
10541TIP3    H253039   3.696   5.841  16.076 -0.4133  1.1735 -0.2667
10542TIP3   OH253040   0.113   5.400  10.856  0.2260  0.6511  0.1579
10542TIP3    H153041   0.055   5.338  10.811 -0.1714  0.4464  0.9451
10542TIP3    H253042   0.180   5.422  10.791  0.4507 -0.7123 -0.0793
10543TIP3   OH253043   3.352   0.070   4.522  1.0029  0.0870  0.0715
10543TIP3    H153044   3.258   0.082   4.531  0.7307 -0.1809 -2.1441
10543TIP3    H253045   3.384   0.059   4.612 -0.9031  1.3137  0.9283
10544TIP3   OH253046   0.435   1.957   1.054 -0.0279  0.3433 -0.1653
10544TIP3    H153047   0.385   2.026   1.011 -1.5010 -1.0755 -0.7610
10544TIP3    H253048   0.405   1.876   1.013 -0.4007 -0.9136  2.4602
10545TIP3   OH253049   1.540   1.194   4.088  0.3971  0.9099 -0.0545
10545TIP3    H153050   1.587   1.270   4.053  0.9791  0.8224  0.5276
10545TIP3    H253051   1.591   1.118   4.059 -0.7104  0.6844 -1.4436
10546TIP3   OH253052   6.277   2.602   5.398 -0.0158 -0.2034  0.6177
10546TIP3    H153053   6.324   2.655   5.463 -0.2653  0.1976  0.4751
10546TIP3    H253054   6.255   2.664   5.328  1.8214 -0.9886 -0.6947
10547TIP3   OH253055   6.570   6.722   1.075  0.0085  0.3040 -0.0225
10547TIP3    H153056   6.613   6.689   1.153 -0.7036  0.8485  0.6131
10547TIP3    H253057   6.497   6.663   1.060  1.5211 -1.2057 -1.6783
10548TIP3   OH253058   2.816   5.794   3.595  0.1854  0.0530 -0.1292
10548TIP3    H153059   2.838   5.878   3.636 -0.5452 -0.1945  0.7952
10548TIP3    H253060   2.803   5.815   3.503  0.0156  0.9657  0.0968
10549TIP3   OH253061   3.736   0.410  12.479  0.1334 -0.0130  0.2499
10549TIP3    H153062   3.705   0.492  12.440  1.1775  0.1747 -0.2200
10549TIP3    H253063   3.823   0.397  12.440 -0.3139 -1.7196 -0.2209
10550TIP3   OH253064   0.034   4.316   0.626 -0.3577  0.4135  0.5565
10550TIP3    H153065   0.102   4.253   0.599 -1.5229  0.0900 -1.7404
10550TIP3    H253066   0.082   4.397   0.643  0.5896  0.3114 -1.4685
10551TIP3   OH253067   2.693   3.590   3.557 -0.3438 -0.2194  0.3519
10551TIP3    H153068   2.758   3.541   3.508 -0.1426  0.3115  0.0820
10551TIP3    H253069   2.740   3.623   3.633  0.0257  1.1993 -0.4728
10552TIP3   OH253070   0.654   2.279  14.960  0.5392  0.7658 -0.2705
10552TIP3    H153071   0.693   2.220  14.895 -0.9326 -1.3810  0.7482
10552TIP3    H253072   0.584   2.323  14.913 -0.4421 -0.6955 -0.2191
10553TIP3   OH253073   2.990   4.234   4.496  0.0951 -0.2518 -0.7842
10553TIP3    H153074   3.009   4.219   4.588 -0.5399 -1.0573 -0.7787
10553TIP3    H253075   3.059   4.294   4.466 -0.7440  1.4497  0.6391
10554TIP3   OH253076   1.175   3.378  12.027  0.0784 -0.2694 -0.1375
10554TIP3    H153077   1.151   3.320  11.955 -0.1195 -0.6768  0.2524
10554TIP3    H253078   1.130   3.461  12.008 -2.8047 -1.4257  1.2744
10555TIP3   OH253079   4.917   1.443  12.950  0.0070  0.0353  0.1003
10555TIP3    H153080   4.878   1.524  12.983  0.2316  0.4673 -0.6764
10555TIP3    H253081   4.966   1.470  12.872 -1.2414 -1.1031 -1.0976
10556TIP3   OH253082   2.137   0.214   0.156 -0.8053 -0.3837 -0.5045
10556TIP3    H153083   2.160   0.144   0.095  0.5669  0.2313 -0.7026
10556TIP3    H253084   2.134   0.172   0.241  0.7793 -0.5407 -0.5196
10557TIP3   OH253085   4.409   0.472  15.124  0.3598 -0.1367  0.0706
10557TIP3    H153086   4.359   0.406  15.171 -0.3494  0.6247  0.4009
10557TIP3    H253087   4.436   0.429  15.043 -1.2493 -0.3938 -0.3361
10558TIP3   OH253088   3.327   3.960   0.914 -0.0168 -0.7593  0.0179
10558TIP3    H153089   3.267   3.899   0.872 -0.7029 -0.1096  0.0536
10558TIP3    H253090   3.286   3.980   0.999 -0.8968  1.4367 -0.8930
10559TIP3   OH253091   5.319   0.059  14.746 -0.0500  0.2993  0.7593
10559TIP3    H153092   5.401   0.010  14.744  0.4074  1.1105 -0.4539
10559TIP3    H253093   5.345   0.149  14.765 -0.9318  0.0371  3.5757
10560TIP3   OH253094   6.014   5.838   5.713 -0.1025 -0.0921  0.1960
10560TIP3    H153095   5.960   5.800   5.644  1.3630  0.2363 -1.1487
10560TIP3    H253096   5.964   5.823   5.793 -2.2063  0.2486 -1.0236
10561TIP3   OH253097   3.006   1.195  13.551 -0.5536 -0.5252 -0.3752
10561TIP3    H153098   2.955   1.114  13.550  0.4209 -1.1405 -0.6964
10561TIP3    H253099   2.957   1.255  13.495 -1.0451 -1.0253 -0.4881
10562TIP3   OH253100   0.886   0.156  16.942  0.0679  0.0704 -0.6220
10562TIP3    H153101   0.892   0.192  16.853  1.4014  1.2632 -0.0617
10562TIP3    H253102   0.971   0.176  16.982  0.1440 -2.0455  0.3392
10563TIP3   OH253103   3.015   2.265  10.800 -0.2827 -0.1291 -0.5789
10563TIP3    H153104   3.080   2.290  10.734 -0.2207  0.2141 -0.3921
10563TIP3    H253105   2.930   2.278  10.757 -0.3406  2.6396  0.2397
10564TIP3   OH253106   2.523   3.007   0.150 -0.6721  0.1273  0.0250
10564TIP3    H153107   2.491   2.917   0.144 -0.5236  0.0701  0.0961
10564TIP3    H253108   2.451   3.060   0.116 -1.5901  0.1280  1.8816
10565TIP3   OH253109   3.455   2.277   1.363 -0.3081 -0.7972 -0.7179
10565TIP3    H153110   3.427   2.264   1.454  1.8136  4.3678  0.8620
10565TIP3    H253111   3.543   2.238   1.359  0.3184  0.5055  0.0005
10566TIP3   OH253112   1.935   5.457  11.292  0.4532  0.4974  0.3299
10566TIP3    H153113   1.893   5.381  11.251  0.4860  1.2929 -1.2342
10566TIP3    H253114   1.873   5.486  11.358 -1.7689  2.0116 -2.3530
10567TIP3   OH253115   2.099   1.881   0.096  0.5487 -0.1690  0.0554
10567TIP3    H153116   2.163   1.950   0.080 -0.3987  0.6581 -0.2553
10567TIP3    H253117   2.014   1.923   0.079 -0.0114 -1.5383 -0.6367
10568TIP3   OH253118   6.241   0.637   5.084 -0.0335 -0.6030 -0.5568
10568TIP3    H153119   6.260   0.645   5.177 -3.5702  2.2009  0.0296
10568TIP3    H253120   6.217   0.545   5.072 -0.1315 -0.8404  1.3878
10569TIP3   OH253121   5.592   3.700  11.810 -0.4179 -0.1035 -0.3866
10569TIP3    H153122   5.646   3.715  11.888 -0.9413 -1.0931  0.1706
10569TIP3    H253123   5.609   3.610  11.785  0.1419  0.3647 -1.7392
10570TIP3   OH253124   3.732   1.357  15.299 -0.4878  0.0730  0.3560
10570TIP3    H153125   3.741   1.261  15.300  0.6511  0.1790  1.2994
10570TIP3    H253126   3.641   1.372  15.273 -1.6227 -1.3208  3.3174
10571TIP3   OH253127   3.985   3.808  13.942 -0.2295 -0.0627  0.5117
10571TIP3    H153128   4.078   3.789  13.953 -0.4111 -2.5606 -1.5884
10571TIP3    H253129   3.942   3.760  14.012 -0.0947 -0.7637  0.1150
10572TIP3   OH253130   0.811   2.628  16.524 -0.2695 -0.2574 -0.0517
10572TIP3    H153131   0.756   2.620  16.602 -0.0936  0.4042  0.1367
10572TIP3    H253132   0.834   2.720  16.520 -1.6400  0.0400 -1.7998
10573TIP3   OH253133   3.773   5.461  12.180  0.5188  0.0243 -0.2826
10573TIP3    H153134   3.781   5.525  12.110  0.2653  0.8988  0.4769
10573TIP3    H253135   3.803   5.507  12.259  1.5909 -1.1966  0.0497
10574TIP3   OH253136   3.183   4.191  16.972  0.3600  0.0674  0.1422
10574TIP3    H153137   3.196   4.177  16.878 -3.0824  0.7118 -0.4656
10574TIP3    H253138   3.240   4.265  16.992  1.1814 -0.1090 -1.3994
10575TIP3   OH253139   2.340   0.929   0.628  0.1423 -0.3669  0.3020
10575TIP3    H153140   2.262   0.936   0.573  1.3965  0.1423 -1.4785
10575TIP3    H253141   2.356   0.835   0.637 -0.6313 -0.4707  0.6322
10576TIP3   OH253142   3.868   6.723   3.036  0.3104  0.0827  0.2962
10576TIP3    H153143   3.929   6.783   3.079 -1.1353 -0.3164  2.9751
10576TIP3    H253144   3.856   6.652   3.099  0.2493 -1.9415 -1.9070
10577TIP3   OH253145   4.787   4.336  13.799 -0.0159 -0.2043 -0.1852
10577TIP3    H153146   4.753   4.410  13.850 -0.7558 -0.3083 -0.5282
10577TIP3    H253147   4.716   4.272  13.798  1.4785 -1.9714  2.1420
10578TIP3   OH253148   5.311   3.003   3.603  0.2586  0.5186  0.8288
10578TIP3    H153149   5.353   3.077   3.647 -0.0993  1.0868  0.2214
10578TIP3    H253150   5.359   2.994   3.521  1.2692 -0.8793  1.5507
10579TIP3   OH253151   5.014   4.773   2.060  0.3893  0.2604  0.9958
10579TIP3    H153152   4.986   4.814   1.978 -2.2117 -1.8502  0.7698
10579TIP3    H253153   5.053   4.690   2.032  0.9976  0.2752  1.7910
10580TIP3   OH253154   5.484   2.752  11.601 -0.4016 -0.5448  0.0472
10580TIP3    H153155   5.483   2.787  11.512 -2.4500 -1.3996 -0.2932
10580TIP3    H253156   5.401   2.781  11.639 -0.4432 -1.8688  1.0097
10581TIP3   OH253157   1.115   3.289   0.385 -0.1368 -0.1009 -0.5355
10581TIP3    H153158   1.093   3.211   0.437 -1.6384  0.5201 -0.2127
10581TIP3    H253159   1.099   3.262   0.295 -0.6220 -0.1894 -0.4281
10582TIP3   OH253160   1.227   0.235   3.686 -0.3233  0.3447  0.3692
10582TIP3    H153161   1.203   0.302   3.622  2.3513  0.9429 -0.0686
10582TIP3    H253162   1.156   0.171   3.681 -1.1567  1.3833 -1.7518
10583TIP3   OH253163   3.137   3.862  13.099 -0.6193 -0.2485  0.1816
10583TIP3    H153164   3.195   3.801  13.053 -1.5482 -1.1834  0.2299
10583TIP3    H253165   3.194   3.935  13.124  0.0627 -0.1108 -1.7150
10584TIP3   OH253166   0.670   2.589  11.847  1.2897 -0.1149 -0.1001
10584TIP3    H153167   0.663   2.590  11.943 -0.9496  0.6020 -0.2445
10584TIP3    H253168   0.582   2.568  11.817  1.6515  1.0497 -2.0419
10585TIP3   OH253169   3.326   2.212   2.738 -0.3513  0.3141  0.1649
10585TIP3    H153170   3.275   2.214   2.657  0.9232 -0.5916 -0.6836
10585TIP3    H253171   3.282   2.147   2.793 -1.0351  0.6999  0.0662
10586TIP3   OH253172   1.823   5.406   1.241 -0.0671 -0.2277  0.2361
10586TIP3    H153173   1.864   5.483   1.201 -0.3206 -0.1261  0.1733
10586TIP3    H253174   1.802   5.349   1.167 -2.3829  0.8413  0.0257
10587TIP3   OH253175   4.283   6.117   2.327 -0.2356 -0.2118 -0.3725
10587TIP3    H153176   4.234   6.036   2.310  0.1470 -0.6389  0.5235
10587TIP3    H253177   4.373   6.088   2.338 -0.0542  0.3697 -0.3279
10588TIP3   OH253178   2.078   4.579   4.760  0.3482  0.1256  0.4707
10588TIP3    H153179   2.070   4.509   4.694  1.0449  1.0281 -0.5976
10588TIP3    H253180   2.121   4.537   4.834  0.4937 -0.6623 -0.0498
10589TIP3   OH253181   1.032   4.592  15.598  0.0910 -0.4046  0.5290
10589TIP3    H153182   1.125   4.584  15.622  0.3527  1.6008  0.1986
10589TIP3    H253183   1.028   4.561  15.508  0.4449 -0.4471  0.5264
10590TIP3   OH253184   5.996   2.887  13.235  0.0964 -0.2371 -0.3768
10590TIP3    H153185   5.956   2.811  13.277  0.6184 -0.5812 -0.4889
10590TIP3    H253186   5.963   2.886  13.145  1.4731 -1.3682 -0.8920
10591TIP3   OH253187   0.574   4.734  14.552  0.4718 -0.3217  0.4831
10591TIP3    H153188   0.531   4.778  14.479 -0.1298  0.7509  1.4571
10591TIP3    H253189   0.661   4.712  14.520  0.5997  1.1343 -0.1964
10592TIP3   OH253190   0.028   4.412  16.191 -0.4504  0.2406  0.2530
10592TIP3    H153191   0.043   4.359  16.114 -0.2363  1.6799 -0.7213
10592TIP3    H253192   0.011   4.349  16.261 -0.0737 -1.0935 -0.8340
10593TIP3   OH253193   6.481   1.939   2.401 -0.9066 -0.4143 -0.3061
10593TIP3    H153194   6.518   1.851   2.393 -0.7406 -0.3428 -0.3280
10593TIP3    H253195   6.557   1.996   2.411 -1.0865 -0.4532  1.3910
10594TIP3   OH253196   0.655   3.653   4.923 -0.4043 -0.6298 -0.2293
10594TIP3    H153197   0.718   3.590   4.888  0.0149 -0.9839  1.1350
10594TIP3    H253198   0.649   3.631   5.016  0.1962  1.7215  0.3903
10595TIP3   OH253199   5.928   1.880  17.075 -0.2016  0.1506 -0.0849
10595TIP3    H153200   5.840   1.895  17.039 -0.4532  0.9147  0.8158
10595TIP3    H253201   5.966   1.813  17.018 -0.0147  2.3762 -2.7146
10596TIP3   OH253202   4.792   3.193  14.109 -0.5105 -0.4490 -0.2611
10596TIP3    H153203   4.723   3.179  14.174 -1.6834 -1.0285 -1.6140
10596TIP3    H253204   4.782   3.285  14.083  0.5985  0.0745  1.0714
10597TIP3   OH253205   4.509   2.444   4.736  0.3929  0.1152  0.3092
10597TIP3    H153206   4.426   2.464   4.693  0.9456  0.2480 -0.6932
10597TIP3    H253207   4.541   2.529   4.768  0.9404  0.3064 -0.7359
10598TIP3   OH253208   0.595   4.405   3.244 -0.2183 -0.3674 -0.0906
10598TIP3    H153209   0.506   4.377   3.221 -0.4553  1.1747 -1.1304
10598TIP3    H253210   0.584   4.494   3.276  0.6713 -0.9892  2.0103
10599TIP3   OH253211   1.911   5.340  15.562  0.1339 -0.2920 -0.3181
10599TIP3    H153212   1.955   5.421  15.536  0.4854 -0.5046 -0.3827
10599TIP3    H253213   1.849   5.322  15.491  0.9135 -0.7378 -0.8847
10600TIP3   OH253214   1.063   2.797   3.367  0.1032 -0.3144 -0.8838
10600TIP3    H153215   1.109   2.793   3.283  1.3161 -0.8831 -0.1919
10600TIP3    H253216   0.976   2.831   3.344 -0.1844 -2.1458 -2.6075
10601TIP3   OH253217   6.780   0.770   4.579 -0.3423 -0.3585  0.4560
10601TIP3    H153218   6.861   0.728   4.548 -0.6070 -1.1581  0.8370
10601TIP3    H253219   6.810   0.850   4.622  0.2446 -0.6213  0.5502
10602TIP3   OH253220   6.435   5.703  13.700  0.0341 -0.5981  0.4905
10602TIP3    H153221   6.398   5.691  13.788 -1.3735  0.5544  0.0714
10602TIP3    H253222   6.449   5.797  13.693  0.6796 -0.7520 -0.3150
10603TIP3   OH253223   5.957   1.320  16.697 -0.5691  0.3686  0.1529
10603TIP3    H153224   5.974   1.373  16.776  1.7144  0.6598 -0.4998
10603TIP3    H253225   6.009   1.241  16.710  0.6194  0.8675 -1.5157
10604TIP3   OH253226   0.090   3.920  13.289  0.0007 -0.3634 -0.0043
10604TIP3    H153227   0.115   3.859  13.359 -0.8533  1.1122  1.6341
10604TIP3    H253228   0.104   3.871  13.208  2.7201 -1.5166  1.0999
10605TIP3   OH253229   3.934   4.615  14.796  0.0970  0.3446  0.0591
10605TIP3    H153230   3.920   4.690  14.738  0.4068  1.6007  1.5549
10605TIP3    H253231   3.926   4.538  14.739 -0.7775  1.4851 -1.3967
10606TIP3   OH253232   3.842   2.981   1.914 -0.0867 -0.0897 -0.8072
10606TIP3    H153233   3.852   2.950   2.004 -3.0088  0.3869 -0.2708
10606TIP3    H253234   3.924   2.957   1.871  0.8141 -1.5346  1.6293
10607TIP3   OH253235   5.141   2.894   3.381 -0.4999 -0.3023 -0.2573
10607TIP3    H153236   5.228   2.907   3.420 -0.6925  0.9946 -0.2239
10607TIP3    H253237   5.081   2.902   3.455 -0.7656  0.6218 -0.5716
10608TIP3   OH253238   1.323   1.392  14.352 -0.3170  0.2241  0.5140
10608TIP3    H153239   1.263   1.427  14.286 -1.1901 -0.6042  0.8585
10608TIP3    H253240   1.276   1.402  14.435 -0.0238 -0.5203  0.7739
10609TIP3   OH253241   1.902   2.019  11.262  0.2527  0.2093  0.3122
10609TIP3    H153242   1.947   2.088  11.311 -0.0420 -0.2063  1.1726
10609TIP3    H253243   1.820   2.059  11.235 -0.8629 -0.4247  2.5969
10610TIP3   OH253244   1.503   0.810   4.001  0.5749 -0.2346 -0.4806
10610TIP3    H153245   1.549   0.734   3.964 -0.4209 -1.3094  0.4694
10610TIP3    H253246   1.425   0.820   3.945 -0.0932 -0.8666  0.3321
10611TIP3   OH253247   3.769   3.274   5.166  0.5790 -0.4609 -0.3480
10611TIP3    H153248   3.830   3.226   5.111  2.3158  1.5631 -0.2495
10611TIP3    H253249   3.818   3.351   5.196 -0.5353 -1.1613  3.5067
10612TIP3   OH253250   4.965   3.241   0.624 -0.3553 -0.4981  0.5149
10612TIP3    H153251   4.927   3.318   0.581  0.8123 -0.9361 -1.3395
10612TIP3    H253252   4.897   3.214   0.686 -1.3581  1.1926  0.2169
10613TIP3   OH253253   2.932   6.544   0.396  0.1199  0.2767  0.1200
10613TIP3    H153254   2.891   6.611   0.341  0.9794  0.2315 -0.5879
10613TIP3    H253255   2.861   6.485   0.420 -0.1034 -0.2617 -1.7595
10614TIP3   OH253256   4.829   5.783   3.227  0.1303  0.5726  0.3431
10614TIP3    H153257   4.772   5.825   3.163  2.1888  1.7808 -0.7412
10614TIP3    H253258   4.769   5.748   3.293 -1.9227  0.6469 -1.4399
10615TIP3   OH253259   6.189   6.305   0.571  0.0094 -0.4209  0.1114
10615TIP3    H153260   6.280   6.283   0.595 -0.2696  0.0477  1.7013
10615TIP3    H253261   6.143   6.222   0.575  0.2077 -0.5323  0.1102
10616TIP3   OH253262   1.843   5.239  13.130 -0.2558 -0.4741  0.1664
10616TIP3    H153263   1.863   5.329  13.105 -0.7442 -0.8795 -1.7043
10616TIP3    H253264   1.765   5.216  13.080 -1.1757 -1.3689  1.9512
10617TIP3   OH253265   5.917   2.187   2.096 -0.9019  0.0639  0.0245
10617TIP3    H153266   5.836   2.142   2.121 -0.7601  0.8254  2.0021
10617TIP3    H253267   5.965   2.124   2.044 -2.7948 -0.3802 -1.2329
10618TIP3   OH253268   2.507   0.247   3.593 -0.0417 -0.3388  0.0438
10618TIP3    H153269   2.467   0.242   3.506  2.6467  1.7032 -1.3855
10618TIP3    H253270   2.576   0.180   3.591 -1.1607 -1.5682  1.3094
10619TIP3   OH253271   4.169   4.231   0.616 -0.3489 -0.5780  0.4574
10619TIP3    H153272   4.156   4.137   0.611  0.8780 -0.8266  1.6386
10619TIP3    H253273   4.200   4.255   0.528 -1.4006 -1.1371 -0.0755
10620TIP3   OH253274   1.234   5.735   4.848  0.8143 -0.5430  0.3440
10620TIP3    H153275   1.296   5.689   4.792  0.4861  0.8150 -1.1815
10620TIP3    H253276   1.152   5.735   4.798  0.4089  0.3631  0.9804
10621TIP3   OH253277   3.031   1.997   4.062 -0.2245 -0.3318  0.5088
10621TIP3    H153278   3.119   2.024   4.034  1.1688 -3.2642  1.8521
10621TIP3    H253279   2.997   1.946   3.989 -0.2472 -0.3669  0.5438
10622TIP3   OH253280   3.602   0.967   3.642  0.1526  0.7077 -0.1585
10622TIP3    H153281   3.653   1.042   3.612 -1.6371  2.0293  0.0361
10622TIP3    H253282   3.572   0.991   3.730 -1.7109  0.4416 -0.6908
10623TIP3   OH253283   5.920   1.910  11.780 -0.5768  0.2117 -0.2306
10623TIP3    H153284   6.007   1.928  11.745 -0.9514  0.7328 -0.9324
10623TIP3    H253285   5.870   1.878  11.704 -1.2149  0.7121 -0.0317
10624TIP3   OH253286   2.774   5.784  14.278  0.1534 -0.0548 -0.1464
10624TIP3    H153287   2.684   5.794  14.246 -0.0008 -0.6543  0.0993
10624TIP3    H253288   2.765   5.780  14.374  0.4767  0.2402 -0.1016
10625TIP3   OH253289   0.761   0.916  13.159 -0.1599 -0.1258  0.4985
10625TIP3    H153290   0.833   0.911  13.223 -1.0197 -0.0450  1.4925
10625TIP3    H253291   0.682   0.913  13.213 -0.9055  2.7155 -0.3425
10626TIP3   OH253292   6.732   6.178   1.827  0.2066  0.2617 -0.1052
10626TIP3    H153293   6.756   6.092   1.862  2.1977  0.8238 -0.0242
10626TIP3    H253294   6.658   6.205   1.881 -0.0601 -1.1281  0.2651
10627TIP3   OH253295   0.864   2.425   5.785 -0.3313 -0.4427  0.2611
10627TIP3    H153296   0.836   2.510   5.817 -1.5187 -0.8518  0.3272
10627TIP3    H253297   0.863   2.434   5.689  0.8276  0.0138  0.2804
10628TIP3   OH253298   0.879   1.253   2.945  0.2054  0.2957  0.1768
10628TIP3    H153299   0.786   1.262   2.925  0.0650 -0.0025  0.6890
10628TIP3    H253300   0.882   1.232   3.038  0.8448  1.5832  0.4697
10629TIP3   OH253301   4.647   2.367   5.720  0.3501 -0.3370  0.3324
10629TIP3    H153302   4.696   2.289   5.694 -0.2301 -0.0530 -1.7828
10629TIP3    H253303   4.563   2.358   5.675 -0.2272  0.8583  1.1483
10630TIP3   OH253304   0.503   1.958  11.294  0.0959 -0.0381  0.1903
10630TIP3    H153305   0.575   2.015  11.268  0.5582 -0.7285 -0.0702
10630TIP3    H253306   0.485   1.905  11.216  0.4493 -1.0342  0.7727
10631TIP3   OH253307   4.121   1.809   4.764  0.4857  0.4064  0.1687
10631TIP3    H153308   4.156   1.785   4.678  0.5136  0.4722  0.1616
10631TIP3    H253309   4.176   1.882   4.793  1.0281 -0.1905  0.6329
10632TIP3   OH253310   6.507   1.324   2.039  0.2567 -0.1268  0.1361
10632TIP3    H153311   6.481   1.259   2.104 -1.7045 -0.7238 -1.1780
10632TIP3    H253312   6.524   1.404   2.090 -3.7030  0.1425  1.2212
10633TIP3   OH253313   4.664   2.184  15.603  0.1529 -0.4298 -0.1478
10633TIP3    H153314   4.642   2.240  15.678  0.6753 -0.5354  0.0890
10633TIP3    H253315   4.674   2.097  15.641 -3.2833 -1.2175 -0.9119
10634TIP3   OH253316   6.628   3.764   0.538 -0.4150  0.3837 -0.8140
10634TIP3    H153317   6.639   3.788   0.446 -0.2043 -1.4588 -1.2872
10634TIP3    H253318   6.717   3.758   0.572 -0.4923  1.0532 -0.4888
10635TIP3   OH253319   1.009   4.820  13.639  0.2453 -0.3880 -0.3600
10635TIP3    H153320   0.942   4.795  13.575  0.3534  0.2568 -0.7354
10635TIP3    H253321   1.091   4.790  13.599  0.3626  0.4402 -0.7556
10636TIP3   OH253322   1.389   6.232   0.205  0.0842 -0.4057  0.0973
10636TIP3    H153323   1.453   6.237   0.134  0.7087 -1.3677  0.5831
10636TIP3    H253324   1.304   6.229   0.160  0.3962  0.3814 -0.5613
10637TIP3   OH253325   0.824   5.665  11.426 -0.0896 -0.5076  0.3756
10637TIP3    H153326   0.831   5.571  11.443 -0.8560 -0.7443 -0.5336
10637TIP3    H253327   0.914   5.697  11.428 -0.0501 -0.7005  3.7178
10638TIP3   OH253328   6.303   2.707   2.156 -0.2615 -0.1276  0.5079
10638TIP3    H153329   6.283   2.796   2.126 -0.9299 -0.7391 -0.9092
10638TIP3    H253330   6.379   2.717   2.213  0.5157  1.1878 -0.7351
10639TIP3   OH253331   0.117   4.517  13.634  0.5727 -0.2624  0.0991
10639TIP3    H153332   0.033   4.528  13.678  1.1942  0.7233  1.0574
10639TIP3    H253333   0.125   4.422  13.621  0.6642 -0.6411  2.6915
10640TIP3   OH253334   6.395   0.566   6.026 -0.3506  0.5580  0.2875
10640TIP3    H153335   6.315   0.519   5.999 -1.1756  1.2312  1.4995
10640TIP3    H253336   6.452   0.497   6.059 -0.9376  0.2053  0.5881
10641TIP3   OH253337   0.090   5.950   5.623 -0.5677 -0.2230  0.0320
10641TIP3    H153338   0.055   5.904   5.700  1.6665 -0.7390  0.7849
10641TIP3    H253339   0.040   6.032   5.619 -2.8942 -1.5793  0.1328
10642TIP3   OH253340   2.020   5.180   5.336 -0.0494 -0.2680 -0.0951
10642TIP3    H153341   2.034   5.085   5.333  0.9991 -0.1447  0.5626
10642TIP3    H253342   1.984   5.202   5.250  0.5666 -1.1311 -0.5786
10643TIP3   OH253343   4.800   5.301  10.545 -0.0714  0.2096 -0.5245
10643TIP3    H153344   4.858   5.261  10.610  0.6507  0.3674 -1.0794
10643TIP3    H253345   4.714   5.264  10.565  0.0205  0.7537  0.9548
10644TIP3   OH253346   2.066   4.633   3.760 -0.1598 -0.0436  0.0188
10644TIP3    H153347   1.990   4.690   3.772  0.6267  1.1260 -0.5130
10644TIP3    H253348   2.053   4.593   3.674  0.4814  1.1573 -0.6376
10645TIP3   OH253349   4.412   6.523   4.428  0.1014 -0.0226 -0.6997
10645TIP3    H153350   4.317   6.525   4.424  0.0619 -0.5236 -0.1210
10645TIP3    H253351   4.433   6.430   4.441  0.6942 -0.0109 -1.5152
10646TIP3   OH253352   3.333   3.205  14.025  0.6559  0.5515  0.3178
10646TIP3    H153353   3.297   3.194  13.937 -0.6750 -1.1735  1.0495
10646TIP3    H253354   3.344   3.300  14.034 -0.2940  0.8423 -1.2820
10647TIP3   OH253355   0.500   0.531   3.526 -0.6217 -0.1281 -0.1203
10647TIP3    H153356   0.446   0.608   3.507  0.1614  0.9161  1.7145
10647TIP3    H253357   0.448   0.480   3.588 -0.6649 -0.4825 -0.4552
10648TIP3   OH253358   6.360   6.418  15.818 -0.1787 -0.4633  0.0919
10648TIP3    H153359   6.360   6.324  15.799 -2.2043 -0.1143 -1.8623
10648TIP3    H253360   6.366   6.460  15.732 -0.1957  1.2069  0.8770
10649TIP3   OH253361   6.216   3.422   3.612 -0.0378  0.6255  0.0627
10649TIP3    H153362   6.276   3.467   3.553 -0.7682  1.8771  0.2736
10649TIP3    H253363   6.268   3.349   3.648  0.9366  0.9105 -0.7636
10650TIP3   OH253364   3.424   5.276   1.315 -0.0690  0.5579 -0.4824
10650TIP3    H153365   3.516   5.250   1.304 -0.0305  0.5982 -0.2580
10650TIP3    H253366   3.406   5.263   1.408 -0.0331  1.3825 -0.3512
10651TIP3   OH253367   2.521   2.273   0.827 -0.4837  0.5779  0.1250
10651TIP3    H153368   2.556   2.213   0.894 -0.6979 -1.3405 -1.4163
10651TIP3    H253369   2.579   2.261   0.752 -0.5003  2.3812 -0.1915
10652TIP3   OH253370   5.025   1.658   0.872 -0.4946  0.0971 -0.3711
10652TIP3    H153371   5.074   1.625   0.797  1.0962 -0.5623  0.9158
10652TIP3    H253372   5.010   1.750   0.853  0.6877  0.1497 -1.0916
10653TIP3   OH253373   3.483   4.001   4.972  0.4523  0.5174  0.1018
10653TIP3    H153374   3.414   3.943   5.006  1.1243 -2.2308 -2.9682
10653TIP3    H253375   3.564   3.966   5.010  0.8862 -0.8057 -1.9539
10654TIP3   OH253376   2.253   6.644   4.933 -0.3893 -0.5249  0.1337
10654TIP3    H153377   2.255   6.597   5.017  0.7698 -0.9094 -0.1012
10654TIP3    H253378   2.197   6.720   4.950  0.9787  0.1945  1.6903
10655TIP3   OH253379   6.123   5.086  15.258  0.0093 -0.0301 -0.2662
10655TIP3    H153380   6.131   5.002  15.213  0.7561 -0.4246  0.5926
10655TIP3    H253381   6.097   5.148  15.189 -1.4139 -1.1155 -0.7328
10656TIP3   OH253382   5.883   2.977  12.635 -0.0429  0.2112  0.8550
10656TIP3    H153383   5.822   3.050  12.634 -0.3039  0.0076  1.5192
10656TIP3    H253384   5.832   2.902  12.606  0.0499  0.1557  0.8325
10657TIP3   OH253385   2.714   2.121  13.823 -0.2370  0.2930  0.1957
10657TIP3    H153386   2.643   2.089  13.766 -0.2642  1.1350 -0.2510
10657TIP3    H253387   2.687   2.094  13.911  0.0462 -1.4510 -0.2351
10658TIP3   OH253388   3.518   2.407  14.565  0.1225  0.6754 -0.3032
10658TIP3    H153389   3.487   2.472  14.628 -2.2635 -1.9947  1.4453
10658TIP3    H253390   3.438   2.376  14.522  1.0117 -2.1382 -0.0119
10659TIP3   OH253391   2.967   5.139   5.459  0.2350  0.1180 -0.0042
10659TIP3    H153392   2.925   5.166   5.378 -0.0036  0.7907  0.3394
10659TIP3    H253393   3.042   5.086   5.431  0.3044  0.5633 -0.6647
10660TIP3   OH253394   3.900   5.495   4.859 -0.2786 -0.2491  0.5146
10660TIP3    H153395   3.987   5.484   4.820 -0.1863  0.0911  0.6221
10660TIP3    H253396   3.840   5.458   4.795 -0.1635  0.6820 -0.1429
10661TIP3   OH253397   2.586   6.567   6.371  0.0428 -0.6126  0.0239
10661TIP3    H153398   2.592   6.662   6.383 -0.9571 -0.3809 -1.2246
10661TIP3    H253399   2.664   6.545   6.319  1.4835 -0.8295  2.2153
10662TIP3   OH253400   2.924   4.840   1.414 -0.1312 -0.0585  0.0218
10662TIP3    H153401   2.865   4.793   1.355  1.8886 -3.2168  0.4063
10662TIP3    H253402   3.007   4.794   1.407  1.3673  2.1726  2.1031
10663TIP3   OH253403   1.431   4.248   2.761 -0.1379  0.3000  0.2973
10663TIP3    H153404   1.447   4.189   2.834 -1.3432 -1.7345 -1.0342
10663TIP3    H253405   1.515   4.252   2.714 -0.4637 -1.6377 -0.4907
10664TIP3   OH253406   2.365   5.563  14.080  0.1230 -0.0231 -0.0303
10664TIP3    H153407   2.439   5.510  14.110 -0.6027 -0.4271  1.0599
10664TIP3    H253408   2.289   5.506  14.089 -0.2318  0.1016 -1.9261
10665TIP3   OH253409   6.477   6.664   5.773  0.3634  0.0828 -0.1816
10665TIP3    H153410   6.400   6.679   5.719  0.8501  0.0861 -0.8761
10665TIP3    H253411   6.460   6.714   5.853 -0.4352 -0.0717 -0.2499
10666TIP3   OH253412   1.895   4.753   2.479  0.0772 -0.1597  0.3018
10666TIP3    H153413   1.949   4.701   2.538  0.3434 -1.8575 -1.3849
10666TIP3    H253414   1.843   4.809   2.536 -0.8703 -2.9301  2.1924
10667TIP3   OH253415   0.416   6.276  13.827  0.2946 -0.1615 -0.5477
10667TIP3    H153416   0.394   6.363  13.792  0.9176 -1.1226 -3.4742
10667TIP3    H253417   0.418   6.219  13.750 -1.8861 -3.1822  1.5223
10668TIP3   OH253418   3.310   4.227  16.073 -0.6951  0.1859 -0.0913
10668TIP3    H153419   3.349   4.293  16.016 -0.0306  0.1046  0.2761
10668TIP3    H253420   3.384   4.177  16.107 -1.0936  0.2488  0.8693
10669TIP3   OH253421   4.792   1.954   3.767 -0.2992  0.7491  0.0144
10669TIP3    H153422   4.874   1.979   3.810 -0.7289  1.9761  0.1556
10669TIP3    H253423   4.803   1.980   3.676 -0.0831 -0.1691 -0.2202
10670TIP3   OH253424   4.898   3.477   5.679 -0.2151 -0.1575 -0.4682
10670TIP3    H153425   4.971   3.539   5.683 -0.5103  0.0682  1.5476
10670TIP3    H253426   4.823   3.524   5.714 -1.0828 -0.7860 -1.4263
10671TIP3   OH253427   1.719   5.234  15.741 -0.3451  0.0655 -0.3540
10671TIP3    H153428   1.735   5.277  15.825 -1.4950  1.8354 -1.0179
10671TIP3    H253429   1.803   5.239  15.695 -0.1784  0.6487  0.0044
10672TIP3   OH253430   5.989   4.445  17.207  0.4479 -0.1976 -0.5225
10672TIP3    H153431   5.980   4.473  17.299 -1.4410  0.4508 -0.8689
10672TIP3    H253432   5.902   4.410  17.185  1.4496 -2.1359 -1.4908
10673TIP3   OH253433   6.488   3.482   1.070  0.8189 -0.0223 -0.5396
10673TIP3    H153434   6.542   3.558   1.052  1.0186  0.1095  0.6054
10673TIP3    H253435   6.470   3.486   1.164 -0.6213 -0.4277 -0.7841
10674TIP3   OH253436   3.166   4.437   4.447 -0.0291 -0.4276  0.0197
10674TIP3    H153437   3.128   4.505   4.391  0.5442 -0.2021 -0.1014
10674TIP3    H253438   3.250   4.417   4.406  0.7071  0.2336  1.1853
10675TIP3   OH253439   1.419   6.786   6.136 -0.3435  0.1325 -0.1694
10675TIP3    H153440   1.325   6.792   6.116  0.0846 -0.5289 -2.5646
10675TIP3    H253441   1.442   6.696   6.116  0.8029  0.2745  0.4673
10676TIP3   OH253442   5.809   4.967   1.505  0.2407 -0.0750  0.3361
10676TIP3    H153443   5.888   4.957   1.558  0.1428 -0.6251  0.3842
10676TIP3    H253444   5.771   5.050   1.533  1.3515  0.6988 -0.4201
10677TIP3   OH253445   0.970   0.477  15.583  0.0765 -0.2985 -0.5319
10677TIP3    H153446   0.955   0.409  15.517 -2.7017  0.6252 -0.8900
10677TIP3    H253447   0.887   0.524  15.590  1.1068  1.3091  1.7370
10678TIP3   OH253448   3.508   3.042  16.962  0.2948 -0.3690 -0.1480
10678TIP3    H153449   3.459   2.974  17.009 -0.2267 -0.6648 -1.1086
10678TIP3    H253450   3.542   3.099  17.031 -2.1990  0.3750  0.4966
10679TIP3   OH253451   2.494   1.096  14.290  0.2258 -0.1494 -0.1027
10679TIP3    H153452   2.571   1.045  14.266  0.6760  0.0719  0.8388
10679TIP3    H253453   2.437   1.092  14.213  1.1616 -0.3362 -0.7869
10680TIP3   OH253454   5.654   5.318   4.103  0.2864  0.4396  0.0091
10680TIP3    H153455   5.750   5.325   4.098  0.2046  1.9212  0.2371
10680TIP3    H253456   5.631   5.254   4.036  1.6479 -1.8365  1.6637
10681TIP3   OH253457   5.896   0.026   3.025 -0.2069 -0.0523  0.2304
10681TIP3    H153458   5.965  -0.004   2.967 -0.7590 -0.4653 -0.2159
10681TIP3    H253459   5.941   0.078   3.091  0.7060 -1.5122  0.7739
10682TIP3   OH253460   0.991   2.364   3.167 -0.6016 -0.8077 -0.3567
10682TIP3    H153461   1.038   2.281   3.174 -0.6699 -1.0336 -2.4477
10682TIP3    H253462   0.913   2.352   3.220 -1.0004 -2.3587 -1.2868
10683TIP3   OH253463   1.553   3.102   5.214  0.4680 -0.3293 -0.2125
10683TIP3    H153464   1.635   3.110   5.166  1.1647  2.1467  1.3176
10683TIP3    H253465   1.498   3.173   5.179  0.6275  0.8669  1.8652
10684TIP3   OH253466   0.894   2.619   4.926  0.5328 -0.0713  0.0093
10684TIP3    H153467   0.861   2.615   4.836 -0.0806 -0.1634  0.2428
10684TIP3    H253468   0.883   2.711   4.951  0.6050 -0.0690  0.0330
10685TIP3   OH253469   4.153   2.236   1.932 -0.2476  0.5558 -0.1708
10685TIP3    H153470   4.177   2.176   1.861  1.7016 -0.1397  1.0276
10685TIP3    H253471   4.149   2.322   1.890 -0.0499  0.0218 -1.3135
10686TIP3   OH253472   4.915   6.143  13.361 -0.0343 -0.1938 -0.5913
10686TIP3    H153473   4.916   6.208  13.291  0.2104  0.5370  0.0777
10686TIP3    H253474   4.925   6.059  13.317  1.0889  0.3311 -1.3492
10687TIP3   OH253475   5.531   3.251  15.875 -0.2176 -0.1697 -0.0231
10687TIP3    H153476   5.549   3.180  15.936  0.6580  0.1882  0.1416
10687TIP3    H253477   5.591   3.321  15.901  0.1453 -0.0018 -1.2831
10688TIP3   OH253478   6.623   4.097  14.337 -0.1848 -0.0085  0.8954
10688TIP3    H153479   6.595   4.188  14.333  0.3120  0.0821 -1.3756
10688TIP3    H253480   6.571   4.053  14.270  2.5752 -0.5079 -1.0124
10689TIP3   OH253481   2.014   4.810   1.142 -0.5060 -0.2662 -0.0653
10689TIP3    H153482   2.025   4.737   1.203  2.8685  0.0939 -0.1547
10689TIP3    H253483   1.971   4.878   1.194  0.2190 -0.8136  1.2780
10690TIP3   OH253484   4.523   6.040  14.569  0.4675  0.2978 -0.0412
10690TIP3    H153485   4.459   6.071  14.505  1.0948  0.5710 -0.5426
10690TIP3    H253486   4.505   6.090  14.648 -1.0890 -0.8848  0.3827
10691TIP3   OH253487   6.031   1.763   2.634 -0.0420 -0.4081 -0.7412
10691TIP3    H153488   5.961   1.822   2.662 -0.9060 -0.3529 -2.9181
10691TIP3    H253489   6.108   1.819   2.624 -0.8529  0.4028 -2.7812
10692TIP3   OH253490   1.681   5.097  12.736 -0.1144  0.4871 -0.0249
10692TIP3    H153491   1.687   5.045  12.816 -0.5294 -0.6919 -0.7377
10692TIP3    H253492   1.764   5.081  12.691 -0.5024 -0.1079 -0.5535
10693TIP3   OH253493   3.590   2.649  16.887  0.5331  0.0593 -0.6222
10693TIP3    H153494   3.662   2.587  16.874  0.5390  0.2321 -1.4476
10693TIP3    H253495   3.527   2.601  16.941  0.3922 -0.7869 -1.5160
10694TIP3   OH253496   4.925   0.142  11.828  0.6540 -0.9147  0.4490
10694TIP3    H153497   4.861   0.179  11.889 -1.2107  1.6555 -2.8871
10694TIP3    H253498   4.875   0.081  11.775  1.5251 -0.7676 -0.5588
10695TIP3   OH253499   3.285   0.997   5.925 -0.2557 -0.8213 -0.0110
10695TIP3    H153500   3.352   0.929   5.926  0.2216 -0.3863 -1.3546
10695TIP3    H253501   3.328   1.074   5.962 -0.1914 -0.7045 -0.3280
10696TIP3   OH253502   0.028   3.687   5.360 -0.1618 -0.0519  0.4958
10696TIP3    H153503  -0.041   3.687   5.426 -0.9006  0.3322 -0.2703
10696TIP3    H253504   0.007   3.614   5.303  0.4362 -0.3374  0.6289
10697TIP3   OH253505   2.865   3.548   5.107  0.5201 -0.8583 -0.0059
10697TIP3    H153506   2.879   3.608   5.180 -1.0488 -1.0424  0.4578
10697TIP3    H253507   2.843   3.465   5.147  1.9874 -1.5721 -0.6662
10698TIP3   OH253508   3.006   0.385   4.920  0.5170 -0.0028  0.0322
10698TIP3    H153509   2.941   0.436   4.873  1.0612 -0.3614 -1.1140
10698TIP3    H253510   2.955   0.328   4.978 -0.1636  0.0831 -0.4854
10699TIP3   OH253511   3.613   6.178   0.018  0.4512 -0.2431  0.6509
10699TIP3    H153512   3.566   6.215   0.093  0.9619  1.8833 -0.0316
10699TIP3    H253513   3.557   6.197  -0.057  1.5921  0.8310  0.0536
10700TIP3   OH253514   5.085   0.663  13.999  0.4432  0.2446 -0.1222
10700TIP3    H153515   5.173   0.674  13.963  1.4744  1.7055  2.6757
10700TIP3    H253516   5.037   0.740  13.970  0.2913 -0.2037 -1.0668
10701TIP3   OH253517   0.897   6.639  16.461  0.2157  0.0890 -0.3341
10701TIP3    H153518   0.886   6.717  16.406  1.2511  0.8378  0.4804
10701TIP3    H253519   0.991   6.635  16.478  0.2310 -1.6418 -0.7769
10702TIP3   OH253520   5.963   0.367  16.860 -0.2484 -0.7210  0.7128
10702TIP3    H153521   5.969   0.348  16.954  0.9613 -1.2742  0.5308
10702TIP3    H253522   6.024   0.439  16.846 -0.6540 -0.4341  0.3913
10703TIP3   OH253523   2.867   5.215  13.514  0.0468  0.1067 -0.4823
10703TIP3    H153524   2.778   5.192  13.488  0.4668  0.1744 -1.9992
10703TIP3    H253525   2.894   5.144  13.573 -0.8773 -0.1016 -0.3040
10704TIP3   OH253526   4.778   2.660   3.481  0.1567  0.3060  0.2274
10704TIP3    H153527   4.750   2.703   3.563  3.2646  0.0131  1.5280
10704TIP3    H253528   4.797   2.570   3.507  1.6504  0.3451 -0.7013
10705TIP3   OH253529   4.800   1.875  11.576  0.2134  0.3872 -0.2832
10705TIP3    H153530   4.708   1.899  11.588  0.2381  1.3328 -1.7457
10705TIP3    H253531   4.799   1.819  11.498  0.6335 -1.2423  0.8812
10706TIP3   OH253532   4.752   3.818  12.799 -0.3666 -0.3100 -0.0249
10706TIP3    H153533   4.679   3.759  12.820 -0.8369  0.3032  0.0626
10706TIP3    H253534   4.711   3.892  12.755  0.0685  0.5445  0.9853
10707TIP3   OH253535   5.271   2.466  15.297 -0.5474  0.5949 -0.5717
10707TIP3    H153536   5.347   2.514  15.265 -1.0213  2.7077  1.3400
10707TIP3    H253537   5.202   2.532  15.304 -1.3580 -0.4297  1.6561
10708TIP3   OH253538   6.519   5.920   0.268  0.0703  0.2251 -0.3000
10708TIP3    H153539   6.466   5.999   0.282  0.3711  0.4435 -0.3938
10708TIP3    H253540   6.568   5.910   0.350  0.9216  0.8127 -0.7288
10709TIP3   OH253541   0.370   5.714  16.945 -0.2606 -0.3748  0.2008
10709TIP3    H153542   0.376   5.756  16.859 -1.3810 -0.4629  0.0666
10709TIP3    H253543   0.442   5.652  16.947  0.5195  0.5012 -0.1903
10710TIP3   OH253544   2.833   0.769   3.634 -0.1710 -0.2883 -0.5018
10710TIP3    H153545   2.811   0.814   3.552 -0.5810 -0.5277 -0.5258
10710TIP3    H253546   2.759   0.709   3.649 -0.5199  0.3695  0.4915
10711TIP3   OH253547   3.396   4.456  15.365  0.1336  0.1601  0.6668
10711TIP3    H153548   3.458   4.428  15.298 -1.0835 -0.7025 -0.1118
10711TIP3    H253549   3.365   4.375  15.405 -0.6453  0.5729  0.9124
10712TIP3   OH253550   6.143   0.969   3.869  0.5156 -0.2626 -0.0456
10712TIP3    H153551   6.212   0.920   3.824  0.4721 -0.5084  0.1517
10712TIP3    H253552   6.169   0.969   3.961  1.5018  1.7375 -0.2991
10713TIP3   OH253553   3.841   3.940  11.724  0.0025  0.0457 -0.4627
10713TIP3    H153554   3.795   3.931  11.808 -0.6376  1.4865 -0.6330
10713TIP3    H253555   3.875   4.030  11.725  0.7554 -0.2206 -1.3719
10714TIP3   OH253556   4.092   3.595   2.276  0.4218 -0.3905 -0.7067
10714TIP3    H153557   4.119   3.560   2.361  0.6740  0.7876 -0.2897
10714TIP3    H253558   4.006   3.633   2.291  0.0076 -1.1049 -1.2320
10715TIP3   OH253559   4.779   5.882  16.901 -0.3863  0.2216  0.3174
10715TIP3    H153560   4.710   5.815  16.906  0.1814 -0.2949  1.6398
10715TIP3    H253561   4.860   5.832  16.888  0.2213  0.5188  2.6951
10716TIP3   OH253562   2.402   0.481   0.467  0.7053 -0.5376 -0.0411
10716TIP3    H153563   2.366   0.559   0.425 -0.4281 -0.0047  1.8503
10716TIP3    H253564   2.388   0.495   0.560 -0.3255 -3.3614  0.3016
10717TIP3   OH253565   0.314   4.851  12.328 -0.0731  0.1831  0.1614
10717TIP3    H153566   0.228   4.820  12.302 -0.8297  0.6277  2.0482
10717TIP3    H253567   0.323   4.824  12.419  1.1234  1.5067  0.4614
10718TIP3   OH253568   5.043   3.163   5.285 -0.7620  0.3196 -0.6848
10718TIP3    H153569   4.973   3.210   5.239 -0.5545 -0.2538 -1.6018
10718TIP3    H253570   5.083   3.108   5.218  2.6221  2.9104 -0.9471
10719TIP3   OH253571   1.017   4.176   1.397  0.1319 -0.0966  0.4438
10719TIP3    H153572   1.096   4.138   1.360 -0.7463  0.7063 -2.3922
10719TIP3    H253573   1.048   4.252   1.447  1.0923  0.7596 -1.4250
10720TIP3   OH253574   4.349   4.549   4.108 -0.2050  0.1781  0.1400
10720TIP3    H153575   4.331   4.625   4.163 -1.2800  0.0541 -0.0289
10720TIP3    H253576   4.330   4.474   4.164 -2.4156  0.0468 -0.7207
10721TIP3   OH253577   0.126   1.401  15.869  0.2472 -0.2961  0.3736
10721TIP3    H153578   0.195   1.344  15.836 -0.1731 -0.8042  0.3525
10721TIP3    H253579   0.149   1.418  15.960  1.1672  0.7280 -0.0509
10722TIP3   OH253580   5.636   0.438  11.624  0.1417 -0.3379 -0.5681
10722TIP3    H153581   5.576   0.455  11.697  0.4986  0.4932 -0.4647
10722TIP3    H253582   5.674   0.353  11.643  1.9882  0.8856  1.4380
10723TIP3   OH253583   2.024   4.470   3.248  0.4993 -0.6446 -0.1671
10723TIP3    H153584   1.940   4.511   3.268  0.3467 -0.8587 -0.3677
10723TIP3    H253585   2.001   4.389   3.202  0.8392 -0.3543 -0.8546
10724TIP3   OH253586   2.888   0.485  12.792 -0.3302 -0.7924  0.0389
10724TIP3    H153587   2.868   0.412  12.733 -2.4697 -1.9240  2.0591
10724TIP3    H253588   2.812   0.489  12.851  1.2054  1.0293  1.9490
10725TIP3   OH253589   2.044   2.189   4.980  0.7281  0.2164 -0.3646
10725TIP3    H153590   2.118   2.208   4.922 -0.4303 -0.3575 -2.0624
10725TIP3    H253591   1.973   2.164   4.921 -0.4996 -0.3304  1.3088
10726TIP3   OH253592   0.476   5.291   3.386 -0.1594  0.1252 -0.2826
10726TIP3    H153593   0.569   5.266   3.384 -0.8491 -2.6136 -0.3635
10726TIP3    H253594   0.444   5.270   3.299 -1.2884 -0.7641  0.3407
10727TIP3   OH253595   2.584   0.773   2.998  0.0196 -0.0872 -0.2694
10727TIP3    H153596   2.603   0.701   2.937  3.0429  0.0661  0.4109
10727TIP3    H253597   2.594   0.852   2.946 -2.4607 -0.0668 -0.7978
10728TIP3   OH253598   3.833   0.177  11.490 -0.1089  0.3495 -0.3369
10728TIP3    H153599   3.916   0.209  11.456 -0.7158  1.9979 -0.2786
10728TIP3    H253600   3.774   0.178  11.415 -0.7866  1.6821  0.1988
10729TIP3   OH253601   1.633   3.706   0.155 -0.1045  0.2523 -0.3118
10729TIP3    H153602   1.553   3.745   0.192 -0.5530  0.3787 -1.3980
10729TIP3    H253603   1.633   3.616   0.189 -1.1855 -0.0229 -1.0173
10730TIP3   OH253604   5.772   3.533  12.593 -0.4377  0.7093  0.2132
10730TIP3    H153605   5.822   3.603  12.551 -0.5897 -0.1072 -1.3578
10730TIP3    H253606   5.697   3.520  12.536  1.1482 -2.8103 -1.2348
10731TIP3   OH253607   0.538   5.063   2.401  0.1002  0.0926  0.2906
10731TIP3    H153608   0.520   5.003   2.328 -1.4896 -1.1801  1.7089
10731TIP3    H253609   0.458   5.115   2.408  0.1372  0.0067  1.3168
10732TIP3   OH253610   4.396   0.649   1.546  0.1437  0.4645  0.0446
10732TIP3    H153611   4.320   0.595   1.565  0.2138  0.4623  0.3159
10732TIP3    H253612   4.375   0.735   1.583 -0.2946  0.8521 -1.0518
10733TIP3   OH253613   6.121   2.871   1.523  0.0253  0.1262  0.2667
10733TIP3    H153614   6.195   2.843   1.577  0.3315  1.6765  0.6825
10733TIP3    H253615   6.048   2.818   1.553  0.7869 -0.8488  0.4199
10734TIP3   OH253616   6.176   6.266  10.446  1.0336 -0.3290 -0.0277
10734TIP3    H153617   6.267   6.261  10.416  0.9837  1.1926 -0.5131
10734TIP3    H253618   6.180   6.319  10.525  0.2227  2.5525 -1.8328
10735TIP3   OH253619   6.197   3.659  15.349  0.1385 -0.5660  0.8020
10735TIP3    H153620   6.292   3.657  15.337  0.2425  1.2294  1.2873
10735TIP3    H253621   6.182   3.607  15.428  0.8810  0.5670  1.7029
10736TIP3   OH253622   1.877   4.466  12.787  0.4963 -0.0922 -0.2152
10736TIP3    H153623   1.910   4.539  12.734 -1.5208  0.5791 -0.5773
10736TIP3    H253624   1.865   4.395  12.724 -0.2722  0.1784 -0.3876
10737TIP3   OH253625   2.183   0.356  13.499 -0.1728 -0.4206 -0.1211
10737TIP3    H153626   2.178   0.330  13.591  1.1847 -2.8591 -0.6928
10737TIP3    H253627   2.094   0.345  13.466 -0.4852 -0.3441  0.6915
10738TIP3   OH253628   4.988   6.719  16.579  0.0473 -0.4792  0.0590
10738TIP3    H153629   5.010   6.767  16.658  0.6602 -0.2905 -0.2283
10738TIP3    H253630   5.058   6.656  16.568  1.0401  0.8378 -1.4352
10739TIP3   OH253631   4.449   2.034   2.005 -0.5518  0.1854 -0.2884
10739TIP3    H153632   4.355   2.026   1.992 -0.5781 -1.0148  0.5423
10739TIP3    H253633   4.466   1.986   2.086  0.9401 -0.6090 -1.0535
10740TIP3   OH253634   2.604   1.572  12.537  0.3163  0.1877  0.2077
10740TIP3    H153635   2.629   1.658  12.569  0.2871  0.1950  0.2099
10740TIP3    H253636   2.525   1.549  12.585  1.4263 -0.7053  1.6713
10741TIP3   OH253637   6.045   6.343  15.642  0.9235 -0.7009 -0.2503
10741TIP3    H153638   6.084   6.338  15.729  0.5748  2.5739  0.1433
10741TIP3    H253639   5.951   6.353  15.658  0.6382 -1.9286 -1.0584
10742TIP3   OH253640   2.663   6.500  16.374  0.4067  0.1986  0.1256
10742TIP3    H153641   2.652   6.424  16.430  1.0672  0.7163  0.9766
10742TIP3    H253642   2.668   6.574  16.434  3.8046  0.4884 -0.4022
10743TIP3   OH253643   1.887   6.665  11.504  0.2559 -0.4337 -0.2361
10743TIP3    H153644   1.836   6.585  11.505 -1.0265  0.3630 -0.9318
10743TIP3    H253645   1.846   6.721  11.569 -0.4294  0.6142 -1.5559
10744TIP3   OH253646   2.799   0.775  14.541 -0.1847 -0.4446  0.1429
10744TIP3    H153647   2.795   0.699  14.483  1.2516 -0.9376  0.6799
10744TIP3    H253648   2.708   0.790  14.567 -0.7837 -0.5217 -1.8292
10745TIP3   OH253649   1.573   3.601   3.295 -0.0949 -0.1809 -0.3309
10745TIP3    H153650   1.520   3.527   3.266 -1.6087  0.4060  0.8393
10745TIP3    H253651   1.516   3.677   3.281  0.9696  0.6171 -0.3379
10746TIP3   OH253652   5.744   2.808  15.458 -0.5383  0.7816 -0.2454
10746TIP3    H153653   5.829   2.768  15.476 -1.0442 -1.0626 -1.8605
10746TIP3    H253654   5.758   2.901  15.474  1.1819  0.2207  1.6762
10747TIP3   OH253655   6.736   3.494   1.811 -0.9003 -0.0865  0.4144
10747TIP3    H153656   6.672   3.462   1.875 -0.2796  0.5809  1.3967
10747TIP3    H253657   6.735   3.589   1.823 -0.6640  0.0249 -0.4655
10748TIP3   OH253658   6.730   0.852   1.967  0.1534 -0.7829  0.4646
10748TIP3    H153659   6.719   0.853   1.872 -0.0671  0.5984  0.4940
10748TIP3    H253660   6.641   0.861   2.002  0.3012 -0.5800  0.7932
10749TIP3   OH253661   6.043   4.338  13.511  0.3574  0.6465  0.0831
10749TIP3    H153662   6.120   4.329  13.567 -0.2692 -1.0942  0.6797
10749TIP3    H253663   5.982   4.391  13.563 -1.0300 -2.6712  1.9568
10750TIP3   OH253664   5.772   0.890   0.872  0.3238  0.5748  0.5595
10750TIP3    H153665   5.821   0.946   0.933 -1.0916  0.2450  2.0492
10750TIP3    H253666   5.685   0.885   0.910  0.1148 -1.7208 -0.1736
10751TIP3   OH253667   1.407   3.743   2.197 -0.4653 -0.6768  0.7373
10751TIP3    H153668   1.439   3.813   2.140  0.4180 -1.4495  0.2725
10751TIP3    H253669   1.315   3.733   2.172 -1.3093  1.9442  2.4862
10752TIP3   OH253670   6.525   0.576   4.974 -0.1578 -0.6367 -0.0617
10752TIP3    H153671   6.597   0.633   5.001  0.9006 -1.9822 -0.0281
10752TIP3    H253672   6.455   0.596   5.037 -0.0497  1.1249 -0.4767
10753TIP3   OH253673   4.817   2.469   4.382  0.0966  0.0104  0.1027
10753TIP3    H153674   4.892   2.410   4.392 -0.3884 -0.7225 -0.4827
10753TIP3    H253675   4.795   2.464   4.289 -1.0556 -0.2473  0.3811
10754TIP3   OH253676   1.762   4.541  12.117 -0.5513  0.1110  1.0559
10754TIP3    H153677   1.682   4.514  12.072  0.2361 -1.1427  0.3941
10754TIP3    H253678   1.833   4.516  12.058  0.2663  2.7026  0.9009
10755TIP3   OH253679   4.509   6.313   3.879 -0.0785  0.2893 -0.2732
10755TIP3    H153680   4.443   6.260   3.836 -0.1053 -0.2160  0.3761
10755TIP3    H253681   4.566   6.344   3.809 -0.1714 -0.4440 -0.6704
10756TIP3   OH253682   6.569   1.264  17.179 -0.3834 -0.3205 -0.2111
10756TIP3    H153683   6.620   1.338  17.147 -1.5592 -0.4458 -2.4732
10756TIP3    H253684   6.521   1.299  17.255  0.3723  0.7560 -0.2290
10757TIP3   OH253685   6.281   3.600   4.706 -0.1201 -0.0764 -0.6700
10757TIP3    H153686   6.214   3.646   4.756 -0.5753  0.0938 -1.4380
10757TIP3    H253687   6.244   3.590   4.619 -0.2152 -2.2947 -0.3992
10758TIP3   OH253688   6.083   0.022   0.496  0.1036  0.0921  0.1376
10758TIP3    H153689   6.000  -0.004   0.536 -0.0517  0.7193  0.2209
10758TIP3    H253690   6.096   0.113   0.522  0.1659  0.4134 -0.9677
10759TIP3   OH253691   3.158   1.447   3.101 -0.1716  0.0678  0.1977
10759TIP3    H153692   3.194   1.398   3.028  1.9042 -0.7924  1.7387
10759TIP3    H253693   3.173   1.538   3.080  1.5986 -0.2314  0.1319
10760TIP3   OH253694   0.639   1.399   3.891  0.2837 -0.0907 -0.4408
10760TIP3    H153695   0.603   1.379   3.978 -0.1954 -3.8195 -1.4357
10760TIP3    H253696   0.562   1.408   3.835  0.5513  3.2614 -0.3524
10761TIP3   OH253697   4.180   1.116  13.107  0.3647  0.1023 -0.4723
10761TIP3    H153698   4.183   1.187  13.171  1.3253  1.1520 -1.6609
10761TIP3    H253699   4.160   1.159  13.024 -0.5500 -1.2084 -0.9351
10762TIP3   OH253700   6.094   3.442   5.936 -0.3320 -0.7080 -0.8395
10762TIP3    H153701   6.127   3.440   6.025  2.4129 -0.0209 -1.8065
10762TIP3    H253702   6.010   3.487   5.942  0.7464  1.0976  1.1066
10763TIP3   OH253703   1.448   0.471   1.255 -0.5890 -0.3450 -0.2162
10763TIP3    H153704   1.368   0.419   1.245 -0.1905 -0.9657 -0.2227
10763TIP3    H253705   1.457   0.481   1.350 -1.4600  0.9708 -0.2608
10764TIP3   OH253706   6.496   6.105   1.360 -0.3487  0.0994  0.1311
10764TIP3    H153707   6.433   6.177   1.370 -0.8739 -0.1325 -1.4334
10764TIP3    H253708   6.523   6.085   1.450 -2.1411  0.5371  0.8071
10765TIP3   OH253709   4.659   0.393   0.835  0.3163 -0.2159 -0.1896
10765TIP3    H153710   4.670   0.348   0.751 -0.1572 -0.1365 -0.2949
10765TIP3    H253711   4.741   0.377   0.881 -0.5229 -2.7039  0.5083
10766TIP3   OH253712   1.366   1.141   3.833 -0.6820 -0.1932  0.2644
10766TIP3    H153713   1.277   1.169   3.855 -1.0118 -2.6965  2.4250
10766TIP3    H253714   1.412   1.142   3.917  0.6386 -1.2400 -0.4346
10767TIP3   OH253715   3.174   3.109   0.340 -0.0777  0.1845 -0.1484
10767TIP3    H153716   3.201   3.029   0.385  1.2398 -0.4805 -2.0543
10767TIP3    H253717   3.213   3.180   0.390  0.0843 -0.4531  0.6270
10768TIP3   OH253718   4.865   2.452  14.861 -0.6683 -0.1048  0.2526
10768TIP3    H153719   4.856   2.382  14.796 -3.7686  1.8941 -1.5894
10768TIP3    H253720   4.930   2.511  14.824 -1.8490  0.6241 -0.6799
10769TIP3   OH253721   0.074   3.782  10.756 -0.2779  0.7910 -0.0348
10769TIP3    H153722   0.068   3.850  10.689  1.3976 -0.4624 -1.5259
10769TIP3    H253723   0.062   3.700  10.708  0.8263 -0.1189  1.2032
10770TIP3   OH253724   6.436   5.658   4.928  0.2268 -0.1230 -0.2305
10770TIP3    H153725   6.445   5.590   4.994 -0.0526 -0.0042 -0.0677
10770TIP3    H253726   6.390   5.615   4.856  0.2081 -0.1557 -0.1995
10771TIP3   OH253727   1.454   6.674   2.855  0.5636 -0.9406  0.5377
10771TIP3    H153728   1.457   6.649   2.948  0.3475 -0.9647  0.5392
10771TIP3    H253729   1.530   6.731   2.843  0.7306 -1.1307  0.6726
10772TIP3   OH253730   1.628   6.613  14.175  0.0505  0.4431  0.3970
10772TIP3    H153731   1.622   6.703  14.207 -2.0685  0.5016 -0.0764
10772TIP3    H253732   1.618   6.559  14.253  3.3365  0.6065  0.9648
10773TIP3   OH253733   5.826   0.499   2.277  0.2862  0.5802 -0.2282
10773TIP3    H153734   5.825   0.528   2.368 -0.9729 -1.1496  0.3296
10773TIP3    H253735   5.898   0.436   2.273 -0.4528 -0.2820 -0.1139
10774TIP3   OH253736   3.266   0.208   3.292 -0.3494 -0.2737 -0.6571
10774TIP3    H153737   3.314   0.203   3.375  1.4153 -1.0899 -1.6931
10774TIP3    H253738   3.287   0.294   3.256  0.2120 -0.5705 -1.0394
10775TIP3   OH253739   5.182   4.861   3.718 -0.1876 -0.7254  0.6265
10775TIP3    H153740   5.159   4.877   3.627  0.5826  0.1059  0.5785
10775TIP3    H253741   5.277   4.870   3.721 -0.3502  0.6612  1.8012
10776TIP3   OH253742   4.694   4.745  12.574  0.5344 -0.2364  0.3792
10776TIP3    H153743   4.770   4.792  12.609  1.0789 -1.3124  0.6655
10776TIP3    H253744   4.619   4.798  12.600  1.0653 -0.0696  1.6103
10777TIP3   OH253745   2.062   0.299  16.145  0.0732  0.2895 -0.3291
10777TIP3    H153746   2.102   0.349  16.074  0.3255  0.6741  0.0811
10777TIP3    H253747   2.036   0.216  16.105  0.1392  0.5376 -0.8858
10778TIP3   OH253748   6.756   2.292  14.305  0.3692  0.1922  0.1409
10778TIP3    H153749   6.663   2.295  14.283  0.1766  0.5405  0.9728
10778TIP3    H253750   6.785   2.205  14.277  0.2409  0.7922 -1.8677
10779TIP3   OH253751   3.563   3.269   6.869  0.2066  0.0912 -0.6644
10779TIP3    H153752   3.563   3.184   6.913 -0.1519 -0.3015 -1.4030
10779TIP3    H253753   3.545   3.248   6.777 -1.3308  1.0956 -0.6144
10780TIP3   OH253754   2.598   1.308  12.471  0.0575  0.3956 -0.4784
10780TIP3    H153755   2.595   1.402  12.486  0.7117  0.7456 -2.3820
10780TIP3    H253756   2.507   1.279  12.480 -0.1601  1.2305 -0.0184
10781TIP3   OH253757   6.542   4.256  12.220  0.5969  0.0465  0.4653
10781TIP3    H153758   6.558   4.171  12.259 -0.6401  0.3817  1.7514
10781TIP3    H253759   6.453   4.251  12.186  1.4925 -0.0822 -1.9498
10782TIP3   OH253760   0.927   3.943  15.874 -0.7371 -0.4453 -1.0551
10782TIP3    H153761   0.940   4.020  15.818 -0.3938 -0.0595 -0.4499
10782TIP3    H253762   0.994   3.882  15.847  0.1493  0.1796 -0.3156
10783TIP3   OH253763   6.604   0.474  14.673 -0.0636 -0.0508 -0.1802
10783TIP3    H153764   6.563   0.389  14.687  0.5409 -0.4053 -0.5742
10783TIP3    H253765   6.679   0.456  14.617 -0.7813  0.9470 -1.4827
10784TIP3   OH253766   4.919   5.421   4.609  0.4738 -0.0955  0.1405
10784TIP3    H153767   5.009   5.408   4.639 -0.0926 -1.9930  1.1380
10784TIP3    H253768   4.873   5.457   4.685  0.1851 -0.0579 -0.0498
10785TIP3   OH253769   3.556   4.091   0.835 -0.5032 -0.1079  0.3100
10785TIP3    H153770   3.625   4.089   0.902 -0.2098  2.1692  0.1145
10785TIP3    H253771   3.496   4.021   0.861  1.2257 -1.3129  1.1819
10786TIP3   OH253772   6.185   3.084  16.333 -0.0605 -0.0683  0.8720
10786TIP3    H153773   6.257   3.115  16.388  1.9106 -3.1211  0.0915
10786TIP3    H253774   6.214   3.103  16.243 -1.1018  0.4244  0.6274
10787TIP3   OH253775   3.764   1.625   2.342  0.3623 -0.0121  0.2679
10787TIP3    H153776   3.751   1.704   2.394 -0.0156  1.2285 -1.6643
10787TIP3    H253777   3.719   1.556   2.391 -1.7245  1.5192  0.5737
10788TIP3   OH253778   4.105   1.349  15.597  0.6537  0.3367  0.3022
10788TIP3    H153779   4.140   1.404  15.528 -0.9336  0.4512 -0.4286
10788TIP3    H253780   4.180   1.298  15.628  1.3486  0.1857 -1.5964
10789TIP3   OH253781   1.220   6.580  16.094  0.4103  0.4900 -0.0458
10789TIP3    H153782   1.207   6.486  16.101  0.2229  0.6486  1.9307
10789TIP3    H253783   1.277   6.602  16.167  0.5355  1.9058 -0.5514
10790TIP3   OH253784   2.738   5.872  11.497  0.0437  0.1467  0.2254
10790TIP3    H153785   2.799   5.814  11.450  0.7258  0.9828  0.0743
10790TIP3    H253786   2.719   5.826  11.579 -0.1656 -0.7339 -0.3053
10791TIP3   OH253787   3.311   5.949   4.483  0.3578 -0.8807 -0.1899
10791TIP3    H153788   3.335   6.033   4.523 -2.3020 -0.2347  0.0999
10791TIP3    H253789   3.275   5.972   4.398 -0.4965 -1.7266 -0.0566
10792TIP3   OH253790   2.296   1.860  15.763 -0.5493 -0.1345 -0.1896
10792TIP3    H153791   2.250   1.938  15.733 -0.2764 -0.6597 -2.0622
10792TIP3    H253792   2.232   1.812  15.815 -1.0860  0.7557 -0.0271
10793TIP3   OH253793   2.054   5.930  17.018 -0.4500 -0.3582  0.5994
10793TIP3    H153794   2.061   5.838  16.994  2.0433  0.0875 -0.5300
10793TIP3    H253795   2.142   5.965  17.006 -1.5694  2.4158  0.0521
10794TIP3   OH253796   6.618   5.373  15.288 -0.5616  0.1960 -0.4954
10794TIP3    H153797   6.552   5.436  15.260 -0.4211  0.6600  0.2150
10794TIP3    H253798   6.577   5.288  15.274 -1.4740  0.4867  0.3465
10795TIP3   OH253799   1.339   5.881  16.544 -0.1287  0.3099 -0.1325
10795TIP3    H153800   1.328   5.945  16.474 -0.5492  1.9571  1.4015
10795TIP3    H253801   1.259   5.888  16.596  1.3677  1.1518  2.1323
10796TIP3   OH253802   0.454   5.670   1.288  0.4500  0.0574  0.4630
10796TIP3    H153803   0.472   5.673   1.194  1.3492  0.2759  0.6380
10796TIP3    H253804   0.539   5.655   1.328 -0.0937 -1.1203  1.1863
10797TIP3   OH253805   2.679   6.207  15.143  0.1564 -0.0423  0.1235
10797TIP3    H153806   2.652   6.265  15.072  0.5307 -0.7321 -0.5870
10797TIP3    H253807   2.738   6.260  15.196  1.0464  0.0231 -0.9088
10798TIP3   OH253808   1.460   4.452  12.290  0.1658 -0.4433  0.0466
10798TIP3    H153809   1.382   4.469  12.237  0.6384  0.4941 -0.3727
10798TIP3    H253810   1.490   4.365  12.262 -0.9593 -0.9849  0.5112
10799TIP3   OH253811   2.167   4.142  15.878 -0.6227 -0.2460  0.1952
10799TIP3    H153812   2.094   4.182  15.831  0.5995  2.2365  0.3406
10799TIP3    H253813   2.181   4.198  15.954  0.7014 -1.3506  0.8095
10800TIP3   OH253814   2.276   3.765   3.346 -0.0244 -0.4586  0.3204
10800TIP3    H153815   2.191   3.792   3.310  0.9167  1.8963 -0.2287
10800TIP3    H253816   2.323   3.728   3.271  0.4541  0.7982 -0.0121
10801TIP3   OH253817   2.171   3.051   1.241  0.4878 -0.3175 -0.1266
10801TIP3    H153818   2.140   3.139   1.264  0.4370 -0.2569 -0.4278
10801TIP3    H253819   2.256   3.066   1.200  0.1409 -0.3485 -0.8666
10802TIP3   OH253820   2.599   5.444   4.314 -0.3881 -0.0922 -0.1209
10802TIP3    H153821   2.681   5.444   4.362  0.3072 -0.7889 -1.2668
10802TIP3    H253822   2.533   5.474   4.377  0.4415 -1.2488  1.3115
10803TIP3   OH253823   3.685   2.926   0.811 -0.4498  0.4735  0.0185
10803TIP3    H153824   3.693   2.961   0.900 -0.0899 -0.9345  0.5541
10803TIP3    H253825   3.752   2.973   0.761 -0.8154  1.4500  0.4242
10804TIP3   OH253826   3.392   4.309   0.377 -0.5504 -0.1460 -0.4390
10804TIP3    H153827   3.402   4.236   0.316 -2.0223 -0.1829 -0.6491
10804TIP3    H253828   3.437   4.281   0.457  2.7904  0.5450 -2.0033
10805TIP3   OH253829   3.855   3.485   3.543 -0.2086  0.5302 -0.2025
10805TIP3    H153830   3.765   3.470   3.571 -0.1812  0.9994  0.1297
10805TIP3    H253831   3.895   3.398   3.545 -0.0962  0.6078  1.5511
10806TIP3   OH253832   1.675   6.633  17.237  0.6049 -0.1825  0.2790
10806TIP3    H153833   1.684   6.571  17.165  2.3034  1.3411 -0.8782
10806TIP3    H253834   1.762   6.638  17.277  0.3126  0.8786  0.8205
10807TIP3   OH253835   5.773   5.049  10.887 -0.1564  0.0228  0.0908
10807TIP3    H153836   5.822   4.971  10.912  1.4661  1.5611  1.8997
10807TIP3    H253837   5.682   5.025  10.900  0.3727 -1.2609  1.5688
10808TIP3   OH253838   6.458   1.641  12.193  0.4566  0.1222  0.7325
10808TIP3    H153839   6.463   1.545  12.197 -1.4536 -0.0273 -0.2063
10808TIP3    H253840   6.483   1.670  12.281  2.8563 -1.1386  0.5108
10809TIP3   OH253841   5.535   4.408  10.352  0.3199  0.3859 -0.2479
10809TIP3    H153842   5.598   4.435  10.418  0.9222  0.2020 -0.7423
10809TIP3    H253843   5.552   4.464  10.277  1.1585 -0.9244 -1.0554
10810TIP3   OH253844   4.289   2.013   4.837 -0.3681 -0.0309 -0.0369
10810TIP3    H153845   4.351   2.017   4.910 -0.6610  0.1865  0.1993
10810TIP3    H253846   4.345   2.012   4.759 -0.0479 -0.5720  0.1962
10811TIP3   OH253847   4.439   1.656  16.415 -0.0148 -0.3895  0.0134
10811TIP3    H153848   4.481   1.655  16.501 -0.8387 -0.3857  0.4173
10811TIP3    H253849   4.495   1.713  16.361  0.9351 -1.0243  0.3194
10812TIP3   OH253850   5.344   5.954   4.395  0.0312 -0.4206 -0.3451
10812TIP3    H153851   5.252   5.975   4.413 -0.4041 -1.0115 -1.7863
10812TIP3    H253852   5.353   5.965   4.300  1.9597  1.5284  0.0097
10813TIP3   OH253853   5.143   0.715   3.591 -0.6170 -0.0352  0.1538
10813TIP3    H153854   5.185   0.639   3.550 -0.2512 -0.6355  1.6279
10813TIP3    H253855   5.197   0.789   3.565  0.9134 -0.6982  1.3575
10814TIP3   OH253856   4.040   2.902  12.944 -0.5067 -0.3764 -0.0876
10814TIP3    H153857   4.049   2.842  13.018 -0.9289 -1.0407 -0.5631
10814TIP3    H253858   4.129   2.933  12.927 -0.7694  1.9732  2.4782
10815TIP3   OH253859   5.075   3.060  11.347 -0.0403 -0.4703  0.4525
10815TIP3    H153860   5.081   3.040  11.253 -0.4257 -0.4860  0.4309
10815TIP3    H253861   5.158   3.104  11.367  0.1310 -0.6505  0.1496
10816TIP3   OH253862   5.883   1.501  12.923 -0.3333 -0.5754  0.4082
10816TIP3    H153863   5.957   1.509  12.983 -0.3638 -0.5500  0.4426
10816TIP3    H253864   5.861   1.592  12.901 -0.5950 -0.5676  0.6930
10817TIP3   OH253865   6.406   4.453   2.984  0.6460  0.1021 -0.1449
10817TIP3    H153866   6.359   4.527   3.022 -0.0272 -1.1281  1.4902
10817TIP3    H253867   6.337   4.395   2.952  1.1853  0.5355 -2.1674
10818TIP3   OH253868   1.841   5.562   4.090 -0.3026  0.4113  0.7382
10818TIP3    H153869   1.918   5.546   4.036 -0.1036  0.5830  0.9739
10818TIP3    H253870   1.871   5.618   4.161 -0.2112 -1.0792  1.9105
10819TIP3   OH253871   3.443   4.753   5.534 -0.1869 -0.0736  0.1057
10819TIP3    H153872   3.536   4.752   5.558 -0.0027  0.7435 -0.5526
10819TIP3    H253873   3.404   4.686   5.589  0.6499  0.1436  0.9956
10820TIP3   OH253874   6.085   2.657   0.611  0.3579 -0.4433 -0.1359
10820TIP3    H153875   6.048   2.631   0.696  1.7244 -0.0161  0.6148
10820TIP3    H253876   6.055   2.747   0.599  0.2275 -0.4769 -0.0695
10821TIP3   OH253877   0.364   2.035  14.773 -0.3702  0.4764 -0.4363
10821TIP3    H153878   0.315   2.116  14.758 -0.2387  0.7193  0.3965
10821TIP3    H253879   0.315   1.968  14.725 -0.8532  0.9290 -0.5851
10822TIP3   OH253880   2.941   2.949   4.482 -0.7614 -0.4217 -0.2253
10822TIP3    H153881   3.017   2.919   4.531  0.4700 -1.8004 -2.8628
10822TIP3    H253882   2.966   3.034   4.447 -1.3386  0.1886  0.8025
10823TIP3   OH253883   2.595   5.420  15.141  0.1798  0.2335 -0.2788
10823TIP3    H153884   2.672   5.387  15.186 -0.0269 -1.1850 -0.9350
10823TIP3    H253885   2.558   5.485  15.200  2.6784  1.9832 -0.6111
10824TIP3   OH253886   6.276   4.642   2.202 -0.1034  0.4702 -0.5448
10824TIP3    H153887   6.232   4.705   2.260  0.5094 -0.3762  0.8581
10824TIP3    H253888   6.207   4.615   2.140 -0.8142  1.2537 -0.1086
10825TIP3   OH253889   6.201   6.051   3.899 -0.3728  0.3108 -0.6338
10825TIP3    H153890   6.170   5.970   3.858 -0.5026  0.1042 -0.1287
10825TIP3    H253891   6.146   6.119   3.862 -1.0094  0.0250 -0.2157
10826TIP3   OH253892   0.643   1.306   5.381  0.4731  0.0228 -0.3499
10826TIP3    H153893   0.659   1.333   5.291  0.6311 -0.8743 -0.5866
10826TIP3    H253894   0.548   1.302   5.388  0.4458  0.6727 -0.3029
10827TIP3   OH253895   1.357   5.282   0.040  0.3937  0.0984 -0.4537
10827TIP3    H153896   1.399   5.203   0.007  1.2759  0.5039 -0.3149
10827TIP3    H253897   1.309   5.254   0.118 -0.4991 -0.5797 -1.2394
10828TIP3   OH253898   1.359   4.297  15.718  0.5564  0.5427  0.0982
10828TIP3    H153899   1.310   4.371  15.682  2.9563  1.0789 -2.2313
10828TIP3    H253900   1.444   4.302  15.675  1.1300 -2.9757  0.6970
10829TIP3   OH253901   2.511   6.099  10.719  0.1670  1.0378 -0.3610
10829TIP3    H153902   2.529   6.150  10.640  1.2511  0.5112 -0.4663
10829TIP3    H253903   2.585   6.119  10.777  0.0758  0.3621 -0.0143
10830TIP3   OH253904   3.264   4.087  13.193 -0.3329 -0.3699 -0.2344
10830TIP3    H153905   3.229   4.149  13.129  0.1931  1.7576  1.4957
10830TIP3    H253906   3.242   4.125  13.278  0.6384 -2.2049  0.8592
10831TIP3   OH253907   1.142   4.638   5.455  0.1401 -0.4096  0.4991
10831TIP3    H153908   1.153   4.599   5.542 -1.1616 -1.2487  0.2946
10831TIP3    H253909   1.091   4.717   5.470 -1.9213 -1.6698  0.2542
10832TIP3   OH253910   2.265   0.006  12.349  0.0770 -0.3708 -0.5333
10832TIP3    H153911   2.282   0.095  12.380 -1.7481 -0.2650  0.1975
10832TIP3    H253912   2.177  -0.015  12.381  0.0146 -2.0009 -1.6985
10833TIP3   OH253913   0.028   5.495   3.664 -0.0791 -0.5671 -0.0483
10833TIP3    H153914   0.065   5.419   3.618 -2.3421 -0.9197 -1.3271
10833TIP3    H253915   0.032   5.471   3.756 -0.9385 -2.3573 -0.4514
10834TIP3   OH253916   3.500   2.165   3.015 -0.3944  0.5888 -0.2473
10834TIP3    H153917   3.542   2.189   2.933  2.7191  1.4156  1.4786
10834TIP3    H253918   3.500   2.246   3.066 -1.8546 -0.0162  0.7353
10835TIP3   OH253919   4.120   2.682  14.363  0.2370 -0.1453 -0.2722
10835TIP3    H153920   4.124   2.595  14.322  2.5213  0.0530 -0.5761
10835TIP3    H253921   4.087   2.739  14.294 -0.0842 -0.5709 -0.4712
10836TIP3   OH253922   1.150   6.011   5.471  0.1328 -0.1847  0.2042
10836TIP3    H153923   1.054   6.012   5.468  0.1946  0.8612 -1.8666
10836TIP3    H253924   1.172   6.067   5.546 -0.8597 -0.2398  0.5439
10837TIP3   OH253925   5.298   5.756  11.588 -0.2673 -0.4749  0.4424
10837TIP3    H153926   5.231   5.772  11.654  0.0079 -2.6810  1.2966
10837TIP3    H253927   5.359   5.695  11.629 -0.8910 -3.0669 -2.3150
10838TIP3   OH253928   4.971   4.131   4.089 -0.3852 -0.8401  0.2373
10838TIP3    H153929   5.065   4.119   4.079  0.3293  3.3486  1.3036
10838TIP3    H253930   4.960   4.160   4.180 -2.4196  1.2101 -0.6368
10839TIP3   OH253931   1.042   3.042  12.271 -0.7475 -0.5351 -0.3386
10839TIP3    H153932   1.097   3.120  12.278 -1.5232 -0.2083  2.7479
10839TIP3    H253933   1.089   2.975  12.321 -0.2720 -2.0044 -2.6495
10840TIP3   OH253934   5.189   4.975   0.043  0.2979  0.3932 -0.2663
10840TIP3    H153935   5.213   4.949  -0.047 -0.0876  0.2657 -0.3349
10840TIP3    H253936   5.097   5.003   0.036 -0.3876 -1.5754  0.4666
10841TIP3   OH253937   6.360   3.001   2.670 -0.4745 -0.3034 -0.2089
10841TIP3    H153938   6.385   3.094   2.677  0.2506 -0.3837 -1.5800
10841TIP3    H253939   6.302   2.986   2.745 -0.4790  1.2211  0.1083
10842TIP3   OH253940   6.158   4.179  11.862  0.3211 -0.0483  0.6747
10842TIP3    H153941   6.084   4.126  11.835 -1.3756  0.9292  3.1844
10842TIP3    H253942   6.134   4.268  11.836  2.1319 -0.1483 -1.4768
10843TIP3   OH253943   4.113   2.339  15.840 -0.1742 -0.7080  0.3765
10843TIP3    H153944   4.085   2.276  15.773  0.4068 -1.1997  0.6050
10843TIP3    H253945   4.031   2.364  15.884 -0.6294 -0.0306 -0.8137
10844TIP3   OH253946   5.543   6.736  13.978  0.4246  0.2294  0.5137
10844TIP3    H153947   5.538   6.825  13.944 -0.7784  0.6617  1.7988
10844TIP3    H253948   5.453   6.704  13.977  0.8802 -1.0605 -0.1554
10845TIP3   OH253949   5.272   1.493   1.749 -0.4699 -0.4194  0.2555
10845TIP3    H153950   5.226   1.409   1.751  0.6138 -1.0874 -1.5340
10845TIP3    H253951   5.246   1.532   1.665  1.7373 -0.5636 -0.5264
10846TIP3   OH253952   1.322   4.433   3.059 -0.1080 -0.1563 -0.5264
10846TIP3    H153953   1.292   4.452   3.148 -2.5904 -1.3872 -1.0751
10846TIP3    H253954   1.364   4.347   3.066 -1.6712 -0.9664 -0.8025
10847TIP3   OH253955   0.465   5.431  16.184 -0.1021 -0.1218  0.1074
10847TIP3    H153956   0.530   5.427  16.114 -2.7194 -0.4056 -2.3726
10847TIP3    H253957   0.390   5.476  16.145 -0.8984  1.5008  3.3459
10848TIP3   OH253958   5.955   2.586  13.007 -0.1379 -0.5183  0.0782
10848TIP3    H153959   6.019   2.572  13.077  1.6336 -0.5353 -1.4993
10848TIP3    H253960   6.008   2.615  12.933 -1.7467 -2.2734 -1.8016
10849TIP3   OH253961   4.213   3.745   3.919  0.1815  0.0909  0.5639
10849TIP3    H153962   4.122   3.755   3.947  0.4031 -2.1920  2.2384
10849TIP3    H253963   4.262   3.732   4.000  1.9807  1.0695 -0.3337
10850TIP3   OH253964   0.038   2.672  12.956 -0.3217 -0.5491 -0.6447
10850TIP3    H153965   0.120   2.667  13.005 -0.0362  0.4075 -1.0202
10850TIP3    H253966  -0.030   2.679  13.022  0.0264  0.2781 -0.3691
10851TIP3   OH253967   0.224   1.090   1.121 -0.0186 -0.2299  0.7280
10851TIP3    H153968   0.153   1.092   1.057 -0.6291 -0.6135  1.3814
10851TIP3    H253969   0.242   0.997   1.134  0.9739 -0.1193  0.1643
10852TIP3   OH253970   4.558   5.253  16.765  0.3269  0.8337 -0.8663
10852TIP3    H153971   4.638   5.303  16.746  2.1247 -1.3822  0.4838
10852TIP3    H253972   4.556   5.247  16.861 -0.7187 -0.2849 -0.9444
10853TIP3   OH253973   1.876   2.597   3.894  0.1774  0.5262  0.1362
10853TIP3    H153974   1.867   2.638   3.980  0.8157  0.8250  0.0658
10853TIP3    H253975   1.789   2.563   3.874 -0.0718  0.8177  0.7197
10854TIP3   OH253976   4.892   6.349   3.454 -0.0819 -0.4927  0.1085
10854TIP3    H153977   4.963   6.405   3.422 -0.0524 -0.7945 -0.3547
10854TIP3    H253978   4.820   6.366   3.394  0.2797 -1.7827 -0.7041
10855TIP3   OH253979   6.032   2.480   6.042  0.5244  0.2358 -0.2403
10855TIP3    H153980   6.097   2.411   6.057  1.1045  0.1767 -2.7864
10855TIP3    H253981   6.082   2.553   6.005 -0.5377  0.9988 -0.2143
10856TIP3   OH253982   5.761   1.820   3.216  0.1890  0.7124  0.1568
10856TIP3    H153983   5.727   1.811   3.305 -0.8308 -0.8252 -0.3760
10856TIP3    H253984   5.844   1.772   3.217 -0.3659 -0.2499 -0.0195
10857TIP3   OH253985   0.706   5.133   4.517 -0.2107  0.9835 -0.4259
10857TIP3    H153986   0.762   5.088   4.453  1.5229 -1.5657  2.7105
10857TIP3    H253987   0.629   5.076   4.525 -0.7212  1.6354 -0.7046
10858TIP3   OH253988   3.560   4.060   6.954 -0.6444 -0.3483 -0.0938
10858TIP3    H153989   3.648   4.067   6.918 -0.1413  0.1528  1.2149
10858TIP3    H253990   3.567   3.996   7.024 -1.4740 -0.8013 -0.4161
10859TIP3   OH253991   0.870   3.865   1.968  0.0474 -0.4643 -0.6552
10859TIP3    H153992   0.783   3.888   1.937  0.0239 -0.6405 -0.7234
10859TIP3    H253993   0.891   3.783   1.922  0.1870 -0.5013 -0.5272
10860TIP3   OH253994   4.689   1.750  14.507 -0.2699  0.4498 -0.3047
10860TIP3    H153995   4.703   1.656  14.514  1.4688  0.7288  0.0482
10860TIP3    H253996   4.602   1.758  14.466  0.0221 -1.2956 -1.3102
10861TIP3   OH253997   0.627   2.430   1.040 -0.2147  0.5187 -0.2809
10861TIP3    H153998   0.580   2.456   1.120 -0.9656  1.4055 -1.0004
10861TIP3    H253999   0.607   2.499   0.977 -0.1184 -0.4825 -1.4330
10862TIP3   OH254000   3.764   0.511   4.220 -0.5067 -0.1668  0.5568
10862TIP3    H154001   3.740   0.441   4.159  1.9779  0.3621 -1.0896
10862TIP3    H254002   3.779   0.466   4.304  0.7984 -1.5984 -0.4119
10863TIP3   OH254003   6.290   0.448  12.033 -0.4121 -0.2732 -0.5130
10863TIP3    H154004   6.334   0.375  11.990  0.8493  0.5287 -0.5886
10863TIP3    H254005   6.360   0.498  12.074 -1.2304  1.0769 -0.7249
10864TIP3   OH254006   3.236   5.269   6.583  0.0826  0.0892 -0.3120
10864TIP3    H154007   3.230   5.359   6.616  1.9704 -0.2209  0.9716
10864TIP3    H254008   3.223   5.214   6.661 -0.3436 -0.7436 -0.9611
10865TIP3   OH254009   0.967   2.736  17.051  0.2165  0.7425 -0.4452
10865TIP3    H154010   1.051   2.750  17.093  0.4286 -1.2318 -0.1780
10865TIP3    H254011   0.988   2.721  16.959  0.0954  0.9402 -0.5071
10866TIP3   OH254012   0.319   2.135  10.793 -0.0674  0.2299 -0.3879
10866TIP3    H154013   0.382   2.075  10.751  0.2623 -0.0336  0.4839
10866TIP3    H254014   0.366   2.171  10.868 -0.4190  1.2497 -0.6461
10867TIP3   OH254015   3.888   0.011   4.991 -0.0891  0.0322  0.3574
10867TIP3    H154016   3.830   0.030   4.917  0.4713  0.2697 -0.0230
10867TIP3    H254017   3.976   0.025   4.956  0.2738 -1.9883  0.4446
10868TIP3   OH254018   2.241   3.801  12.142 -0.5774 -0.2230  0.2311
10868TIP3    H154019   2.224   3.743  12.216  0.0216  1.5506  1.8272
10868TIP3    H254020   2.252   3.888  12.183  1.1039  0.5567 -1.7986
10869TIP3   OH254021   1.620   2.107  13.412 -0.2612 -0.2010 -0.5557
10869TIP3    H154022   1.695   2.160  13.437 -0.8855  1.1542 -1.4497
10869TIP3    H254023   1.557   2.121  13.482 -0.5919  0.6264 -1.0019
10870TIP3   OH254024   6.085   0.486   3.366  0.1313 -0.4114  0.3557
10870TIP3    H154025   5.991   0.482   3.380  0.0143 -2.5535 -0.8537
10870TIP3    H254026   6.116   0.555   3.426 -2.0922 -0.1202  1.1939
10871TIP3   OH254027   0.309   6.713  12.580  0.1684 -0.7497 -0.0214
10871TIP3    H154028   0.293   6.714  12.486 -0.1060 -0.8440  0.0215
10871TIP3    H254029   0.221   6.710  12.619  0.2564  0.0139  0.2512
10872TIP3   OH254030   5.978   2.653  15.866  0.7558 -0.0730 -0.0154
10872TIP3    H154031   5.990   2.619  15.778  1.3121 -0.5977  0.2580
10872TIP3    H254032   5.902   2.607  15.901  0.4289  0.2611 -0.2805
10873TIP3   OH254033   3.009   3.603  14.223  0.2692  0.0718 -0.3437
10873TIP3    H154034   2.931   3.568  14.180  1.6614 -0.3832 -2.6036
10873TIP3    H254035   3.033   3.679  14.170  1.4310  0.1305  0.2523
10874TIP3   OH254036   4.997   2.074   5.213 -0.2258 -0.5639  0.1833
10874TIP3    H154037   5.045   2.129   5.151  0.6881 -0.4432  0.9822
10874TIP3    H254038   4.994   2.125   5.294  1.4187 -2.0337  1.2107
10875TIP3   OH254039   1.185   6.497   0.702 -0.2707  0.0617 -0.4379
10875TIP3    H154040   1.259   6.554   0.682 -0.0814 -0.4787 -1.2879
10875TIP3    H254041   1.115   6.558   0.727  1.0096  0.4922  2.3552
10876TIP3   OH254042   3.983   5.711   5.489 -0.2464 -0.2516  0.2600
10876TIP3    H154043   4.018   5.623   5.482 -0.1523 -0.1685 -0.3584
10876TIP3    H254044   4.053   5.768   5.456  0.4946  0.2361  2.5302
10877TIP3   OH254045   5.010   4.316   2.059 -0.3982 -0.4765  0.3034
10877TIP3    H154046   5.055   4.237   2.030 -1.7411 -1.3620  0.5689
10877TIP3    H254047   5.027   4.320   2.154 -0.0314 -0.2406  0.2297
10878TIP3   OH254048   2.340   2.491   1.318 -0.8403  0.4880 -0.3290
10878TIP3    H154049   2.317   2.501   1.226 -0.9870  0.3699 -0.3054
10878TIP3    H254050   2.392   2.569   1.338 -0.6581  0.4247 -0.5573
10879TIP3   OH254051   3.931   3.292   2.379 -0.4011 -0.1288  0.2984
10879TIP3    H154052   3.925   3.244   2.462  0.7993  1.3299  1.2341
10879TIP3    H254053   3.887   3.375   2.396  0.3585  0.4111 -0.3536
10880TIP3   OH254054   1.848   6.229  16.966  0.5384  0.1348  0.4957
10880TIP3    H154055   1.815   6.194  17.048 -0.7549  1.3169  0.5199
10880TIP3    H254056   1.843   6.156  16.904 -0.4097 -0.2109  0.9761
10881TIP3   OH254057   1.297   2.387   2.020  0.5321 -0.0420 -0.6243
10881TIP3    H154058   1.247   2.443   2.079 -0.3486 -1.5577  0.0955
10881TIP3    H254059   1.235   2.319   1.993  1.6171 -0.7539 -1.3862
10882TIP3   OH254060   2.699   4.386  16.453 -0.1093  0.1484 -0.6250
10882TIP3    H154061   2.786   4.396  16.491 -0.7937 -1.8959  1.6248
10882TIP3    H254062   2.644   4.449  16.500 -1.1697 -3.0693  2.6452
10883TIP3   OH254063   6.015   0.050   2.745 -0.2817 -0.1003 -0.2312
10883TIP3    H154064   6.044  -0.021   2.688 -0.3248  0.5611 -1.0903
10883TIP3    H254065   6.062   0.128   2.712 -2.3986  0.8249 -1.1241
10884TIP3   OH254066   5.242   1.169   3.072 -0.3685 -0.1527 -0.1725
10884TIP3    H154067   5.327   1.127   3.063 -1.6371 -3.0987  0.9338
10884TIP3    H254068   5.195   1.147   2.992  0.0546  1.8960 -1.0114
10885TIP3   OH254069   3.668   1.319  13.653  0.2272  0.0067 -0.3630
10885TIP3    H154070   3.705   1.304  13.740  0.6707  1.1797 -0.3459
10885TIP3    H254071   3.734   1.371  13.607 -0.3371  0.0413 -1.1491
10886TIP3   OH254072   0.839   5.575  16.562 -0.3821 -0.0359 -0.4372
10886TIP3    H154073   0.928   5.579  16.526  0.1450 -0.0808  0.8283
10886TIP3    H254074   0.809   5.487  16.540  0.9309 -1.0145  1.4428
10887TIP3   OH254075   4.394   1.288   2.665  0.6182 -0.1485 -0.1187
10887TIP3    H154076   4.390   1.365   2.608 -1.4713  1.3234  1.9046
10887TIP3    H254077   4.342   1.222   2.619  0.9914  0.1921 -1.0556
10888TIP3   OH254078   5.703   5.331  15.716  0.5896  0.1519 -0.2393
10888TIP3    H154079   5.675   5.402  15.658  0.7536 -0.6969 -1.3675
10888TIP3    H254080   5.798   5.331  15.710  0.5670 -0.5334 -0.6996
10889TIP3   OH254081   6.783   4.306   6.535  0.2769 -0.3977  0.0394
10889TIP3    H154082   6.762   4.251   6.459 -0.2356  0.3775 -0.3924
10889TIP3    H254083   6.876   4.289   6.552  0.0910 -1.5136  0.0171
10890TIP3   OH254084   5.952   4.721  14.432 -0.0112 -1.3121  0.0933
10890TIP3    H154085   6.042   4.691  14.420  0.0083 -1.5874  0.8637
10890TIP3    H254086   5.947   4.744  14.525 -0.5037 -0.5160 -0.1226
10891TIP3   OH254087   3.000   1.828   6.583 -0.6213 -0.0388 -0.1948
10891TIP3    H154088   2.961   1.907   6.545 -1.0855 -0.2570 -0.1766
10891TIP3    H254089   2.935   1.797   6.646 -0.7608 -0.8455 -0.7248
10892TIP3   OH254090   6.507   6.558   1.626  0.4468  0.2044 -0.3859
10892TIP3    H154091   6.570   6.580   1.694 -0.3184 -0.9720  0.7167
10892TIP3    H254092   6.438   6.623   1.635  0.3022 -0.0062  0.0214
10893TIP3   OH254093   3.786   4.130   1.430  0.1278 -0.1022  0.2806
10893TIP3    H154094   3.833   4.172   1.502  0.1633 -0.1367  0.2776
10893TIP3    H254095   3.845   4.061   1.400 -0.1103 -0.4176  0.5517
10894TIP3   OH254096   2.616   5.208   0.583 -0.1622 -0.3443 -0.2488
10894TIP3    H154097   2.671   5.279   0.614 -0.2334 -0.5702  0.4142
10894TIP3    H254098   2.528   5.229   0.616 -0.0896 -0.9812  0.3592
10895TIP3   OH254099   4.327   0.663   0.229 -0.3303  0.6457  0.4813
10895TIP3    H154100   4.265   0.709   0.172  1.6720  1.1987 -1.3273
10895TIP3    H254101   4.300   0.572   0.224  0.6556  0.4589 -2.5641
10896TIP3   OH254102   3.204   2.674   5.264 -0.4691  0.3709  0.6652
10896TIP3    H154103   3.264   2.631   5.204  0.0242 -0.9917  2.0911
10896TIP3    H254104   3.206   2.619   5.343 -2.1534  1.3446  1.4067
10897TIP3   OH254105   6.006   2.322  15.875 -0.5396 -0.3286  0.0283
10897TIP3    H154106   6.069   2.271  15.824 -0.6136  0.5577 -0.9666
10897TIP3    H254107   6.044   2.327  15.963  0.9055  0.4548 -0.6475
10898TIP3   OH254108   3.525   4.430  16.673  0.2160 -0.0248  0.0791
10898TIP3    H154109   3.441   4.467  16.700 -0.2895 -0.7575 -0.4418
10898TIP3    H254110   3.590   4.494  16.701 -0.6432  1.3641 -0.9782
10899TIP3   OH254111   3.968   6.056  13.567 -0.5929  0.5453  0.4898
10899TIP3    H154112   3.976   6.148  13.594 -0.7571  0.6423  0.2067
10899TIP3    H254113   3.987   6.007  13.647 -1.0946  0.8360  0.7984
10900TIP3   OH254114   5.618   3.417  16.207 -0.4972  0.0177 -0.3012
10900TIP3    H154115   5.678   3.347  16.232 -0.8235 -0.5510 -1.0969
10900TIP3    H254116   5.649   3.494  16.256  1.4481 -0.0464 -1.3987
10901TIP3   OH254117   5.037   3.189  11.700  0.2999 -0.1894  0.5439
10901TIP3    H154118   5.001   3.165  11.785 -0.2484  2.5429  1.1321
10901TIP3    H254119   5.131   3.180  11.710  0.2008 -0.4578  1.2503
10902TIP3   OH254120   4.725   4.500   4.525 -0.1379 -0.5360  0.3341
10902TIP3    H154121   4.804   4.532   4.481  0.1545 -0.7361  0.7081
10902TIP3    H254122   4.723   4.549   4.607 -0.7436 -0.0806  0.0436
10903TIP3   OH254123   1.043   2.128  14.997  0.1376  0.2260 -0.5657
10903TIP3    H154124   1.032   2.112  15.091  1.5413 -0.0623 -0.4331
10903TIP3    H254125   1.119   2.075  14.973  0.5859  1.3063 -1.5855
10904TIP3   OH254126   4.797   4.537   2.141  0.5086 -0.0140  0.1631
10904TIP3    H154127   4.884   4.502   2.123  0.7219  1.1714 -1.2068
10904TIP3    H254128   4.768   4.490   2.220  2.4318 -0.3164  0.7161
10905TIP3   OH254129   5.139   1.392  13.690  0.8107  0.2381  0.2380
10905TIP3    H154130   5.093   1.443  13.624  0.6308  0.9786  0.9346
10905TIP3    H254131   5.219   1.362  13.646  0.0990 -0.3284 -0.7023
10906TIP3   OH254132   0.912   6.285   2.713  0.4002  0.2909  0.4502
10906TIP3    H154133   0.869   6.200   2.720  1.8229 -0.4556  0.4334
10906TIP3    H254134   0.875   6.325   2.635  0.0768 -0.5337  0.1806
10907TIP3   OH254135   1.834   0.524  14.845  0.0692  1.0176  0.4813
10907TIP3    H154136   1.780   0.473  14.905  0.1741 -1.1051 -1.1605
10907TIP3    H254137   1.839   0.611  14.885 -1.8368  0.3366  2.3059
10908TIP3   OH254138   6.374   4.518  14.682  0.6951  0.0652  0.0670
10908TIP3    H154139   6.441   4.576  14.716 -0.4737  0.4775  1.7399
10908TIP3    H254140   6.308   4.514  14.752 -0.5981 -0.9984 -1.1790
10909TIP3   OH254141   5.522   6.339  12.604 -0.5401  0.1434 -0.4564
10909TIP3    H154142   5.551   6.430  12.596  0.1671 -0.0729 -0.4503
10909TIP3    H254143   5.594   6.295  12.649 -1.3658 -0.1877  0.5626
10910TIP3   OH254144   3.032   3.100  14.548  0.1350  0.3231 -0.0116
10910TIP3    H154145   3.112   3.091  14.598  0.5415 -1.4068 -0.9267
10910TIP3    H254146   2.975   3.031  14.580  0.9302 -1.7544 -2.8365
10911TIP3   OH254147   0.918   1.650  12.541  0.0498 -0.3508 -0.1024
10911TIP3    H154148   0.957   1.701  12.469  0.1813 -0.7677 -0.3277
10911TIP3    H254149   0.969   1.674  12.618 -1.2062  1.4568  0.2197
10912TIP3   OH254150   3.892   5.015   5.390  0.3693 -0.1656  0.3818
10912TIP3    H154151   3.887   4.937   5.445 -0.0580 -0.8964 -0.6873
10912TIP3    H254152   3.801   5.038   5.373  0.5028  0.1633  0.1153
10913TIP3   OH254153   4.466   5.345  14.626 -0.3335 -0.2361 -0.2719
10913TIP3    H154154   4.417   5.274  14.667  0.6387 -1.4549 -1.1416
10913TIP3    H254155   4.438   5.343  14.534 -2.2327  2.2222  0.2215
10914TIP3   OH254156   4.616   5.293  17.020 -0.2309  0.7141  0.1671
10914TIP3    H154157   4.607   5.216  17.076 -1.2289  1.1741  0.6505
10914TIP3    H254158   4.706   5.323  17.036  0.0696 -0.1698  0.2004
10915TIP3   OH254159   3.204   2.485  11.280 -0.0152  0.5981 -0.9354
10915TIP3    H154160   3.168   2.396  11.275  0.8642  0.0988  0.9035
10915TIP3    H254161   3.256   2.484  11.361  0.9431  2.4431 -1.5205
10916TIP3   OH254162   2.943   3.208   5.584  0.0234 -0.4861  0.0051
10916TIP3    H154163   2.930   3.166   5.499 -1.8982 -1.1219  0.5802
10916TIP3    H254164   2.874   3.273   5.589  0.8038  0.3039  0.6383
10917TIP3   OH254165   4.518   1.265   3.035  0.0035  0.0592  0.5388
10917TIP3    H154166   4.532   1.344   2.982 -0.2028  0.6072  1.2903
10917TIP3    H254167   4.456   1.214   2.985  0.9425 -0.1227 -0.4690
10918TIP3   OH254168   4.957   4.332   0.805 -0.3938 -0.2119 -0.0674
10918TIP3    H154169   4.910   4.411   0.778 -0.1738  0.1997  0.7232
10918TIP3    H254170   4.903   4.260   0.773 -1.2557  0.2580  0.3104
10919TIP3   OH254171   0.481   0.236   1.152 -0.3010  0.3627  0.3337
10919TIP3    H154172   0.514   0.262   1.238  0.0096 -0.9815  0.6273
10919TIP3    H254173   0.432   0.156   1.169  0.7118 -0.5363 -0.9160
10920TIP3   OH254174   6.163   4.954   2.973  0.0411 -0.1335 -0.5148
10920TIP3    H154175   6.073   4.961   3.005  0.2393  0.7993 -0.1437
10920TIP3    H254176   6.155   4.966   2.878 -0.3999 -1.6393 -0.6755
10921TIP3   OH254177   0.481   6.132  13.589  0.3643  0.2569 -0.0832
10921TIP3    H154178   0.516   6.209  13.545  1.1469 -0.2113 -0.2977
10921TIP3    H254179   0.549   6.065  13.577 -0.9928 -0.9458 -1.3160
10922TIP3   OH254180   2.163   0.348  14.454 -0.6273  0.5047 -0.1269
10922TIP3    H154181   2.159   0.329  14.360 -1.4740  1.4885 -0.2960
10922TIP3    H254182   2.128   0.269  14.496  1.4692 -0.6891 -0.5369
10923TIP3   OH254183   3.840   5.729  13.832 -0.3811 -0.2747  0.5462
10923TIP3    H154184   3.850   5.672  13.908 -3.4744  0.3546  1.4627
10923TIP3    H254185   3.790   5.677  13.769 -1.8819  0.8510  0.7834
10924TIP3   OH254186   6.381   0.395  11.508 -0.2014 -0.2509  0.3188
10924TIP3    H154187   6.472   0.370  11.522 -0.6153 -1.6750  0.6240
10924TIP3    H254188   6.374   0.483  11.545  1.7351  1.0820 -2.3107
10925TIP3   OH254189   6.458   3.673  10.289 -0.3656  0.0435  0.1004
10925TIP3    H154190   6.459   3.580  10.268 -0.5925  0.1129 -0.2237
10925TIP3    H254191   6.546   3.692  10.322 -0.2156 -0.2085 -0.1622
10926TIP3   OH254192   2.812   1.486  12.932  0.6895 -0.1751 -0.2718
10926TIP3    H154193   2.774   1.574  12.939 -0.4377 -0.8485  2.7305
10926TIP3    H254194   2.905   1.501  12.918  1.0898  1.5814  3.6432
10927TIP3   OH254195   4.081   2.270   6.758  0.5484  0.2521  0.1580
10927TIP3    H154196   4.006   2.326   6.741  1.3473  0.7023 -2.1132
10927TIP3    H254197   4.155   2.317   6.718  1.1992 -2.4771 -1.9856
10928TIP3   OH254198   4.099   6.134   0.005  0.4652 -0.1227  0.3617
10928TIP3    H154199   4.127   6.115  -0.084 -0.8070 -1.9196  0.3089
10928TIP3    H254200   4.018   6.183  -0.005 -0.5372 -1.7121  0.5059
10929TIP3   OH254201   3.989   3.258  15.205  0.1275 -0.4496  0.0556
10929TIP3    H154202   4.032   3.343  15.207 -2.4591  1.1342 -4.0215
10929TIP3    H254203   4.061   3.195  15.208  2.2365  1.9105  0.9449
10930TIP3   OH254204   0.916   6.304   0.546  0.1032 -0.0330  0.0340
10930TIP3    H154205   0.967   6.327   0.624  0.9427  0.8345 -0.7499
10930TIP3    H254206   0.952   6.219   0.518  0.8191  0.3576 -0.2504
10931TIP3   OH254207   2.888   0.684   3.881 -0.2821  0.1234 -0.1464
10931TIP3    H154208   2.816   0.697   3.942 -0.7575  2.1224 -1.0875
10931TIP3    H254209   2.867   0.742   3.807  0.5048 -1.8768 -1.9897
10932TIP3   OH254210   3.532   4.942  15.722 -0.2469  0.3115 -0.5876
10932TIP3    H154211   3.480   4.997  15.780  0.8783  0.2320  0.5240
10932TIP3    H254212   3.538   4.858  15.767 -0.4593 -0.1691 -1.4379
10933TIP3   OH254213   2.620   1.619  12.188  0.3443  0.0051  0.2585
10933TIP3    H154214   2.656   1.558  12.125 -0.2738  0.1979 -0.2825
10933TIP3    H254215   2.615   1.570  12.270  1.4654 -0.1405  0.2511
10934TIP3   OH254216   0.678   0.458   5.554 -0.0880 -0.6786  0.4810
10934TIP3    H154217   0.769   0.465   5.525 -1.0938  0.2748 -2.5896
10934TIP3    H254218   0.660   0.542   5.597 -0.0316 -0.1719 -0.4783
10935TIP3   OH254219   5.082   4.923   4.412 -0.2738  0.2001  0.7286
10935TIP3    H154220   5.122   4.992   4.360  0.1360 -1.0373 -0.6458
10935TIP3    H254221   5.005   4.964   4.452 -0.3922  1.2690 -0.5619
10936TIP3   OH254222   3.140   3.991  12.516 -0.4161 -0.1710  0.4203
10936TIP3    H154223   3.053   3.997  12.477  0.7148  0.6080 -2.1135
10936TIP3    H254224   3.187   3.929  12.461  0.5005 -0.9873  2.0774
10937TIP3   OH254225   6.404   3.350  15.202  0.2714  0.1749  0.4382
10937TIP3    H154226   6.479   3.353  15.261  1.5724  1.9775 -1.2367
10937TIP3    H254227   6.395   3.258  15.180 -0.3022 -0.5409  3.4858
10938TIP3   OH254228   2.636   3.205  14.336 -0.3013  0.7193  0.6395
10938TIP3    H154229   2.612   3.129  14.388 -1.7249 -0.2777 -1.4153
10938TIP3    H254230   2.732   3.203  14.333 -0.3417 -1.2903  0.1859
10939TIP3   OH254231   5.529   0.281  13.400 -0.3389 -0.0080  0.1921
10939TIP3    H154232   5.445   0.269  13.356 -1.1708  0.0153  1.7264
10939TIP3    H254233   5.507   0.323  13.484  1.2229  0.2441  0.5060
10940TIP3   OH254234   5.832   5.065  14.921 -0.0507  0.0849  0.0396
10940TIP3    H154235   5.802   5.087  14.833  2.2522 -0.7113 -0.9946
10940TIP3    H254236   5.781   5.121  14.979 -2.5418 -0.3070 -1.6891
10941TIP3   OH254237   0.314   0.317  14.234 -0.7526  0.2780  0.5303
10941TIP3    H154238   0.399   0.342  14.198 -0.4054 -0.4382  0.8482
10941TIP3    H254239   0.281   0.397  14.274 -0.8777  0.9357 -0.8504
10942TIP3   OH254240   1.784   4.142   0.438  0.1415 -0.7178 -0.0047
10942TIP3    H154241   1.858   4.196   0.467 -0.2024  0.4186 -1.2041
10942TIP3    H254242   1.826   4.066   0.398  0.6484 -0.6107  0.3039
10943TIP3   OH254243   0.052   4.877   4.119 -0.1117 -0.1796  0.5168
10943TIP3    H154244   0.124   4.814   4.129 -0.5412 -0.3607  2.9239
10943TIP3    H254245  -0.021   4.826   4.085 -0.1921 -0.8085  1.6128
10944TIP3   OH254246   3.714   1.079   3.189  0.2575  0.5745 -0.5019
10944TIP3    H154247   3.672   1.046   3.268 -0.6933 -1.1339 -1.6646
10944TIP3    H254248   3.652   1.143   3.153  0.2792  0.6872 -0.3372
10945TIP3   OH254249   1.507   4.784  11.399 -0.5858  0.1976  0.0849
10945TIP3    H154250   1.574   4.751  11.460  1.6144 -0.1947 -2.4845
10945TIP3    H254251   1.478   4.706  11.352 -0.0439  0.9121 -1.4752
10946TIP3   OH254252   1.734   3.871   5.773 -0.4749 -0.7914  0.3811
10946TIP3    H154253   1.706   3.780   5.769 -2.0677 -0.3969  2.0263
10946TIP3    H254254   1.743   3.890   5.866 -1.8616  1.2301  0.1392
10947TIP3   OH254255   6.036   1.503   5.979  0.2473 -0.1240 -0.0192
10947TIP3    H154256   6.079   1.453   5.910  1.5856  1.4788 -0.3611
10947TIP3    H254257   6.020   1.589   5.941 -2.3643 -0.3659  0.4564
10948TIP3   OH254258   5.398   3.453   6.012  0.5606  0.5577  0.1746
10948TIP3    H154259   5.456   3.462   6.088  0.8724  2.7287 -0.2850
10948TIP3    H254260   5.328   3.396   6.043  1.8562 -0.4220  1.3884
10949TIP3   OH254261   4.195   2.031  10.638  0.3083  0.1393 -0.4430
10949TIP3    H154262   4.161   2.105  10.689 -1.4801 -0.0882 -1.2784
10949TIP3    H254263   4.192   1.958  10.699 -2.5744 -0.3020 -1.0714
10950TIP3   OH254264   6.167   2.687   5.868  0.3613  0.4435 -0.3036
10950TIP3    H154265   6.208   2.621   5.812  1.0130 -1.5433  2.4091
10950TIP3    H254266   6.228   2.698   5.941 -0.9566  2.1725  0.5726
10951TIP3   OH254267   5.796   1.041  12.144 -0.0371  0.0981  0.0162
10951TIP3    H154268   5.755   0.966  12.187  2.5897 -2.1926 -1.3200
10951TIP3    H254269   5.856   1.077  12.210 -1.5062  1.2816  0.7560
10952TIP3   OH254270   0.904   2.703   2.152  0.3733  0.3134  0.3733
10952TIP3    H154271   0.821   2.748   2.146  0.3317  0.3636  1.2590
10952TIP3    H254272   0.892   2.638   2.222  0.1775 -1.6054 -1.3743
10953TIP3   OH254273   3.318   1.475  13.985 -0.5047 -0.1654 -0.4978
10953TIP3    H154274   3.345   1.420  13.912  0.6327  0.4566 -0.5508
10953TIP3    H254275   3.379   1.549  13.984 -0.3251 -0.2579  1.2068
10954TIP3   OH254276   3.916   4.240   0.718  0.0384  0.5075 -0.2822
10954TIP3    H154277   3.862   4.258   0.641  0.7186  0.5301 -0.7535
10954TIP3    H254278   4.006   4.250   0.688  0.3826 -1.9983 -0.1158
10955TIP3   OH254279   2.668   0.483   2.864  0.1640  0.2547  0.3081
10955TIP3    H154280   2.740   0.425   2.837 -0.8478 -0.2809 -1.3103
10955TIP3    H254281   2.597   0.423   2.888  0.3783  0.7680  2.3210
10956TIP3   OH254282   0.069   6.465  12.441 -0.2697  0.0016 -0.5597
10956TIP3    H154283   0.150   6.433  12.401  0.0670  1.6598 -1.2544
10956TIP3    H254284   0.039   6.534  12.383 -0.4785  1.5744  1.3435
10957TIP3   OH254285   1.132   3.828   4.284  0.4183 -0.3881 -0.4109
10957TIP3    H154286   1.220   3.853   4.311  0.0355  1.8394 -1.0811
10957TIP3    H254287   1.088   3.912   4.265 -2.4466 -1.3322  1.7474
10958TIP3   OH254288   2.179   2.908   0.350  0.3997 -0.2696  0.3163
10958TIP3    H154289   2.217   2.928   0.435  2.4759 -0.4407 -0.5505
10958TIP3    H254290   2.205   2.981   0.294 -1.7338  0.3191  0.0197
10959TIP3   OH254291   5.472   0.508  17.055 -0.2518  0.3970 -0.1346
10959TIP3    H154292   5.467   0.600  17.082 -2.0464  0.0378  0.8744
10959TIP3    H254293   5.401   0.497  16.992  0.0615 -0.2575 -0.3840
10960TIP3   OH254294   0.341   1.588   4.262 -0.5527  0.1989 -0.2120
10960TIP3    H154295   0.278   1.654   4.231 -1.7779 -0.8273  0.0189
10960TIP3    H254296   0.292   1.537   4.327  0.3680 -0.9349 -0.3809
10961TIP3   OH254297   4.149   1.518  11.418  0.6030 -0.5168 -0.1438
10961TIP3    H154298   4.236   1.522  11.378  0.6961 -0.3152  0.0779
10961TIP3    H254299   4.161   1.461  11.494  0.5982 -0.2926  0.0266
10962TIP3   OH254300   1.091   1.900   4.188  1.0015  0.2906  0.1472
10962TIP3    H154301   1.143   1.859   4.120  0.6051  0.0394 -0.0057
10962TIP3    H254302   1.153   1.917   4.259  1.1379 -0.7090  0.2772
10963TIP3   OH254303   5.736   5.798   3.521 -0.0034 -0.0476 -0.0428
10963TIP3    H154304   5.684   5.854   3.578 -2.7994 -0.9505 -1.6354
10963TIP3    H254305   5.768   5.858   3.452 -2.1723 -0.1676 -1.1952
10964TIP3   OH254306   2.117   3.930   2.647 -0.3730  0.1722 -0.0971
10964TIP3    H154307   2.211   3.919   2.659 -0.3645  1.3565  1.0352
10964TIP3    H254308   2.085   3.843   2.622  0.9719 -0.2919 -0.2071
10965TIP3   OH254309   0.932   4.377  12.063 -0.2898  0.3432  0.1148
10965TIP3    H154310   0.946   4.406  12.153 -0.2298 -1.3124  0.6457
10965TIP3    H254311   0.992   4.303  12.052 -1.6788 -0.6808 -0.6705
10966TIP3   OH254312   2.889   2.017  15.758  0.6650 -0.2571  0.1872
10966TIP3    H154313   2.886   2.043  15.850 -0.1675  0.3480 -0.0043
10966TIP3    H254314   2.950   2.079  15.717  0.6542 -0.2169  0.2319
10967TIP3   OH254315   2.767   3.472  15.151 -0.2219  0.0149  0.4876
10967TIP3    H154316   2.843   3.415  15.140 -0.4638 -0.2467  0.1567
10967TIP3    H254317   2.799   3.545  15.203  0.7307  0.8395 -1.2358
10968TIP3   OH254318   0.406   3.714   0.962 -0.2939 -0.2567 -0.5112
10968TIP3    H154319   0.426   3.623   0.984 -2.7289 -1.1164 -1.6535
10968TIP3    H254320   0.448   3.728   0.877 -0.2013 -0.4256 -0.4928
10969TIP3   OH254321   6.643   0.157   4.949  0.3111  0.2876  0.5913
10969TIP3    H154322   6.664   0.068   4.979  0.7731  0.8411  1.9892
10969TIP3    H254323   6.612   0.201   5.028 -1.6164  0.8707 -0.4661
10970TIP3   OH254324   1.165   6.329   1.118  0.5002  0.1702  0.9757
10970TIP3    H154325   1.235   6.358   1.059 -0.3975  0.5986  0.0940
10970TIP3    H254326   1.147   6.239   1.091  0.0044  0.4070  0.4963
10971TIP3   OH254327   1.439   0.677  11.205  0.3297 -0.0321  0.0564
10971TIP3    H154328   1.521   0.639  11.173 -1.2074 -2.2968 -1.3739
10971TIP3    H254329   1.436   0.764  11.166  1.4221 -0.4602 -1.0098
10972TIP3   OH254330   6.597   4.456   2.744 -0.4273 -0.4331  0.6033
10972TIP3    H154331   6.653   4.423   2.814 -0.1650 -0.0337  0.5783
10972TIP3    H254332   6.545   4.525   2.786  0.5023  0.5565  0.1307
10973TIP3   OH254333   4.611   4.722   5.501  0.1539  0.2286  0.2581
10973TIP3    H154334   4.610   4.655   5.433  0.5103 -0.1050  0.5804
10973TIP3    H254335   4.663   4.793   5.464  0.3482  0.0465  0.1796
10974TIP3   OH254336   4.576   4.459   5.387  0.0872 -0.3355 -0.3054
10974TIP3    H154337   4.657   4.412   5.404  0.0338  0.1022  1.2443
10974TIP3    H254338   4.550   4.432   5.298  0.4581 -2.5943  0.2455
10975TIP3   OH254339   5.419   1.068  14.768 -0.4003  0.3418  0.5741
10975TIP3    H154340   5.460   1.022  14.695 -0.8628  0.5671  0.1655
10975TIP3    H254341   5.377   0.999  14.820 -0.1434  0.1909  0.5820
10976TIP3   OH254342   3.290   3.349   3.644  0.2832  0.1986 -0.0034
10976TIP3    H154343   3.228   3.378   3.577  0.0287  0.9140  0.5440
10976TIP3    H254344   3.276   3.408   3.718  2.3335  1.0336 -0.2469
10977TIP3   OH254345   2.776   1.063  12.721  0.4667 -0.4141  0.1528
10977TIP3    H154346   2.799   0.970  12.726  1.4104 -0.1841  0.0570
10977TIP3    H254347   2.681   1.063  12.710  0.7849 -1.4944 -3.3628
10978TIP3   OH254348   1.390   0.631   3.569 -0.1586  0.5363 -0.0957
10978TIP3    H154349   1.445   0.577   3.512  0.0383  1.3298 -0.6530
10978TIP3    H254350   1.374   0.575   3.646 -0.1202 -0.3891 -0.7519
10979TIP3   OH254351   3.478   6.610  10.591  0.4205 -0.5167 -0.8307
10979TIP3    H154352   3.407   6.555  10.625 -0.9949  0.8263 -1.5990
10979TIP3    H254353   3.552   6.591  10.649 -0.9435 -0.9028  0.8098
10980TIP3   OH254354   6.230   2.718  15.988 -0.4652 -0.4939 -0.3874
10980TIP3    H154355   6.261   2.788  15.930 -1.6604 -0.7756 -1.3928
10980TIP3    H254356   6.146   2.692  15.951 -1.7414  0.0072  2.1007
10981TIP3   OH254357   1.334   6.476  13.115  0.7033 -0.3512  0.2000
10981TIP3    H154358   1.293   6.535  13.051 -1.1113 -0.2195  1.4418
10981TIP3    H254359   1.271   6.405  13.125  1.4506 -0.8952  1.1000
10982TIP3   OH254360   2.941   2.723   0.997 -0.3361 -0.5333 -0.0740
10982TIP3    H154361   3.026   2.683   1.013 -0.5001  0.2871  3.3162
10982TIP3    H254362   2.883   2.650   0.975  0.8068 -1.3216 -0.4714
10983TIP3   OH254363   4.149   1.032  12.552 -0.1614  0.5467 -0.3846
10983TIP3    H154364   4.065   1.076  12.563 -0.0598  0.6701 -0.0973
10983TIP3    H254365   4.139   0.980  12.472 -0.8160 -0.1575  0.1489
10984TIP3   OH254366   6.403   4.206   3.254  1.0011 -0.1297 -0.4172
10984TIP3    H154367   6.333   4.205   3.188 -0.9020  0.0199  1.5356
10984TIP3    H254368   6.382   4.281   3.310  0.7435 -2.0920  2.2226
10985TIP3   OH254369   1.581   5.490  13.959 -0.1115 -0.4851  0.5824
10985TIP3    H154370   1.613   5.488  13.868 -1.5051 -0.2897  0.0745
10985TIP3    H254371   1.537   5.575  13.967  0.8588 -0.0710  1.7573
10986TIP3   OH254372   3.284   1.686  10.743 -0.3964  0.0870  0.4809
10986TIP3    H154373   3.310   1.645  10.660 -0.3955  1.1000 -0.0238
10986TIP3    H254374   3.234   1.618  10.788  0.0662 -0.6575 -0.1094
10987TIP3   OH254375   3.084   4.469  13.593  0.1351 -0.1108  0.0071
10987TIP3    H154376   3.018   4.538  13.583  0.7407  0.5257  0.3359
10987TIP3    H254377   3.117   4.456  13.504 -0.0943 -0.0846 -0.0832
10988TIP3   OH254378   4.883   1.378   0.043 -0.6847  0.1470 -0.2583
10988TIP3    H154379   4.941   1.334   0.105 -0.8217  1.1050  0.5588
10988TIP3    H254380   4.806   1.322   0.038 -0.0751 -0.6599 -0.6459
10989TIP3   OH254381   2.369   3.858   1.384 -0.1852 -0.1471 -0.5796
10989TIP3    H154382   2.394   3.833   1.295 -0.9156 -1.8402 -0.3365
10989TIP3    H254383   2.449   3.845   1.435 -0.0279 -0.0999 -0.8099
10990TIP3   OH254384   3.479   3.299  16.819  0.1206 -0.6800  0.3325
10990TIP3    H154385   3.521   3.213  16.817 -0.3062 -0.9361 -4.9111
10990TIP3    H254386   3.405   3.290  16.759 -0.5984  3.0579  0.5710
10991TIP3   OH254387   0.618   1.276  15.872  0.5573  0.1343  0.1788
10991TIP3    H154388   0.568   1.273  15.953 -1.4692 -1.7521 -1.0811
10991TIP3    H254389   0.670   1.196  15.873  0.9273  0.3662 -0.1525
10992TIP3   OH254390   2.367   1.461   4.609  0.0367 -0.7470 -0.0377
10992TIP3    H154391   2.399   1.496   4.525  0.5722 -1.8401 -0.2977
10992TIP3    H254392   2.430   1.492   4.673  0.2923 -0.9024 -0.2111
10993TIP3   OH254393   2.435   2.297  10.870 -0.0894 -0.0215  0.1687
10993TIP3    H154394   2.445   2.203  10.855  1.4327  0.3623 -1.3528
10993TIP3    H254395   2.521   2.326  10.898 -0.3048  1.0919 -0.2946
10994TIP3   OH254396   3.862   5.067  15.993 -0.1962 -0.2385 -0.2240
10994TIP3    H154397   3.785   5.020  16.026  0.2997  0.0178  1.3823
10994TIP3    H254398   3.830   5.156  15.976 -0.2625 -0.1279  0.4552
10995TIP3   OH254399   1.661   5.068  12.397  0.0583  0.5945  0.0216
10995TIP3    H154400   1.575   5.109  12.388  0.6050  2.0340  1.1095
10995TIP3    H254401   1.715   5.110  12.330  0.2733  0.6862  0.2507
10996TIP3   OH254402   1.727   6.321  15.371  1.1527 -0.0652 -0.0648
10996TIP3    H154403   1.708   6.239  15.325  1.4758  0.7365 -1.6747
10996TIP3    H254404   1.691   6.389  15.313  2.4538  1.0303  0.4005
10997TIP3   OH254405   2.054   4.564  13.237 -0.5856 -0.2152 -0.2002
10997TIP3    H154406   2.074   4.529  13.324 -0.4055 -0.3961 -0.3145
10997TIP3    H254407   2.134   4.609  13.210 -1.3769  1.7306  0.6546
10998TIP3   OH254408   0.958   3.166   1.282 -0.0425  0.3921 -0.4980
10998TIP3    H154409   0.894   3.145   1.350  1.6684 -0.2194  0.9725
10998TIP3    H254410   0.968   3.261   1.288 -1.9695  0.7099 -1.8280
10999TIP3   OH254411   6.732   5.723  10.802  0.1996 -0.2893  0.4019
10999TIP3    H154412   6.817   5.708  10.842  0.6677 -1.7044 -1.0442
10999TIP3    H254413   6.751   5.734  10.709 -1.1730 -0.5389  0.0791
11000TIP3   OH254414   5.099   1.843   1.782  0.1424  0.2956  0.2120
11000TIP3    H154415   5.191   1.839   1.808 -0.1623 -0.1899  1.2381
11000TIP3    H254416   5.052   1.857   1.864 -0.8732 -1.5610 -0.0248
11001TIP3   OH254417   0.491   1.432  15.077  0.2173 -0.2297  0.2270
11001TIP3    H154418   0.552   1.423  15.150  0.5081  0.9895  0.1521
11001TIP3    H254419   0.517   1.364  15.016  0.2461 -0.9785  1.0733
11002TIP3   OH254420   3.296   2.790  13.625 -0.4567  0.7472  0.6677
11002TIP3    H154421   3.338   2.826  13.547 -1.4707  2.3172  0.8256
11002TIP3    H254422   3.234   2.857  13.652 -3.1008 -1.5487  0.4531
11003TIP3   OH254423   5.130   6.121  11.778 -0.4217 -0.1691  0.2232
11003TIP3    H154424   5.045   6.112  11.821 -1.1091 -0.3734 -1.1442
11003TIP3    H254425   5.131   6.211  11.746  0.8426  0.5535  2.2027
11004TIP3   OH254426   2.284   1.124   1.961  0.2185 -0.2457  0.1644
11004TIP3    H154427   2.213   1.118   1.897  0.5231  0.2844 -0.2290
11004TIP3    H254428   2.252   1.186   2.027  0.2184 -0.1840  0.1070
11005TIP3   OH254429   1.221   6.281   1.514 -0.4834  0.1037 -0.5056
11005TIP3    H154430   1.156   6.273   1.444 -0.8664 -0.5022 -0.0816
11005TIP3    H254431   1.253   6.192   1.527  0.9194  0.5054 -1.1729
11006TIP3   OH254432   6.374   6.490   5.005 -0.2232 -0.5163 -0.1896
11006TIP3    H154433   6.468   6.477   5.000 -0.0792  0.1892  0.6719
11006TIP3    H254434   6.345   6.436   5.079 -0.6573 -1.5424 -1.0777
11007TIP3   OH254435   4.337   2.784  11.271 -0.2887 -0.2093  0.3188
11007TIP3    H154436   4.264   2.784  11.333  0.1980  2.0181  0.9643
11007TIP3    H254437   4.318   2.858  11.213  0.4897 -0.7964 -0.7042
11008TIP3   OH254438   4.817   1.534   5.825 -0.1855  0.1437 -0.6908
11008TIP3    H154439   4.788   1.549   5.915 -0.4044  5.0699 -1.4278
11008TIP3    H254440   4.736   1.520   5.776 -0.2865  0.3147 -0.5755
11009TIP3   OH254441   6.452   6.635   3.882  0.2119 -0.1055 -0.0434
11009TIP3    H154442   6.494   6.592   3.807 -1.1268  0.0251 -0.8771
11009TIP3    H254443   6.377   6.681   3.845 -0.3972  0.0698  1.3711
11010TIP3   OH254444   6.413   0.705   3.567  0.5362 -0.3238  0.1495
11010TIP3    H154445   6.438   0.733   3.479 -0.3449  0.5444  0.1588
11010TIP3    H254446   6.493   0.712   3.619  0.5178  1.3971 -0.0456
11011TIP3   OH254447   4.997   4.010   0.239  0.1730  0.1344  0.0702
11011TIP3    H154448   5.047   3.957   0.177 -1.2650 -0.6879 -0.4316
11011TIP3    H254449   4.913   4.023   0.195 -1.3150 -1.4565  2.3411
11012TIP3   OH254450   2.467   4.365  11.521 -0.1787  0.1670 -0.4757
11012TIP3    H154451   2.450   4.433  11.456  2.9843  0.6945 -0.8522
11012TIP3    H254452   2.513   4.410  11.592 -0.9315 -0.9888  0.7684
11013TIP3   OH254453   5.624   0.368   4.614  0.1725  0.0769 -0.1664
11013TIP3    H154454   5.649   0.308   4.544 -1.1446 -1.0383  0.2837
11013TIP3    H254455   5.651   0.454   4.583 -0.8001 -0.3349 -2.2543
11014TIP3   OH254456   2.363   3.165   2.915  0.2306  0.2370  0.0833
11014TIP3    H154457   2.321   3.244   2.947 -0.0146  0.0054  0.3337
11014TIP3    H254458   2.451   3.166   2.953 -0.1757 -0.2122  1.0377
11015TIP3   OH254459   0.425   6.144   1.243  0.2309  0.5733 -0.0384
11015TIP3    H154460   0.376   6.124   1.163 -2.9608  2.0917  1.4465
11015TIP3    H254461   0.425   6.062   1.293  1.8820 -0.2632 -1.3452
11016TIP3   OH254462   4.000   2.738   5.560  0.1022  0.0968 -0.1236
11016TIP3    H154463   4.043   2.655   5.582 -1.3253 -0.5500  0.3171
11016TIP3    H254464   4.006   2.744   5.465  1.5447  0.2429 -0.0344
11017TIP3   OH254465   5.811   3.839  16.777 -0.2930  0.3921  0.0849
11017TIP3    H154466   5.857   3.777  16.833  1.8815 -1.2000 -3.3104
11017TIP3    H254467   5.720   3.835  16.806 -0.4394 -5.1324 -0.6218
11018TIP3   OH254468   3.208   5.619   2.082 -0.0301 -0.0085 -0.4618
11018TIP3    H154469   3.200   5.652   2.172  0.0694  1.0130 -0.8233
11018TIP3    H254470   3.127   5.648   2.040  0.1219 -0.1113 -0.8180
11019TIP3   OH254471   3.743   5.793  16.650 -0.7409 -0.0952  0.0764
11019TIP3    H154472   3.686   5.731  16.696 -0.9912 -1.6476 -2.2391
11019TIP3    H254473   3.812   5.739  16.612  0.9702  1.4888  0.8367
11020TIP3   OH254474   2.620   2.249   2.124  0.4895  0.3545  0.5214
11020TIP3    H154475   2.547   2.297   2.088  1.3284  1.7237  0.6248
11020TIP3    H254476   2.585   2.206   2.202 -1.4499 -2.9769 -2.0355
11021TIP3   OH254477   6.347   6.728  15.825  0.1130 -0.2364 -0.3401
11021TIP3    H154478   6.378   6.667  15.758  0.6333 -2.7358  2.0600
11021TIP3    H254479   6.253   6.737  15.808  0.5406  0.5369 -2.4101
11022TIP3   OH254480   3.328   3.358  13.220 -0.2037 -0.0235  0.3016
11022TIP3    H154481   3.365   3.423  13.160 -0.2337 -0.0834  0.2181
11022TIP3    H254482   3.268   3.407  13.276  2.2874  0.6570  2.4961
11023TIP3   OH254483   0.209   4.638  12.000  0.4552  0.9182 -0.4060
11023TIP3    H154484   0.172   4.679  11.922  1.0364  1.2041 -0.5322
11023TIP3    H254485   0.291   4.685  12.016  2.7041 -2.1240 -2.3284
11024TIP3   OH254486   3.356   2.596  17.039 -0.5118 -0.4464  0.5533
11024TIP3    H154487   3.339   2.577  17.132 -1.7807  0.7207  0.5742
11024TIP3    H254488   3.372   2.690  17.036 -0.2409 -0.5153 -0.3893
11025TIP3   OH254489   4.762   2.348  13.613  0.1144  0.2664 -0.5877
11025TIP3    H154490   4.852   2.331  13.642 -0.6275 -3.9821 -0.3961
11025TIP3    H254491   4.715   2.366  13.694  0.2427 -0.4670 -0.3387
11026TIP3   OH254492   1.058   2.426   4.513  0.6014 -0.2191  0.2053
11026TIP3    H154493   1.143   2.452   4.549  0.8447  0.2084 -0.6655
11026TIP3    H254494   1.052   2.473   4.430 -0.8331  0.3665  0.6345
11027TIP3   OH254495   1.496   0.345   5.974 -0.5489  0.3152 -0.2195
11027TIP3    H154496   1.460   0.293   6.046 -0.3704 -1.6659 -1.5168
11027TIP3    H254497   1.565   0.398   6.015 -2.0978  1.0388  1.4992
11028TIP3   OH254498   2.628   3.810   1.491  0.4580 -0.0501 -0.4010
11028TIP3    H154499   2.671   3.821   1.406  0.3674  3.7319 -0.0632
11028TIP3    H254500   2.694   3.839   1.555  0.2159 -2.0185  0.7931
11029TIP3   OH254501   2.272   1.725  17.096  0.0081 -0.0123  0.3833
11029TIP3    H154502   2.287   1.649  17.039 -0.6796 -0.0681  0.2746
11029TIP3    H254503   2.315   1.797  17.050 -0.7083 -0.0184 -0.3081
11030TIP3   OH254504   0.349   3.789  15.103 -0.1448 -0.8262 -0.7176
11030TIP3    H154505   0.399   3.709  15.122  0.5705  0.0700  1.2571
11030TIP3    H254506   0.262   3.773  15.139 -0.1872 -0.9570 -0.8774
11031TIP3   OH254507   2.586   6.630   0.197 -0.3354 -0.3216 -0.2657
11031TIP3    H154508   2.645   6.626   0.121 -1.7229  1.0006 -1.4497
11031TIP3    H254509   2.512   6.573   0.172 -0.5972 -0.2257  0.2809
11032TIP3   OH254510   4.842   0.871  15.125  0.6128 -0.3364 -0.2463
11032TIP3    H154511   4.808   0.927  15.056 -0.5621 -0.3261  0.3319
11032TIP3    H254512   4.920   0.829  15.086  0.9472  0.9543 -0.9857
11033TIP3   OH254513   0.128   4.243  13.641 -0.1552 -0.0733 -0.1845
11033TIP3    H154514   0.059   4.212  13.583 -0.8041  2.2177 -0.6939
11033TIP3    H254515   0.192   4.172  13.643 -0.4220 -0.4525 -3.2239
11034TIP3   OH254516   4.019   3.355  13.062  0.1139  0.1150  0.3250
11034TIP3    H154517   4.009   3.381  13.153  3.3376 -0.4036  0.8911
11034TIP3    H254518   3.989   3.264  13.060 -0.4873  0.2985  0.7393
11035TIP3   OH254519   2.354   0.902   4.723 -0.0117 -0.1207 -0.1843
11035TIP3    H154520   2.284   0.922   4.786  0.5400  0.6462  0.1887
11035TIP3    H254521   2.323   0.935   4.640 -0.8976 -1.4426 -0.3948
11036TIP3   OH254522   6.111   4.222  13.249 -0.0553 -0.6277 -0.5539
11036TIP3    H154523   6.100   4.275  13.328  0.8004  1.5858 -1.8626
11036TIP3    H254524   6.027   4.179  13.237  0.5059 -2.8648  2.8292
11037TIP3   OH254525   6.604   4.713   5.613  0.2553  0.1429  0.2886
11037TIP3    H154526   6.656   4.762   5.677  1.5789 -0.2820 -0.4432
11037TIP3    H254527   6.633   4.746   5.528 -0.7601 -0.0218 -0.1337
11038TIP3   OH254528   0.340   1.041  14.552  0.0926  0.5787 -0.2038
11038TIP3    H154529   0.299   1.117  14.594  1.4255  1.2169 -0.0282
11038TIP3    H254530   0.355   1.069  14.462 -0.6418  0.0368 -0.4965
11039TIP3   OH254531   5.351   5.462  14.827  0.2793  0.2504 -0.7673
11039TIP3    H154532   5.372   5.534  14.887  0.7750  1.3504 -2.2328
11039TIP3    H254533   5.434   5.416  14.816  0.3770  0.5485 -1.2665
11040TIP3   OH254534   5.915   5.034  11.242  0.7502  0.1230 -0.0593
11040TIP3    H154535   5.823   5.011  11.229  1.1507 -1.3684 -0.3849
11040TIP3    H254536   5.923   5.046  11.337  0.3832 -0.4853  0.0521
11041TIP3   OH254537   5.910   0.343  13.140  0.1064 -0.2155  0.2777
11041TIP3    H154538   5.962   0.416  13.105  1.3444 -1.5212 -0.6799
11041TIP3    H254539   5.827   0.383  13.166  0.7947  1.5488 -0.1392
11042TIP3   OH254540   2.976   4.840  15.116  0.6872  0.5624  0.8369
11042TIP3    H154541   3.052   4.881  15.158  1.4818  0.9277 -0.8636
11042TIP3    H254542   2.961   4.760  15.166  2.3925  0.3338  1.0394
11043TIP3   OH254543   2.349   3.451  14.652  0.7708 -0.3996  0.7152
11043TIP3    H154544   2.342   3.367  14.697 -2.1747 -1.0655 -0.8489
11043TIP3    H254545   2.282   3.506  14.693  0.4467  0.1107 -0.4712
11044TIP3   OH254546   4.620   2.305  11.296  0.4155 -0.1776 -0.0503
11044TIP3    H154547   4.641   2.389  11.255 -1.8939  0.3561 -0.2625
11044TIP3    H254548   4.548   2.270  11.243 -0.0458 -1.2941  1.2641
11045TIP3   OH254549   2.395   2.715  17.147 -0.5596 -0.2967 -0.0882
11045TIP3    H154550   2.302   2.728  17.131 -0.5771 -0.6181 -0.2555
11045TIP3    H254551   2.402   2.701  17.241 -0.5325  0.9749  0.1084
11046TIP3   OH254552   2.277   5.353   2.860 -0.2486  0.0829  0.1546
11046TIP3    H154553   2.235   5.355   2.946  1.2859 -0.1105  0.9262
11046TIP3    H254554   2.212   5.391   2.801 -1.5192 -0.2518  1.3079
11047TIP3   OH254555   5.725   4.701  12.606 -0.3741 -0.6132 -0.0221
11047TIP3    H154556   5.811   4.660  12.603 -0.1108 -0.0276 -0.4828
11047TIP3    H254557   5.717   4.732  12.696 -0.0671 -0.5924 -0.0007
11048TIP3   OH254558   3.930   5.586   1.158  0.0543 -0.1602 -0.6088
11048TIP3    H154559   3.849   5.637   1.167  0.3601  0.1138  0.6521
11048TIP3    H254560   3.985   5.639   1.100  0.9327  1.6989  1.8280
11049TIP3   OH254561   5.102   4.261  11.246 -0.7518  1.2022  0.2813
11049TIP3    H154562   5.163   4.333  11.259 -0.3139  0.9448 -0.3428
11049TIP3    H254563   5.057   4.283  11.165 -0.3520  0.5766 -0.1048
11050TIP3   OH254564   0.782   3.096   0.095  0.1891  0.2751  0.9828
11050TIP3    H154565   0.760   3.136   0.011  0.1781 -1.4092  0.1611
11050TIP3    H254566   0.700   3.058   0.125  0.4554 -0.1542  1.1724
11051TIP3   OH254567   3.218   5.748  13.631  0.0377 -0.3962 -0.8895
11051TIP3    H154568   3.276   5.743  13.555  0.1692 -1.0388 -0.7471
11051TIP3    H254569   3.136   5.709  13.601 -0.0485 -0.2647 -0.8285
11052TIP3   OH254570   5.752   3.733  15.168  0.1745  0.2708  0.1538
11052TIP3    H154571   5.729   3.722  15.076  0.2616 -0.2975  0.2019
11052TIP3    H254572   5.796   3.818  15.171  0.8245 -0.0380 -0.4586
11053TIP3   OH254573   1.129   4.763  14.741 -0.2774 -0.4193 -0.1305
11053TIP3    H154574   1.136   4.859  14.739 -1.2733 -0.3569 -1.2953
11053TIP3    H254575   1.166   4.734  14.658  2.9353 -1.2933  1.5361
11054TIP3   OH254576   6.073   1.389  11.280  0.4757  0.4180 -0.3787
11054TIP3    H154577   6.137   1.318  11.286 -1.5124 -1.2680  1.5071
11054TIP3    H254578   6.000   1.351  11.232  0.8849  2.3775 -2.6605
11055TIP3   OH254579   4.302   5.376   0.397 -0.5048  0.3896  0.7023
11055TIP3    H154580   4.325   5.289   0.364  0.5392  0.0987  2.1804
11055TIP3    H254581   4.347   5.437   0.338 -0.3233 -0.0787  0.3527
11056TIP3   OH254582   3.640   6.600  16.532 -0.1977  0.1951 -0.0719
11056TIP3    H154583   3.641   6.506  16.517 -1.7563  0.1953 -0.3421
11056TIP3    H254584   3.574   6.634  16.471  0.4407  1.4775 -0.0761
11057TIP3   OH254585   0.686   0.465  15.821 -0.1452 -0.1067  0.3230
11057TIP3    H154586   0.681   0.461  15.726 -0.0402 -2.1986  0.3817
11057TIP3    H254587   0.634   0.542  15.845  0.0208  0.5580 -1.4265
11058TIP3   OH254588   1.602   1.627  13.643  0.2272  0.5928 -0.3161
11058TIP3    H154589   1.554   1.646  13.562  1.3237  0.9390 -0.8923
11058TIP3    H254590   1.675   1.571  13.615 -0.3054 -0.6243  0.6754
11059TIP3   OH254591   5.775   4.842   4.646 -0.3128 -0.8222  0.4572
11059TIP3    H154592   5.864   4.808   4.652 -0.3667 -0.7038  2.4358
11059TIP3    H254593   5.719   4.767   4.667 -0.6791 -0.8466 -0.5821
11060TIP3   OH254594   0.209   2.361  15.005 -0.6353 -0.1603 -0.0881
11060TIP3    H154595   0.300   2.335  15.020  0.0064  1.3659 -1.1893
11060TIP3    H254596   0.194   2.347  14.912 -1.1875  0.5796 -0.1250
11061TIP3   OH254597   5.110   2.802   0.613  0.3344 -0.4480 -0.0789
11061TIP3    H154598   5.098   2.830   0.703 -1.4257  0.6865 -0.6496
11061TIP3    H254599   5.181   2.857   0.580 -0.2004  0.3420  0.0884
11062TIP3   OH254600   4.565   1.287  16.546  0.4894 -0.4692 -0.0070
11062TIP3    H154601   4.609   1.372  16.559 -1.0187  0.3355 -0.0870
11062TIP3    H254602   4.560   1.278  16.450  0.8003 -0.7314 -0.0016
11063TIP3   OH254603   4.345   0.486  12.656  0.7162  0.2542 -0.1502
11063TIP3    H154604   4.417   0.495  12.593  0.8209 -0.4525 -0.1311
11063TIP3    H254605   4.310   0.575  12.665  0.2362  0.2411 -1.7662
11064TIP3   OH254606   5.481   4.158  12.343  0.1701  0.5080  0.6411
11064TIP3    H154607   5.484   4.163  12.439 -1.9108  1.2632  0.6931
11064TIP3    H254608   5.525   4.075  12.322  1.6967  0.9036  2.1544
11065TIP3   OH254609   1.545   1.739   2.861  0.4438  0.1444 -0.2071
11065TIP3    H154610   1.548   1.829   2.891  0.4260  0.8251 -2.1669
11065TIP3    H254611   1.459   1.729   2.821  1.0722 -0.2108 -1.5189
11066TIP3   OH254612   3.469   1.907  13.800 -0.7151  0.3565 -0.4547
11066TIP3    H154613   3.446   1.838  13.737 -0.3154  0.5023 -0.7605
11066TIP3    H254614   3.553   1.940  13.770 -0.7289  0.7266 -0.0920
11067TIP3   OH254615   4.524   2.513  16.320  0.0384  0.4242 -0.4418
11067TIP3    H154616   4.494   2.423  16.311 -0.3178  0.4165  0.7752
11067TIP3    H254617   4.616   2.510  16.291 -0.3822 -0.0422 -1.7450
11068TIP3   OH254618   2.869   2.517  12.211  0.0735 -0.1437 -0.1327
11068TIP3    H154619   2.941   2.580  12.213  0.9382 -0.9972 -2.3416
11068TIP3    H254620   2.837   2.514  12.301  2.6683  0.4008  0.8490
11069TIP3   OH254621   0.815   3.909  11.897  0.3901 -0.2309  0.1305
11069TIP3    H154622   0.783   3.946  11.815 -0.7473  0.8866  1.0502
11069TIP3    H254623   0.807   3.980  11.961 -2.8418 -2.3081  2.1868
11070TIP3   OH254624   4.119   4.059   3.081 -0.4404  0.1338  0.3872
11070TIP3    H154625   4.129   4.068   2.987 -1.9488  0.7157  0.2717
11070TIP3    H254626   4.178   4.125   3.118 -1.3245  1.2730 -0.2023
11071TIP3   OH254627   2.896   0.255  10.652  0.3769  0.5382  0.2735
11071TIP3    H154628   2.950   0.182  10.623 -0.1166 -1.5776  4.3480
11071TIP3    H254629   2.955   0.310  10.703  0.3019  2.0826 -1.2453
11072TIP3   OH254630   2.881   0.859  13.960 -0.0384 -0.0480 -0.2069
11072TIP3    H154631   2.924   0.805  14.025  1.0636  0.8478 -0.1825
11072TIP3    H254632   2.823   0.799  13.913  1.7579 -1.4108 -0.7061
11073TIP3   OH254633   3.674   2.544  14.168  0.1745 -0.6002 -0.0188
11073TIP3    H154634   3.755   2.506  14.135  0.0398 -1.5396  0.6906
11073TIP3    H254635   3.617   2.468  14.185 -0.3899 -0.0329  0.6721
11074TIP3   OH254636   5.731   4.290  13.130 -0.0767  0.5189  0.1867
11074TIP3    H154637   5.775   4.373  13.115 -0.6016  1.1551  1.9993
11074TIP3    H254638   5.642   4.314  13.156 -0.1687 -0.5750  0.9324
11075TIP3   OH254639   5.498   0.595  14.660 -0.5468 -0.4983  0.1269
11075TIP3    H154640   5.420   0.572  14.710  0.3893 -1.9376  0.9480
11075TIP3    H254641   5.470   0.591  14.569 -1.7857  0.3581  0.4571
11076TIP3   OH254642   4.861   0.280   4.193  0.1983 -0.0387 -0.1707
11076TIP3    H154643   4.845   0.347   4.126  1.2436 -1.3056 -1.7276
11076TIP3    H254644   4.775   0.260   4.228 -0.3699  0.6261 -1.1540
11077TIP3   OH254645   6.302   0.525  16.005  0.4582 -0.2501 -0.1055
11077TIP3    H154646   6.355   0.458  15.961 -0.0282 -1.1696  0.7053
11077TIP3    H254647   6.342   0.533  16.092  1.2000  1.3130 -0.5629
11078TIP3   OH254648   0.036   6.401   1.215 -0.2042 -0.6777  0.0892
11078TIP3    H154649   0.009   6.406   1.306  1.0222  0.2309  0.4120
11078TIP3    H254650   0.090   6.322   1.211  2.2724  0.9170  0.8552
11079TIP3   OH254651   3.599   5.167   1.015  0.4998 -0.0514 -0.5238
11079TIP3    H154652   3.541   5.155   1.091  1.0325 -1.3915 -0.3281
11079TIP3    H254653   3.658   5.092   1.017  1.1368  0.4039 -1.7286
11080TIP3   OH254654   0.268   4.024  12.831 -0.1590 -0.4569  0.0469
11080TIP3    H154655   0.186   4.053  12.792  0.7783  1.5952 -0.4943
11080TIP3    H254656   0.253   4.031  12.926 -0.3356  0.8012 -0.0560
11081TIP3   OH254657   1.009   2.166  13.007  0.3261  0.4169 -0.3174
11081TIP3    H154658   1.091   2.201  12.973 -0.0970  1.0491 -0.6952
11081TIP3    H254659   1.035   2.101  13.072  1.1745 -1.3315 -2.3137
11082TIP3   OH254660   1.275   0.666  15.757 -0.0026 -0.3153 -0.0736
11082TIP3    H154661   1.251   0.649  15.666 -1.1798  0.7367  0.0383
11082TIP3    H254662   1.307   0.757  15.756  0.7332 -0.5680  0.4170
11083TIP3   OH254663   2.222   5.161  14.512  0.2352  0.4291 -0.4334
11083TIP3    H154664   2.267   5.236  14.551  0.0699  0.4190 -0.2229
11083TIP3    H254665   2.292   5.099  14.491  0.3653  0.6109 -0.5395
11084TIP3   OH254666   1.645   6.680  16.726  0.0487  0.2522  0.3731
11084TIP3    H154667   1.649   6.775  16.720 -0.6534  0.3417  1.2636
11084TIP3    H254668   1.623   6.662  16.818  1.1194 -0.7928  0.4398
11085TIP3   OH254669   3.795   2.183   5.488  0.3800  0.0005 -0.1090
11085TIP3    H154670   3.872   2.229   5.456 -0.4238  1.2906 -0.2105
11085TIP3    H254671   3.825   2.093   5.505  2.1281  0.7387  0.7595
11086TIP3   OH254672   5.339   0.127   2.669 -0.0857 -0.0590  0.4423
11086TIP3    H154673   5.411   0.068   2.647  0.8471 -0.2657  3.8063
11086TIP3    H254674   5.382   0.210   2.691 -1.0672  0.5456  0.1275
11087TIP3   OH254675   5.939   3.847  11.589 -0.6372  0.6703 -0.5028
11087TIP3    H154676   5.971   3.876  11.503  1.9666  0.4016  0.3703
11087TIP3    H254677   6.015   3.812  11.634 -1.9127  1.0485  2.0664
11088TIP3   OH254678   5.806   5.322  10.947 -1.0613  0.2990 -0.1123
11088TIP3    H154679   5.812   5.227  10.936  0.6785  0.4339 -0.5049
11088TIP3    H254680   5.722   5.336  10.989 -0.1734 -1.6308  2.4048
11089TIP3   OH254681   0.734   1.974  12.260 -0.7011 -0.3881 -0.1723
11089TIP3    H154682   0.661   2.030  12.233  0.0080  0.6256 -0.0259
11089TIP3    H254683   0.727   1.896  12.205 -0.6564  0.6297 -1.6380
11090TIP3   OH254684   4.542   1.491  14.333  0.2048 -0.2407 -0.1774
11090TIP3    H154685   4.552   1.423  14.400 -0.3072 -0.6022 -0.4642
11090TIP3    H254686   4.453   1.523  14.345  0.2963  0.0761 -0.3333
11091TIP3   OH254687   6.580   2.752   0.954  0.0159  0.0445  0.0263
11091TIP3    H154688   6.666   2.773   0.917 -0.5081 -0.4117 -1.4937
11091TIP3    H254689   6.570   2.811   1.029  1.1932  0.8406 -0.4438
11092TIP3   OH254690   5.271   6.367  15.776  0.1377 -0.8016 -0.1513
11092TIP3    H154691   5.348   6.333  15.729  1.1578  0.6349  0.4458
11092TIP3    H254692   5.298   6.368  15.868  0.2761  1.9019 -0.1766
11093TIP3   OH254693   3.882   4.765   2.190  0.2284  0.0004  0.0803
11093TIP3    H154694   3.806   4.823   2.186 -0.3701 -0.8173 -0.6848
11093TIP3    H254695   3.957   4.823   2.172 -0.0779  1.0234  1.9966
11094TIP3   OH254696   0.176   2.167   4.243 -0.5265 -0.1630 -0.4362
11094TIP3    H154697   0.229   2.189   4.166 -0.9881  1.4047 -0.3347
11094TIP3    H254698   0.224   2.206   4.317 -0.6629 -0.6829 -0.0732
11095TIP3   OH254699   6.291   4.626   4.904  0.2171  0.0627  0.0579
11095TIP3    H154700   6.344   4.650   4.980  0.2497  1.8504 -0.4975
11095TIP3    H254701   6.355   4.608   4.835  0.1484  0.2025 -0.0428
11096TIP3   OH254702   1.136   4.474  13.048 -0.2082  0.1824 -0.2454
11096TIP3    H154703   1.065   4.507  13.104 -1.7009 -1.1040 -1.3484
11096TIP3    H254704   1.104   4.390  13.016  0.8301  0.6753 -2.6368
11097TIP3   OH254705   4.452   1.093   0.901  0.1962  0.2084 -0.3485
11097TIP3    H154706   4.547   1.107   0.902  0.1377  0.5177  1.5977
11097TIP3    H254707   4.442   0.998   0.899  0.5319  0.1824 -2.3375
11098TIP3   OH254708   5.700   3.612  16.395  0.2188  0.8628  0.6437
11098TIP3    H154709   5.741   3.592  16.479 -1.8105  1.4778  1.8057
11098TIP3    H254710   5.644   3.688  16.412 -1.6213 -0.1177 -0.7936
11099TIP3   OH254711   0.211   5.419   6.025 -0.1892  0.3276 -0.2546
11099TIP3    H154712   0.294   5.373   6.017 -1.3507 -1.6977 -1.1438
11099TIP3    H254713   0.168   5.379   6.101 -0.8525  0.5420 -0.5088
11100TIP3   OH254714   4.119   3.948   0.450  0.1727 -0.1665 -0.5541
11100TIP3    H154715   4.156   3.863   0.474  0.6961 -0.2674 -1.6935
11100TIP3    H254716   4.132   3.954   0.355  0.3921  1.3002 -0.4433
11101TIP3   OH254717   5.644   1.852  13.856 -0.4992  0.0373 -0.5203
11101TIP3    H154718   5.559   1.846  13.811 -0.4277  1.2572 -0.8188
11101TIP3    H254719   5.646   1.940  13.892  1.4775  0.7104 -2.1795
11102TIP3   OH254720   3.731   4.790  12.133  0.2013 -0.2340  0.0699
11102TIP3    H154721   3.649   4.837  12.152 -0.3056 -0.6951 -0.9391
11102TIP3    H254722   3.799   4.857  12.142 -0.6195  1.0146 -2.4573
11103TIP3   OH254723   4.734   2.954  11.269 -0.1975  0.6239 -0.9697
11103TIP3    H154724   4.814   2.929  11.223  1.1843  0.9197  1.1803
11103TIP3    H254725   4.677   2.990  11.201  1.7155  0.9439 -2.4434
11104TIP3   OH254726   1.981   2.738  11.549  0.1472  0.7861  0.1322
11104TIP3    H154727   2.075   2.718  11.543  0.3040  0.8948  1.9421
11104TIP3    H254728   1.952   2.742  11.458  1.6183 -0.5706 -0.4326
11105TIP3   OH254729   0.216   4.149  16.580  0.1281 -0.4912 -0.0662
11105TIP3    H154730   0.135   4.148  16.631  0.7059  0.6803  0.8971
11105TIP3    H254731   0.280   4.190  16.638  0.7677  0.9531 -1.7621
11106TIP3   OH254732   0.097   1.816  15.508  0.2675 -0.0205 -0.0927
11106TIP3    H154733   0.151   1.768  15.446 -0.0842 -0.5712  0.0284
11106TIP3    H254734   0.136   1.903  15.511  0.6401 -0.1669 -0.6405
11107TIP3   OH254735   6.359   5.524   2.424  0.2986 -0.0243 -0.0409
11107TIP3    H154736   6.362   5.465   2.349 -0.3515 -0.2489  0.1102
11107TIP3    H254737   6.293   5.590   2.401 -1.1090 -1.0448  1.0246
11108TIP3   OH254738   2.191   5.735  13.944  0.6827 -0.3009  0.4871
11108TIP3    H154739   2.207   5.815  13.993  1.9203  0.5646 -1.2593
11108TIP3    H254740   2.240   5.667  13.991 -0.6659 -0.1267  2.1731
11109TIP3   OH254741   1.198   5.695   0.948 -0.0053  0.1890 -0.0437
11109TIP3    H154742   1.175   5.757   0.878 -1.7584 -0.6318 -0.2276
11109TIP3    H254743   1.138   5.717   1.019  0.2877 -0.4222  0.3894
11110TIP3   OH254744   5.038   4.817  16.928  0.8437  1.1787 -0.2518
11110TIP3    H154745   5.092   4.886  16.965  0.5690  1.5412 -0.5260
11110TIP3    H254746   5.058   4.740  16.981  0.1269  1.7981  0.9549
11111TIP3   OH254747   4.393   2.517   2.122  0.1539 -0.3089 -0.0478
11111TIP3    H154748   4.471   2.467   2.098 -0.1055 -0.9039  0.3620
11111TIP3    H254749   4.426   2.589   2.176  0.9164  1.7744 -3.1003
11112TIP3   OH254750   5.427   3.293   1.166 -0.1149  0.1800  0.6399
11112TIP3    H154751   5.393   3.211   1.131  1.8093 -0.2109 -0.3242
11112TIP3    H254752   5.376   3.308   1.246 -0.5813 -1.8544  0.7278
11113TIP3   OH254753   5.578   6.584  15.634 -0.2713  0.4523  0.1726
11113TIP3    H154754   5.508   6.628  15.682 -0.7021  1.3920 -1.2858
11113TIP3    H254755   5.606   6.648  15.568  0.6495 -0.6214 -0.5027
11114TIP3   OH254756   5.020   2.441  15.115  0.3527 -0.3947 -0.0984
11114TIP3    H154757   4.954   2.480  15.058  1.4348 -1.0722 -1.8673
11114TIP3    H254758   5.038   2.356  15.075  0.7355 -1.1389  1.5956
11115TIP3   OH254759   1.566   2.176  15.091  0.3611 -0.7023 -0.3954
11115TIP3    H154760   1.571   2.100  15.033 -0.2400 -0.5754 -0.6133
11115TIP3    H254761   1.476   2.207  15.083  0.0500 -1.1671  1.2015
11116TIP3   OH254762   0.748   3.357   2.683 -0.4763  0.6402 -0.1062
11116TIP3    H154763   0.786   3.288   2.630  1.1294  1.2683  0.1982
11116TIP3    H254764   0.795   3.437   2.658  0.0300  1.0225  1.9266
11117TIP3   OH254765   3.222   5.974   1.900  0.3508 -0.6712  0.9510
11117TIP3    H154766   3.133   5.955   1.870 -0.3180  1.1232  1.7438
11117TIP3    H254767   3.279   5.930   1.837 -1.0907 -1.1324 -0.0409
11118TIP3   OH254768   2.285   6.576  16.474 -0.2106 -0.2912  0.1757
11118TIP3    H154769   2.272   6.491  16.516 -2.0159  0.4781  1.2203
11118TIP3    H254770   2.321   6.554  16.388 -1.1010 -2.1542  0.2478
11119TIP3   OH254771   1.198   4.857   0.756  0.1521 -0.6695 -0.0926
11119TIP3    H154772   1.263   4.802   0.712  1.8199  0.7544  0.5069
11119TIP3    H254773   1.207   4.834   0.849  0.9054  0.6153  0.1709
11120TIP3   OH254774   6.353   4.777   1.107 -0.3399 -0.6025 -0.3081
11120TIP3    H154775   6.275   4.779   1.052 -0.6822 -0.4284  0.1817
11120TIP3    H254776   6.411   4.843   1.069 -0.0901 -1.3023 -1.1690
11121TIP3   OH254777   2.343   4.808   3.781  0.2654 -0.9741 -0.0138
11121TIP3    H154778   2.414   4.748   3.764 -0.4368 -1.6777 -0.4862
11121TIP3    H254779   2.264   4.760   3.757 -0.3012  0.1348 -0.4039
11122TIP3   OH254780   4.299   0.603  12.328 -0.9848  0.0895 -0.4735
11122TIP3    H154781   4.389   0.572  12.327 -0.4000  1.7146  0.6143
11122TIP3    H254782   4.267   0.585  12.240 -0.0968 -1.8690 -0.4379
11123TIP3   OH254783   6.079   5.647  10.911 -0.4177  0.0323 -0.0452
11123TIP3    H154784   6.153   5.649  10.851 -0.0348 -0.3944  0.4050
11123TIP3    H254785   6.084   5.730  10.959  0.5020 -0.5341  0.8540
11124TIP3   OH254786   1.351   3.806  16.468 -0.3340  0.0258  0.3491
11124TIP3    H154787   1.273   3.772  16.425  0.4398 -0.8867 -0.3713
11124TIP3    H254788   1.347   3.769  16.556 -0.6403 -0.1331  0.2701
11125TIP3   OH254789   5.555   6.073  13.194  0.2501  0.0581  0.0100
11125TIP3    H154790   5.531   6.127  13.269  2.2660 -2.0288  2.2414
11125TIP3    H254791   5.572   5.987  13.231  1.0364 -1.1000 -2.9101
11126TIP3   OH254792   4.373   2.551   3.676  0.0596  0.0147 -0.4026
11126TIP3    H154793   4.429   2.508   3.740 -0.0467  0.6814  0.1455
11126TIP3    H254794   4.388   2.644   3.689  0.1042  0.1590 -1.4134
11127TIP3   OH254795   2.368   4.865   0.177 -0.2663  0.0537  0.0445
11127TIP3    H154796   2.338   4.870   0.086  0.9536 -0.7406 -0.4102
11127TIP3    H254797   2.460   4.840   0.171 -0.5447 -1.3984  1.5364
11128TIP3   OH254798   2.868   3.948   2.390  0.5668  0.1006 -0.1973
11128TIP3    H154799   2.791   3.890   2.389  0.2824  0.4676  0.4613
11128TIP3    H254800   2.942   3.888   2.403  0.3398 -0.1869 -0.2114
11129TIP3   OH254801   5.141   3.998  16.675  0.6094 -0.1771 -0.4260
11129TIP3    H154802   5.079   3.967  16.742  1.7199 -1.0333  0.2258
11129TIP3    H254803   5.087   4.017  16.599 -0.6977  0.8792  0.7393
11130TIP3   OH254804   5.406   5.666  13.774  0.1917 -0.6719  0.3525
11130TIP3    H154805   5.359   5.613  13.838  1.0838 -2.7227 -0.6667
11130TIP3    H254806   5.494   5.628  13.771  0.5820  0.3044 -1.0415
11131TIP3   OH254807   2.832   0.926   4.782  0.3867  0.1094 -0.6929
11131TIP3    H154808   2.894   0.868   4.825  0.3680  0.5285 -0.0883
11131TIP3    H254809   2.766   0.868   4.743 -0.2717 -0.2187  0.8965
11132TIP3   OH254810   5.207   2.587  15.897 -0.0130  0.2691  0.1246
11132TIP3    H154811   5.214   2.666  15.843 -0.6943  0.2132 -0.0542
11132TIP3    H254812   5.286   2.588  15.951  0.6358  0.3776 -0.7995
11133TIP3   OH254813   1.119   0.603   4.124  1.0412 -0.2056 -0.6100
11133TIP3    H154814   1.184   0.630   4.060  0.6726  1.2853 -0.3672
11133TIP3    H254815   1.059   0.677   4.131  0.1494 -0.9875  0.2497
11134TIP3   OH254816   1.104   0.703  12.322  0.2316  1.0331 -0.7407
11134TIP3    H154817   1.165   0.775  12.339  1.4561  0.1476 -1.2668
11134TIP3    H254818   1.037   0.741  12.265  0.7669  1.8050 -0.8671
11135TIP3   OH254819   2.594   6.729  12.550 -0.0547  0.1868  0.0689
11135TIP3    H154820   2.550   6.745  12.466  0.4313 -0.2592 -0.2738
11135TIP3    H254821   2.540   6.776  12.614  0.7395  2.2999 -0.7568
11136TIP3   OH254822   2.724   0.097  13.830 -0.1569  0.0563  0.6520
11136TIP3    H154823   2.797   0.055  13.785  0.5233  1.1960  0.6665
11136TIP3    H254824   2.729   0.189  13.803 -2.6438 -0.1599 -0.7476
11137TIP3   OH254825   6.273   1.951   6.023  0.3302  0.1183  0.5445
11137TIP3    H154826   6.273   1.902   6.105  1.9058  1.5186  1.4157
11137TIP3    H254827   6.196   2.009   6.031  2.2052  2.4732  2.4683
11138TIP3   OH254828   3.850   6.272   2.349  0.1638  0.1674 -0.5707
11138TIP3    H154829   3.754   6.273   2.347  0.0845 -0.3432  1.6273
11138TIP3    H254830   3.873   6.179   2.355  0.8297  0.2432 -1.8578
11139TIP3   OH254831   2.202   0.758  12.731  0.6555 -0.1223  0.2566
11139TIP3    H154832   2.217   0.841  12.775  0.6482  0.0183 -0.0040
11139TIP3    H254833   2.186   0.782  12.639 -1.2593 -0.2498  0.5337
11140TIP3   OH254834   1.735   6.767   3.486  0.1452 -0.2124 -0.0741
11140TIP3    H154835   1.699   6.855   3.472 -1.3374 -0.8268 -0.1948
11140TIP3    H254836   1.668   6.721   3.537 -0.3005 -2.0943 -2.2549
11141TIP3   OH254837   1.174   4.095   2.654  0.5711  0.2274 -0.5968
11141TIP3    H154838   1.239   4.130   2.594 -0.8763  3.5273 -0.3165
11141TIP3    H254839   1.217   4.096   2.740  1.2302 -0.6779 -0.9037
11142TIP3   OH254840   5.481   1.033   5.411  0.1983  0.5712 -0.5711
11142TIP3    H154841   5.506   1.090   5.338  2.2112  1.1875  0.5726
11142TIP3    H254842   5.528   1.068   5.486 -2.4960  0.4375  1.2394
11143TIP3   OH254843   2.617   4.975  16.223  0.0841 -0.0760  0.0859
11143TIP3    H154844   2.705   4.941  16.236  0.5738  1.0651 -0.1918
11143TIP3    H254845   2.623   5.067  16.249 -0.5785  0.4852 -1.6710
11144TIP3   OH254846   3.483   1.319  14.119  0.4231 -0.2346  0.4898
11144TIP3    H154847   3.521   1.376  14.185  0.7469  0.9309 -0.6774
11144TIP3    H254848   3.416   1.372  14.076  0.5549 -0.8040 -0.4511
11145TIP3   OH254849   2.156   5.227  11.487 -0.6174  0.5011 -0.0162
11145TIP3    H154850   2.105   5.161  11.438 -1.3225 -0.2135  1.6541
11145TIP3    H254851   2.245   5.217  11.453 -1.4038  1.2405 -2.4350
11146TIP3   OH254852   2.574   4.955  12.735  0.3100 -0.2669  0.2898
11146TIP3    H154853   2.551   4.913  12.818  0.1476 -2.0353 -0.6130
11146TIP3    H254854   2.664   4.986  12.749 -0.0058  0.2095  1.3906
11147TIP3   OH254855   5.125   4.704  14.438 -0.5258  0.0726 -0.3514
11147TIP3    H154856   5.150   4.744  14.520 -0.7819 -0.1114 -0.1824
11147TIP3    H254857   5.138   4.772  14.372  0.0990  0.0786 -0.2207
11148TIP3   OH254858   3.690   0.350  15.831 -0.5640 -0.5513  0.4486
11148TIP3    H154859   3.707   0.286  15.900 -2.2052 -0.1063  1.3084
11148TIP3    H254860   3.678   0.297  15.752 -0.0477 -1.1749  0.7816
11149TIP3   OH254861   5.456   6.399   0.585 -0.3437 -0.3266  0.2901
11149TIP3    H154862   5.517   6.357   0.524 -0.0065 -0.6374  0.8364
11149TIP3    H254863   5.372   6.398   0.539 -0.9251 -3.8793  1.2092
11150TIP3   OH254864   1.729   4.350   1.708 -0.2707 -0.2336 -0.3948
11150TIP3    H154865   1.788   4.361   1.782  1.0938 -1.5972 -1.2420
11150TIP3    H254866   1.700   4.439   1.687 -0.0805  0.2418  1.2784
11151TIP3   OH254867   4.254   2.282  16.884  0.2328 -0.0481  0.2607
11151TIP3    H154868   4.294   2.198  16.862 -2.2332 -1.3123  0.4509
11151TIP3    H254869   4.247   2.282  16.980 -0.7386 -0.1032  0.1978
11152TIP3   OH254870   3.800   1.223   0.072 -0.0323  0.1231  0.0508
11152TIP3    H154871   3.706   1.210   0.078  0.0137  0.7620  2.4304
11152TIP3    H254872   3.815   1.310   0.109  1.3358  0.6485 -1.6717
11153TIP3   OH254873   5.347   2.781  15.467 -0.1600 -0.4493  0.0892
11153TIP3    H154874   5.383   2.753  15.383  0.5764 -0.3475  0.3620
11153TIP3    H254875   5.422   2.780  15.526  0.0900  2.8352 -0.0601
11154TIP3   OH254876   0.005   4.534   3.444  0.2536 -0.0055 -0.5850
11154TIP3    H154877   0.060   4.521   3.367  0.2428  0.1667 -0.6221
11154TIP3    H254878  -0.007   4.629   3.450  3.4441  0.3222  1.8544
11155TIP3   OH254879   3.254   3.320  15.596  0.2207 -0.1447  0.3094
11155TIP3    H154880   3.246   3.282  15.509  2.7784 -1.3792  0.5553
11155TIP3    H254881   3.187   3.276  15.648 -1.9335  1.2669 -1.2276
11156TIP3   OH254882   5.449   0.904  16.588  0.0300  0.3714  0.0161
11156TIP3    H154883   5.487   0.912  16.501 -0.1197 -2.3168 -0.3333
11156TIP3    H254884   5.365   0.859  16.575 -0.2634  0.4555  1.4656
11157TIP3   OH254885   2.406   1.056  14.956 -0.5762 -0.0033 -0.2094
11157TIP3    H154886   2.485   1.042  15.008 -2.0110 -1.4226  1.6689
11157TIP3    H254887   2.384   1.148  14.970  0.0473  0.0712  0.2758
11158TIP3   OH254888   5.025   3.085   2.117  0.1481  0.7218  0.6095
11158TIP3    H154889   5.077   3.005   2.123 -1.3747 -0.3110  0.0970
11158TIP3    H254890   5.087   3.155   2.138  2.2322 -0.3230 -1.8138
11159TIP3   OH254891   5.671   6.527   0.971 -0.0781 -0.5405  0.0342
11159TIP3    H154892   5.619   6.572   1.038  0.2893  0.2688 -0.2257
11159TIP3    H254893   5.613   6.457   0.940 -0.5965 -0.3432  0.5413
11160TIP3   OH254894   3.627   2.702   6.401 -0.1295  0.3047  0.3168
11160TIP3    H154895   3.644   2.632   6.338 -0.5577 -1.2534  1.8903
11160TIP3    H254896   3.533   2.696   6.419  0.0445  0.5413  1.3211
11161TIP3   OH254897   1.576   3.791  13.371 -0.1889 -0.2169  0.0341
11161TIP3    H154898   1.491   3.751  13.387  0.1731 -0.4811  1.3610
11161TIP3    H254899   1.593   3.843  13.449  0.2426  0.9534 -0.8263
11162TIP3   OH254900   4.054   3.140   6.233 -0.2455 -0.2037 -0.5339
11162TIP3    H154901   4.099   3.059   6.209  1.4910  0.9461 -1.2446
11162TIP3    H254902   4.105   3.175   6.307 -1.7730 -0.4301  0.6472
11163TIP3   OH254903   5.651   4.429  15.158  0.0244  0.0133  0.4189
11163TIP3    H154904   5.639   4.370  15.084 -0.9345 -0.0801  0.6410
11163TIP3    H254905   5.579   4.493  15.150 -0.4389 -0.3438  1.5819
11164TIP3   OH254906   4.139   0.716   2.010  0.0657 -0.1300 -0.1678
11164TIP3    H154907   4.086   0.651   2.056 -0.4418  1.3957  1.4593
11164TIP3    H254908   4.077   0.784   1.984  0.6825  0.0021 -1.3514
11165TIP3   OH254909   1.276   0.251  12.941  0.8439 -0.3783  0.1250
11165TIP3    H154910   1.343   0.320  12.939  1.0653 -0.6158 -1.8950
11165TIP3    H254911   1.309   0.184  12.881  0.1676 -1.8252  1.3276
11166TIP3   OH254912   6.294   3.180  11.051 -0.3944  0.2663 -0.0345
11166TIP3    H154913   6.288   3.109  10.987 -1.0454  0.5068 -0.2422
11166TIP3    H254914   6.327   3.255  11.002 -1.8093  0.7146 -0.2970
11167TIP3   OH254915   5.178   5.324   0.178 -0.2088  0.1804 -0.0684
11167TIP3    H154916   5.098   5.330   0.126 -0.4463 -1.1046  0.1282
11167TIP3    H254917   5.156   5.364   0.262  0.3369  2.7453 -1.1156
11168TIP3   OH254918   0.307   0.815   1.641 -0.0652 -0.6227 -1.0083
11168TIP3    H154919   0.346   0.742   1.593  1.3401 -0.4600 -0.1511
11168TIP3    H254920   0.283   0.878   1.574 -0.5337 -1.5256 -1.6961
11169TIP3   OH254921   4.975   4.978  15.794 -0.4332 -0.0364 -0.0642
11169TIP3    H154922   5.004   5.031  15.868  1.0405  0.0743 -0.7178
11169TIP3    H254923   5.020   4.895  15.804  0.3656  0.2422 -1.2581
11170TIP3   OH254924   2.910   5.696  12.556  0.2707  0.0237 -0.0751
11170TIP3    H154925   2.851   5.771  12.550 -0.3706 -0.6064 -1.9819
11170TIP3    H254926   2.936   5.678  12.466  0.1172 -2.2741  0.2972
11171TIP3   OH254927   6.714   3.156  15.835 -0.6147 -0.4113  0.2740
11171TIP3    H154928   6.699   3.114  15.920  0.5418 -1.4838 -0.0422
11171TIP3    H254929   6.633   3.139  15.786 -0.1386 -2.3491  0.1274
11172TIP3   OH254930   6.320   4.860   4.543  0.6675 -0.3114 -0.3019
11172TIP3    H154931   6.363   4.777   4.562 -1.1965 -1.2091  0.0194
11172TIP3    H254932   6.383   4.926   4.572  1.7492 -1.6033  0.3399
11173TIP3   OH254933   6.764   0.374  17.144 -0.0697 -0.0567  0.2251
11173TIP3    H154934   6.724   0.289  17.126  0.6742 -0.4932  0.5794
11173TIP3    H254935   6.828   0.386  17.073  0.3432 -0.1334  0.5813
11174TIP3   OH254936   3.612   1.218   4.872 -0.0985 -0.4363 -0.0860
11174TIP3    H154937   3.547   1.212   4.942 -1.0444  0.8963 -0.8374
11174TIP3    H254938   3.661   1.135   4.878 -1.0049 -0.8929  1.3091
11175TIP3   OH254939   1.791   1.537   2.083  0.2056 -0.5364  0.4591
11175TIP3    H154940   1.808   1.564   2.173  0.9130 -0.0794  0.1846
11175TIP3    H254941   1.696   1.526   2.079  0.0643  0.4750  0.9693
11176TIP3   OH254942   2.381   1.943  16.972  0.4116  0.1569  0.1660
11176TIP3    H154943   2.451   2.009  16.972  0.5260  0.0490 -0.9701
11176TIP3    H254944   2.309   1.985  16.925  0.5973 -0.6397 -0.8398
11177TIP3   OH254945   4.805   0.574   5.075 -0.0609  0.4046 -0.9324
11177TIP3    H154946   4.834   0.566   4.985 -0.4784 -0.8342 -0.9599
11177TIP3    H254947   4.872   0.628   5.117  0.8182 -0.1039 -1.6630
11178TIP3   OH254948   5.203   2.418   1.280  0.4211 -0.5323  0.4444
11178TIP3    H154949   5.227   2.330   1.252 -1.2822 -0.5914 -0.9000
11178TIP3    H254950   5.126   2.440   1.228  0.0588  1.2607  1.6825
11179TIP3   OH254951   3.290   4.938   4.473  0.1661 -0.2153 -0.7371
11179TIP3    H154952   3.384   4.957   4.482  0.3778 -1.5118 -0.0658
11179TIP3    H254953   3.279   4.852   4.514 -1.3431 -0.0208 -0.7127
11180TIP3   OH254954   4.248   6.655   3.288  0.7043 -0.2443  0.0394
11180TIP3    H154955   4.164   6.654   3.334  0.9043  2.2515  0.5168
11180TIP3    H254956   4.298   6.584   3.329  0.2924  0.8756  2.5662
11181TIP3   OH254957   1.490   2.602   6.297  0.3198  0.4067  0.1448
11181TIP3    H154958   1.444   2.660   6.358 -1.8021 -0.2931 -0.7344
11181TIP3    H254959   1.446   2.616   6.213  1.0365 -1.0764 -0.4985
11182TIP3   OH254960   2.902   2.036   5.701  0.1384  0.4312  0.9917
11182TIP3    H154961   2.907   2.034   5.797 -1.4040  2.6508  1.1760
11182TIP3    H254962   2.818   1.996   5.680 -0.1480  1.1820  0.6734
11183TIP3   OH254963   2.197   5.976  14.827 -0.2696  0.0827  0.4935
11183TIP3    H154964   2.169   5.960  14.917 -0.3289 -0.1453  0.4334
11183TIP3    H254965   2.140   6.047  14.796 -0.9968 -0.5854  0.2729
11184TIP3   OH254966   2.377   3.076   3.951  0.4089  0.1275 -0.1939
11184TIP3    H154967   2.340   3.076   3.863  1.4254 -0.5884 -0.6319
11184TIP3    H254968   2.471   3.084   3.937  0.5601  0.1905  0.8391
11185TIP3   OH254969   6.687   6.318  10.941  0.3009 -0.0236 -0.4165
11185TIP3    H154970   6.617   6.326  10.876  0.9142  0.3793 -1.0373
11185TIP3    H254971   6.758   6.371  10.906  1.7510 -2.2356 -0.9428
11186TIP3   OH254972   0.079   5.687  15.580  0.0758  0.1059  0.0941
11186TIP3    H154973   0.014   5.692  15.650  2.1672  0.8415  2.0381
11186TIP3    H254974   0.057   5.606  15.533 -1.0896 -0.6588  1.8892
11187TIP3   OH254975   2.353   5.919  17.100 -0.1184  0.0146  0.3519
11187TIP3    H154976   2.429   5.915  17.159 -0.0627  2.0775  0.4485
11187TIP3    H254977   2.357   6.006  17.061 -1.9856 -0.1543 -0.2753
11188TIP3   OH254978   0.549   3.847  12.612 -0.5726  0.0268 -0.1523
11188TIP3    H154979   0.570   3.924  12.665 -0.6081  0.2282 -0.4283
11188TIP3    H254980   0.459   3.826  12.636  0.0087 -0.9663  1.1843
11189TIP3   OH254981   6.513   4.797   2.128 -0.1550 -0.5275 -0.0508
11189TIP3    H154982   6.601   4.806   2.092  0.4531 -1.0951  1.2836
11189TIP3    H254983   6.493   4.704   2.120 -0.9027 -0.3105 -0.9213
11190TIP3   OH254984   2.127   5.445  14.128 -0.1780  0.3961  0.0618
11190TIP3    H154985   2.062   5.487  14.071  0.0952 -0.3163 -0.7884
11190TIP3    H254986   2.085   5.443  14.214 -1.1105  0.3629 -0.3812
11191TIP3   OH254987   3.008   1.056   3.600  0.5250 -0.6893  0.4718
11191TIP3    H154988   2.972   1.143   3.617  1.3276  0.1562 -1.8786
11191TIP3    H254989   2.957   1.022   3.526  0.4528 -2.0617  1.1432
11192TIP3   OH254990   0.358   6.351  16.193 -0.5208 -0.5275 -0.3377
11192TIP3    H154991   0.379   6.441  16.166  0.8861 -1.4282 -2.3038
11192TIP3    H254992   0.291   6.322  16.132  0.5755 -1.5552 -1.0766
11193TIP3   OH254993   4.415   6.062  15.540 -0.3892 -0.2211 -0.1500
11193TIP3    H154994   4.350   6.116  15.586 -0.9160 -1.8369  1.0277
11193TIP3    H254995   4.373   6.040  15.457 -1.3895 -1.3152  0.6336
11194TIP3   OH254996   6.021   4.961   1.961  0.2970  0.2466  0.8639
11194TIP3    H154997   6.039   4.987   2.052  0.3986  0.8146  0.6783
11194TIP3    H254998   6.095   4.905   1.938 -0.1885 -0.6548  1.4386
11195TIP3   OH254999   5.522   0.956  16.322 -0.0938 -0.0958 -0.7259
11195TIP3    H155000   5.556   1.041  16.350  1.0740 -0.6792 -0.3340
11195TIP3    H255001   5.589   0.921  16.263 -0.4138 -0.8761 -0.6332
11196TIP3   OH255002   1.556   4.868  16.457  0.0517 -0.3632 -0.0834
11196TIP3    H155003   1.627   4.922  16.491  0.4347 -1.5019  0.9667
11196TIP3    H255004   1.492   4.930  16.422 -0.5141  0.8809  3.0033
11197TIP3   OH255005   0.762   0.338  13.909  0.3661 -0.0758  0.1952
11197TIP3    H155006   0.818   0.416  13.904 -0.4638  0.5837  1.1076
11197TIP3    H255007   0.823   0.266  13.919  1.1226  0.5047 -0.1627
11198TIP3   OH255008   0.114   2.621  11.137 -0.2321  0.8341 -0.6570
11198TIP3    H155009   0.171   2.654  11.207  0.4072  1.1669 -1.3204
11198TIP3    H255010   0.158   2.542  11.106  0.0190  1.2442 -1.3578
11199TIP3   OH255011   4.810   5.648  16.683 -0.5418 -0.6791 -0.1446
11199TIP3    H155012   4.731   5.686  16.722 -0.2556 -1.7939  1.5950
11199TIP3    H255013   4.852   5.720  16.637 -1.4569  0.4247  0.7441
11200TIP3   OH255014   2.869   6.391  16.868 -0.0323 -0.1364 -0.0002
11200TIP3    H155015   2.891   6.430  16.784  0.1651 -0.7835 -0.2487
11200TIP3    H255016   2.946   6.405  16.923 -0.9481  2.2215  0.7842
11201TIP3   OH255017   5.099   0.824  14.335  0.2580  0.1596  0.0353
11201TIP3    H155018   5.045   0.745  14.335  0.5100 -0.0103 -0.8340
11201TIP3    H255019   5.075   0.871  14.256  0.8509  0.4506  0.0204
11202TIP3   OH255020   5.448   4.280   6.359 -0.1388  0.8607  0.3316
11202TIP3    H155021   5.520   4.296   6.420 -1.2865  1.5010  1.5273
11202TIP3    H255022   5.483   4.214   6.299  0.7057 -0.4612  2.2193
11203TIP3   OH255023   6.752   6.116   0.106  0.8899  0.0964  0.4349
11203TIP3    H155024   6.739   6.161   0.189  0.1038  0.8754 -0.1129
11203TIP3    H255025   6.835   6.149   0.073  0.7370  0.4902  0.4504
11204TIP3   OH255026   1.867   3.371   0.044  0.8404  0.5343 -0.2608
11204TIP3    H155027   1.830   3.286   0.021 -1.1490  1.1319  0.6397
11204TIP3    H255028   1.938   3.350   0.105 -0.3660 -0.4076  0.8325
11205TIP3   OH255029   5.105   4.415   4.595  0.0288 -0.1495  0.2467
11205TIP3    H155030   5.157   4.410   4.675 -2.0384  1.8299  1.7545
11205TIP3    H255031   5.075   4.506   4.591 -0.3731 -0.3562 -2.4968
11206TIP3   OH255032   0.480   3.267   6.283 -0.0056  0.1709  0.1990
11206TIP3    H155033   0.528   3.349   6.298 -0.5992  0.4858  0.3828
11206TIP3    H255034   0.388   3.293   6.280 -0.0707 -0.2071 -1.7393
11207TIP3   OH255035   1.963   5.805  12.071 -0.1001 -0.0355 -0.0899
11207TIP3    H155036   1.869   5.812  12.091  0.1852  0.6041  1.0877
11207TIP3    H255037   1.983   5.886  12.024 -0.0847 -0.0602 -0.1253
11208TIP3   OH255038   2.489   2.951   0.419  0.3390 -0.0865  0.0662
11208TIP3    H155039   2.518   2.979   0.331  0.4322 -1.0658 -0.2242
11208TIP3    H255040   2.410   3.002   0.435  0.8470  0.8035 -0.1861
11209TIP3   OH255041   1.597   5.404   5.497  0.1707  0.1297 -0.1779
11209TIP3    H155042   1.639   5.398   5.583 -0.7308  1.0375  0.3388
11209TIP3    H255043   1.544   5.483   5.502 -0.3009 -0.1004 -1.3961
11210TIP3   OH255044   4.978   6.253  12.415  0.2051 -0.4205  0.4601
11210TIP3    H155045   5.073   6.242  12.417  0.0827 -1.7423 -0.3377
11210TIP3    H255046   4.943   6.167  12.439 -0.7897 -0.3204 -0.5814
11211TIP3   OH255047   6.370   2.981  14.285 -0.6199 -0.3116 -0.2670
11211TIP3    H155048   6.371   2.894  14.325 -2.2906 -0.5201 -0.6362
11211TIP3    H255049   6.310   2.972  14.211  1.2836  0.4615 -1.9554
11212TIP3   OH255050   3.224   4.231  15.453  0.0017  0.2439  0.4110
11212TIP3    H155051   3.161   4.170  15.416 -0.6925  0.9585  0.3907
11212TIP3    H255052   3.174   4.281  15.517  0.1849  1.7619 -0.5922
11213TIP3   OH255053   6.107   1.635   4.043 -0.8062  0.1199  0.2172
11213TIP3    H155054   6.152   1.717   4.024 -0.1926 -0.8232 -2.5050
11213TIP3    H255055   6.167   1.589   4.103 -0.4801  0.9933  0.5840
11214TIP3   OH255056   1.261   4.084  16.344 -0.2908  0.3402 -0.5472
11214TIP3    H155057   1.288   4.151  16.407 -0.1169  0.5919 -0.8830
11214TIP3    H255058   1.195   4.032  16.390  0.2615  0.1547  0.0422
11215TIP3   OH255059   6.358   5.343  15.166 -0.3167 -0.1849  0.0096
11215TIP3    H155060   6.391   5.350  15.076 -0.6672  1.3930 -0.0159
11215TIP3    H255061   6.375   5.252  15.191 -0.2974 -0.6642 -1.6810
11216TIP3   OH255062   3.230   3.813  12.315  0.2610 -0.5745  0.2835
11216TIP3    H155063   3.177   3.740  12.283  0.1808 -0.1012 -0.6942
11216TIP3    H255064   3.318   3.796  12.281  0.1267  0.0429 -0.3899
11217TIP3   OH255065   2.164   4.313  11.708 -0.1406 -0.5393  0.2583
11217TIP3    H155066   2.099   4.271  11.652 -0.1834 -0.1289 -0.0087
11217TIP3    H255067   2.211   4.372  11.648  0.1140 -0.4358  0.5631
11218TIP3   OH255068   3.564   0.747  14.486  0.1436 -0.5940  0.0007
11218TIP3    H155069   3.488   0.806  14.490 -1.3038 -2.4136  0.1167
11218TIP3    H255070   3.581   0.737  14.392  1.5544  1.4213  0.0149
11219TIP3   OH255071   0.615   1.826   3.270 -0.5339 -0.2489  0.6640
11219TIP3    H155072   0.595   1.750   3.215 -1.0309 -1.5159  2.5754
11219TIP3    H255073   0.680   1.794   3.333 -1.4678  0.6588  2.1075
11220TIP3   OH255074   5.798   6.251  13.478  0.2961  0.1823  0.4351
11220TIP3    H155075   5.859   6.182  13.454  1.3659  0.7707  1.3978
11220TIP3    H255076   5.799   6.252  13.573 -1.1044  0.3067  0.4568
11221TIP3   OH255077   2.116   6.716  16.956  0.3683  0.3570  0.0438
11221TIP3    H155078   2.026   6.729  16.986  0.0420 -1.8749  0.1781
11221TIP3    H255079   2.163   6.793  16.987 -1.3632  1.2491  0.5465
11222TIP3   OH255080   2.462   3.835   1.082 -0.2120  0.4291 -0.2199
11222TIP3    H155081   2.378   3.789   1.078  0.9577 -1.5962 -2.3045
11222TIP3    H255082   2.450   3.912   1.026 -0.2295 -0.6481 -1.7282
11223TIP3   OH255083   5.568   3.699  14.150 -0.4968 -0.0622  0.8369
11223TIP3    H155084   5.536   3.765  14.089 -0.8460 -1.0905 -0.1189
11223TIP3    H255085   5.652   3.733  14.181  0.8787 -0.6343 -2.0928
11224TIP3   OH255086   4.167   3.873  15.687 -0.8076  0.0398  0.2764
11224TIP3    H155087   4.093   3.826  15.648 -2.8708  2.4642  1.0855
11224TIP3    H255088   4.167   3.959  15.644  0.9858  0.3904  0.9102
11225TIP3   OH255089   4.349   6.429  11.279 -0.2886 -0.0358 -0.5997
11225TIP3    H155090   4.395   6.442  11.196  1.3019 -0.2794  0.2300
11225TIP3    H255091   4.402   6.476  11.343 -1.1404 -0.4289  0.4060
11226TIP3   OH255092   4.388   0.275   1.627  0.2860 -0.2610  0.1235
11226TIP3    H155093   4.298   0.245   1.632  0.5977 -1.2559 -0.0894
11226TIP3    H255094   4.400   0.331   1.703 -1.1418  1.6305 -0.9997
11227TIP3   OH255095   3.735   3.290   1.074 -0.6475 -0.1286 -0.7637
11227TIP3    H155096   3.712   3.350   1.003 -0.5099 -0.5059 -1.1321
11227TIP3    H255097   3.729   3.343   1.153 -0.0940  0.4900 -1.1251
11228TIP3   OH255098   2.028   1.041  11.774  0.3727 -0.0845  0.4994
11228TIP3    H155099   2.001   0.949  11.778 -1.3493  0.2550 -1.9892
11228TIP3    H255100   2.124   1.038  11.775  0.4080 -2.1113 -1.8775
11229TIP3   OH255101   4.019   0.349  16.183  0.3736 -0.1261  0.3328
11229TIP3    H155102   3.970   0.431  16.191  0.0559  0.0408 -2.9372
11229TIP3    H255103   3.956   0.281  16.208 -0.1678  0.4033  0.4305
11230TIP3   OH255104   0.117   5.563   6.407 -0.2675 -0.1442 -0.2209
11230TIP3    H155105   0.118   5.645   6.358  0.0797 -0.1894 -0.2876
11230TIP3    H255106   0.151   5.586   6.494  0.6098 -0.3874 -0.5023
11231TIP3   OH255107   6.754   1.447   6.174 -0.0073  0.6721 -0.3187
11231TIP3    H155108   6.667   1.462   6.136 -0.6966  0.8859  1.2844
11231TIP3    H255109   6.796   1.533   6.171  0.1169  0.5951 -0.9773
11232TIP3   OH255110   3.990   2.379   1.316 -0.0585  0.3929 -0.2173
11232TIP3    H155111   3.974   2.315   1.386  0.3844 -0.6554 -1.0548
11232TIP3    H255112   3.918   2.365   1.255  0.8141 -0.2755 -1.0965
11233TIP3   OH255113   1.808   6.703  13.919  0.0543  0.1305 -0.0218
11233TIP3    H155114   1.750   6.777  13.934  0.5728  0.3026  1.1330
11233TIP3    H255115   1.771   6.632  13.972  0.4978  0.0328  0.1576
11234TIP3   OH255116   2.294   3.457   4.226 -0.0199 -0.0317  0.1596
11234TIP3    H155117   2.301   3.456   4.131  1.3486 -1.6261  0.2422
11234TIP3    H255118   2.366   3.513   4.255 -1.3066  1.6258  0.2276
11235TIP3   OH255119   5.747   3.049  12.374 -0.4510 -0.2177  1.0252
11235TIP3    H155120   5.779   3.127  12.419  1.1534 -0.9254  1.1193
11235TIP3    H255121   5.697   3.083  12.300  2.8879  0.8994 -0.7996
11236TIP3   OH255122   6.602   0.852   5.645 -0.1010 -0.7157 -0.5510
11236TIP3    H155123   6.697   0.862   5.651 -0.1845 -0.5314  0.4878
11236TIP3    H255124   6.587   0.761   5.670 -0.1075 -1.0705 -1.7982
11237TIP3   OH255125   6.386   2.407  13.450 -0.0644  0.2098  0.0940
11237TIP3    H155126   6.455   2.374  13.507  1.8835  1.3016 -1.6106
11237TIP3    H255127   6.390   2.502  13.460 -0.7935  0.3218 -0.6245
11238TIP3   OH255128   2.918   3.457  13.729 -0.0689  0.6282  0.0245
11238TIP3    H155129   2.870   3.501  13.799  0.5758 -1.5925  1.9151
11238TIP3    H255130   3.010   3.464  13.755  0.2547  0.5646 -1.0649
11239TIP3   OH255131   0.780   4.959  14.466  0.2806  0.1026  0.3880
11239TIP3    H155132   0.734   4.883  14.431 -1.1018  0.4769  1.3384
11239TIP3    H255133   0.871   4.945  14.442 -0.2729 -0.7959 -1.2922
11240TIP3   OH255134   3.813   0.678  14.934  0.0351  0.6874 -0.3073
11240TIP3    H155135   3.751   0.610  14.961 -0.8221  1.6530  0.1622
11240TIP3    H255136   3.786   0.700  14.845  0.3720  0.3636 -0.4954
11241TIP3   OH255137   3.732   4.782  15.405  0.3578 -0.2656  0.3487
11241TIP3    H155138   3.679   4.737  15.470  0.8123 -0.6032  0.4859
11241TIP3    H255139   3.759   4.713  15.344  1.7530 -0.3379  1.0265
11242TIP3   OH255140   6.469   3.134   1.505  0.1491 -0.6973  0.6567
11242TIP3    H155141   6.424   3.146   1.421 -1.7667 -1.8124  1.4820
11242TIP3    H255142   6.552   3.180   1.494 -1.1535  1.3784 -0.9518
11243TIP3   OH255143   0.553   0.361  14.959  0.0219 -0.1425  0.3996
11243TIP3    H155144   0.622   0.378  14.895 -0.5735 -1.5162 -0.6355
11243TIP3    H255145   0.501   0.291  14.920 -0.7548 -0.5351  2.0876
11244TIP3   OH255146   3.863   5.877   6.430  0.2256 -0.2211  0.1847
11244TIP3    H155147   3.910   5.919   6.502  1.3911 -0.3432 -0.4977
11244TIP3    H255148   3.916   5.895   6.353 -1.4761  0.6870 -0.8096
11245TIP3   OH255149   2.847   5.993   5.061  0.8968  0.3666 -0.4082
11245TIP3    H155150   2.800   6.010   5.142  0.0203  1.0209 -1.0470
11245TIP3    H255151   2.891   5.909   5.076  1.2229  0.7645  0.9497
11246TIP3   OH255152   2.291   6.200  13.092 -0.6203  0.8528  0.4622
11246TIP3    H155153   2.244   6.149  13.026 -0.7653  1.8690 -0.2310
11246TIP3    H255154   2.261   6.164  13.176  1.2391 -1.9516 -0.0003
11247TIP3   OH255155   6.389   3.310  11.417 -0.4157 -0.4064  0.3659
11247TIP3    H155156   6.301   3.346  11.405 -0.1035  0.2181 -0.1060
11247TIP3    H255157   6.444   3.362  11.358  0.3529 -0.4807  1.0140
11248TIP3   OH255158   2.042   2.286  15.679  0.1891  0.3998  0.6356
11248TIP3    H155159   1.963   2.322  15.720 -0.2587  0.2331 -0.0780
11248TIP3    H255160   2.090   2.362  15.647  0.5205  0.5290  1.4282
11249TIP3   OH255161   3.678   4.288  14.320  0.3783 -0.3451  0.1094
11249TIP3    H155162   3.607   4.289  14.256  0.4234  0.1936  0.0644
11249TIP3    H255163   3.657   4.358  14.381  0.6665 -0.4384  0.3156
11250TIP3   OH255164   1.994   6.766  12.474 -0.5269  0.1103  0.4748
11250TIP3    H155165   1.947   6.692  12.511  1.1887 -1.5344 -0.5352
11250TIP3    H255166   1.962   6.773  12.384  1.0377 -0.9670 -0.1922
11251TIP3   OH255167   2.161   3.368   2.173 -0.6568 -0.1110 -0.2654
11251TIP3    H155168   2.164   3.308   2.098  2.3823 -0.4235  0.0203
11251TIP3    H255169   2.171   3.455   2.135 -0.5332 -0.1544 -0.3319
11252TIP3   OH255170   4.255   3.347   1.094  0.0148 -0.3566 -0.0077
11252TIP3    H155171   4.262   3.422   1.035  2.7464  0.3255  1.0708
11252TIP3    H255172   4.344   3.311   1.097 -0.6254 -1.8772  1.7588
11253TIP3   OH255173   1.807   3.758   2.462  0.4386 -0.6991  0.4178
11253TIP3    H155174   1.766   3.709   2.391 -2.7385 -0.1206  1.7548
11253TIP3    H255175   1.757   3.734   2.540  0.5419  2.4962  1.5659
11254TIP3   OH255176   5.759   3.787  13.882  0.3527 -0.0448  0.0873
11254TIP3    H155177   5.683   3.731  13.864 -0.4757  0.9834  0.3138
11254TIP3    H255178   5.721   3.872  13.906  1.6005  0.9224 -1.2725
11255TIP3   OH255179   4.991   5.056  14.025 -0.6785  0.1257 -0.4481
11255TIP3    H155180   4.984   5.048  13.930  0.0082  0.4577 -0.5315
11255TIP3    H255181   5.069   5.109  14.039 -0.6405 -0.1232  0.3122
11256TIP3   OH255182   5.228   6.124  12.439 -0.2519  0.0823  0.1380
11256TIP3    H155183   5.286   6.061  12.396  0.9768  1.3248 -0.0879
11256TIP3    H255184   5.241   6.109  12.532  1.1265  0.9386  0.1009
11257TIP3   OH255185   6.312   0.224  13.332 -0.1675  0.8384 -0.0321
11257TIP3    H155186   6.246   0.155  13.339  0.9199 -0.1474  0.7461
11257TIP3    H255187   6.310   0.267  13.417  0.4086  0.5929  0.1087
11258TIP3   OH255188   1.626   1.947   3.125  0.6873  0.3143  0.2005
11258TIP3    H155189   1.696   1.976   3.067  0.4192 -1.2516 -0.9336
11258TIP3    H255190   1.666   1.878   3.178 -0.1753 -1.1369 -0.9878
11259TIP3   OH255191   3.382   3.271   3.236  0.1327 -0.1660 -0.1498
11259TIP3    H155192   3.441   3.340   3.209 -1.5453  1.9503  1.4325
11259TIP3    H255193   3.431   3.220   3.301  0.9909  0.2110 -0.5118
11260TIP3   OH255194   1.910   2.288  16.517 -0.1257  0.5067 -0.3465
11260TIP3    H155195   1.883   2.240  16.439 -0.2489 -0.1738  0.1104
11260TIP3    H255196   1.985   2.240  16.551  0.2130  1.0623 -0.3020
11261TIP3   OH255197   3.291   0.189   2.446 -0.2769  0.0890 -0.8369
11261TIP3    H155198   3.343   0.154   2.520 -3.9464 -0.1922  1.7306
11261TIP3    H255199   3.354   0.241   2.396  2.5336 -0.2822  2.0818
11262TIP3   OH255200   2.142   3.090   4.108 -0.2950  0.2798 -0.6423
11262TIP3    H155201   2.238   3.086   4.106 -0.2886 -0.1463  0.4228
11262TIP3    H255202   2.114   3.030   4.039  0.1884 -0.6516 -0.0438
11263TIP3   OH255203   4.612   3.949   0.276 -0.3767 -0.0153  0.4824
11263TIP3    H155204   4.631   3.962   0.184 -1.5618  0.7625  0.3336
11263TIP3    H255205   4.618   4.036   0.315  2.6817 -0.6893  1.6700
11264TIP3   OH255206   0.939   0.253  14.290  0.3148 -0.6372 -0.5336
11264TIP3    H155207   0.899   0.337  14.264 -0.9593 -1.7275 -2.2579
11264TIP3    H255208   0.866   0.202  14.326  1.2826 -0.6679  1.4350
11265TIP3   OH255209   1.468   2.535  15.347 -0.1597 -0.1368 -0.4332
11265TIP3    H155210   1.397   2.476  15.372 -0.0568  0.0748  0.3581
11265TIP3    H255211   1.451   2.616  15.395  1.4726 -0.6115  0.9892
11266TIP3   OH255212   1.375   6.036  12.724 -0.3242 -0.2194 -0.2182
11266TIP3    H155213   1.459   6.061  12.762 -0.8577  0.8468  0.2845
11266TIP3    H255214   1.384   5.943  12.704  0.4171 -0.4847  1.3034
11267TIP3   OH255215   2.993   5.839   0.342 -0.0707  0.0945  0.4747
11267TIP3    H155216   2.918   5.798   0.385  1.1475 -3.1369 -0.3696
11267TIP3    H255217   2.988   5.809   0.252  2.7197 -0.8661  0.6032
11268TIP3   OH255218   4.000   5.461   1.643  0.2662 -0.0034  0.0631
11268TIP3    H155219   3.987   5.388   1.703  1.4967  1.1137  1.7283
11268TIP3    H255220   4.094   5.462   1.626 -0.1560 -0.8277 -2.6025
11269TIP3   OH255221   1.081   0.430  12.190  0.3182 -0.1068 -0.4378
11269TIP3    H155222   1.140   0.499  12.221  0.0519  1.0524 -2.3898
11269TIP3    H255223   0.999   0.445  12.237  0.7851 -0.1500  0.3997
11270TIP3   OH255224   2.753   6.404  13.734  0.0223  0.2002  0.0635
11270TIP3    H155225   2.799   6.329  13.770 -0.0917  0.1648  0.1343
11270TIP3    H255226   2.820   6.449  13.681 -0.2406 -0.6677 -1.0377
11271TIP3   OH255227   5.323   0.946  12.828 -0.0928 -0.2839 -0.0259
11271TIP3    H155228   5.241   0.920  12.785  0.2450 -2.4639  0.6102
11271TIP3    H255229   5.305   0.938  12.921  0.6376 -0.0703  0.1326
11272TIP3   OH255230   4.082   0.186  13.010 -0.0346 -0.1532 -0.2819
11272TIP3    H155231   4.162   0.235  12.992  0.5209 -0.9314  0.0216
11272TIP3    H255232   4.013   0.234  12.965 -0.0973  2.9143  2.9354
11273TIP3   OH255233   6.237   4.484  15.387 -0.1874  0.3135 -0.4739
11273TIP3    H155234   6.204   4.528  15.466 -0.8198 -1.1307  0.0808
11273TIP3    H255235   6.165   4.492  15.324 -0.9553 -1.3393  0.1708
11274TIP3   OH255236   0.019   3.595  13.633  0.6343  0.0953  0.3195
11274TIP3    H155237   0.043   3.545  13.711 -0.2194 -0.3541  0.2940
11274TIP3    H255238   0.097   3.646  13.613  0.5290  0.9728  2.0585
11275TIP3   OH255239   4.262   5.723  11.126  0.0483 -0.0346  0.0676
11275TIP3    H155240   4.213   5.736  11.045  1.8073  1.1412 -0.8189
11275TIP3    H255241   4.306   5.806  11.142  0.6799 -0.6362  1.5859
11276TIP3   OH255242   4.859   5.078  15.171 -0.1814  0.0556 -0.4946
11276TIP3    H155243   4.786   5.041  15.120  0.9349 -1.6350 -0.9208
11276TIP3    H255244   4.936   5.033  15.137  0.9068  0.8824  0.8483
11277TIP3   OH255245   5.847   6.228  14.328 -0.1944  0.2520 -0.4088
11277TIP3    H155246   5.796   6.305  14.351 -0.8387 -0.3923  0.3791
11277TIP3    H255247   5.830   6.166  14.399  1.6383 -0.0026 -0.1540
11278TIP3   OH255248   5.538   3.656   3.555 -0.2467 -0.2256 -0.3249
11278TIP3    H155249   5.493   3.672   3.638  0.7559  0.0431  0.1697
11278TIP3    H255250   5.473   3.675   3.488 -1.3547 -1.3371  0.4103
11279TIP3   OH255251   6.557   6.030   3.147 -0.8924 -0.3514 -0.1596
11279TIP3    H155252   6.597   5.971   3.084 -0.3636 -0.4256  0.2441
11279TIP3    H255253   6.480   5.984   3.178  0.7965 -1.8648  1.9226
11280TIP3   OH255254   6.028   2.859  11.149 -0.4071  0.2941  0.1102
11280TIP3    H155255   5.958   2.881  11.088  0.0384 -0.5580 -0.7155
11280TIP3    H255256   6.097   2.822  11.095 -0.7287 -2.1654  1.3158
11281TIP3   OH255257   4.926   3.771   1.789  0.0043  0.2082  0.0606
11281TIP3    H155258   4.936   3.858   1.750  1.5925 -0.8439 -1.9915
11281TIP3    H255259   4.923   3.786   1.883  1.6539  2.3710 -0.2126
11282TIP3   OH255260   0.673   4.410  15.763 -0.3739 -0.1270  0.0827
11282TIP3    H155261   0.662   4.402  15.668  0.0238  0.9698 -0.0601
11282TIP3    H255262   0.765   4.429  15.775 -0.6681  0.9977  0.6019
11283TIP3   OH255263   0.261   0.695  11.751 -0.1209  0.1611  0.2027
11283TIP3    H155264   0.306   0.714  11.834  1.3392 -1.9898 -0.0393
11283TIP3    H255265   0.299   0.757  11.689 -0.4092  1.0333  0.8819
11284TIP3   OH255266   6.695   2.101   1.271 -0.0961 -0.0050 -0.0777
11284TIP3    H155267   6.630   2.164   1.241  0.9240  1.8406  1.4223
11284TIP3    H255268   6.758   2.154   1.321  2.2410 -1.8122 -1.0186
11285TIP3   OH255269   2.777   4.717  11.647 -0.0993  0.3540 -0.2545
11285TIP3    H155270   2.743   4.803  11.672  0.5483  0.0147  1.8891
11285TIP3    H255271   2.700   4.661  11.641 -0.3385  0.6340  0.2103
11286TIP3   OH255272   4.751   0.727  13.109  0.0801 -0.0033 -0.1376
11286TIP3    H155273   4.785   0.736  13.198 -0.1889 -0.9721  0.0734
11286TIP3    H255274   4.656   0.740  13.118  0.0550 -0.0766 -0.2889
11287TIP3   OH255275   2.784   2.982  15.976  0.3212  0.2966 -0.2254
11287TIP3    H155276   2.751   2.898  16.006  0.7174  0.5747  1.0431
11287TIP3    H255277   2.873   2.963  15.946  0.2014  0.1582 -0.4951
11288TIP3   OH255278   3.977   2.866   4.056 -0.0700 -0.4804  0.2000
11288TIP3    H155279   3.897   2.834   4.015 -0.9345  1.0442  0.6477
11288TIP3    H255280   4.010   2.933   3.997  1.7746 -2.1848 -0.7744
11289TIP3   OH255281   6.254   5.883  13.465 -0.6002 -0.2204 -0.0126
11289TIP3    H155282   6.346   5.859  13.474 -0.3672  0.6091 -0.1568
11289TIP3    H255283   6.238   5.882  13.371 -0.3929  0.9024 -0.0658
11290TIP3   OH255284   3.564   5.714  12.347  0.2846 -0.5440  0.5491
11290TIP3    H155285   3.535   5.623  12.352 -2.5572  0.2212 -0.6172
11290TIP3    H255286   3.524   5.756  12.423  0.3191  0.0505  0.2399
11291TIP3   OH255287   2.502   5.962  11.691 -0.2931 -0.0645  0.6365
11291TIP3    H155288   2.432   6.026  11.673 -0.7036 -0.4432  0.8765
11291TIP3    H255289   2.457   5.889  11.733 -0.2627 -1.7105 -2.0805
11292TIP3   OH255290   2.983   2.862   2.349  0.4795  0.1693 -0.1900
11292TIP3    H155291   2.946   2.820   2.426 -0.6942  0.7874 -0.4051
11292TIP3    H255292   3.053   2.803   2.321  0.8176 -0.1252  1.2535
11293TIP3   OH255293   4.017   2.237   2.189 -0.5391  0.0647  0.1730
11293TIP3    H155294   4.054   2.218   2.104 -0.0761 -1.9778  0.8078
11293TIP3    H255295   4.085   2.213   2.252 -1.2542  0.5599  1.1667
11294TIP3   OH255296   3.203   3.469  10.831 -0.2765  0.2584  0.2105
11294TIP3    H155297   3.129   3.478  10.891 -1.0730 -1.4807 -0.4781
11294TIP3    H255298   3.192   3.541  10.769 -0.7544  0.6769  0.7768
11295TIP3   OH255299   0.631   4.602  10.414 -0.5940  0.3606  0.0927
11295TIP3    H155300   0.566   4.606  10.344 -0.1381 -0.4123 -0.3835
11295TIP3    H255301   0.689   4.676  10.398 -1.6295  1.3527  0.8091
11296TIP3   OH255302   5.107   5.431  16.018 -0.2650  0.2159 -0.4186
11296TIP3    H155303   5.176   5.480  16.063  2.0044 -1.2098 -2.2697
11296TIP3    H255304   5.057   5.498  15.972 -0.9805  1.4064  2.0069
11297TIP3   OH255305   0.216   6.122  13.006 -0.2097  0.8454  0.1493
11297TIP3    H155306   0.207   6.030  13.031 -1.6454  0.2625 -2.4291
11297TIP3    H255307   0.285   6.121  12.940 -2.7525  1.0617 -2.5938
11298TIP3   OH255308   5.287   1.684   2.869 -0.5724  0.5951 -0.0932
11298TIP3    H155309   5.283   1.638   2.953  0.4501  1.1178  0.2487
11298TIP3    H255310   5.343   1.760   2.885 -0.2300  0.6182 -1.2870
11299TIP3   OH255311   4.004   0.293   1.484  0.0919  0.0125 -0.0207
11299TIP3    H155312   4.096   0.275   1.503  0.5336  1.1953 -0.9459
11299TIP3    H255313   3.999   0.294   1.388 -0.4293  2.1077  0.0037
11300TIP3   OH255314   3.524   0.786   4.782 -0.4680  0.4186  0.7180
11300TIP3    H155315   3.491   0.713   4.834 -3.4119 -0.9226 -2.8332
11300TIP3    H255316   3.544   0.748   4.697  3.4928  2.7044  0.5180
11301TIP3   OH255317   6.112   1.149   2.666  0.6895  0.3825  0.1863
11301TIP3    H155318   6.153   1.167   2.582  1.0843  0.6954  0.4421
11301TIP3    H255319   6.037   1.092   2.646  1.7736 -0.9304 -0.1893
11302TIP3   OH255320   4.843   5.714  13.341 -0.4171  0.7441 -0.5103
11302TIP3    H155321   4.938   5.702  13.331 -0.3493 -0.9723  1.8299
11302TIP3    H255322   4.831   5.732  13.434 -2.3059  2.2418 -1.0128
11303TIP3   OH255323   5.682   3.395  16.659  0.6090 -0.3268 -0.5405
11303TIP3    H155324   5.726   3.311  16.659 -1.0801 -1.2362 -0.6521
11303TIP3    H255325   5.589   3.374  16.663  0.2388  1.6041  2.7944
11304TIP3   OH255326   5.872   6.266   0.006  0.1059  0.6201  0.4356
11304TIP3    H155327   5.791   6.216  -0.004 -0.4421  1.0996  2.1846
11304TIP3    H255328   5.913   6.231   0.085  1.3752  0.7122 -0.1614
11305TIP3   OH255329   5.993   0.498  16.336 -0.4870 -0.4313  0.4403
11305TIP3    H155330   5.936   0.429  16.371  0.0769 -2.1117 -1.8946
11305TIP3    H255331   6.079   0.478  16.372 -0.6847  0.2091  1.3053
11306TIP3   OH255332   4.068   1.649  12.672  0.0770  0.0907  0.2550
11306TIP3    H155333   4.162   1.657  12.692  0.9241 -2.2007 -2.5033
11306TIP3    H255334   4.034   1.589  12.739  1.1645 -1.1851 -0.3205
11307TIP3   OH255335   2.149   2.129  16.555 -0.7848 -0.1386 -0.1221
11307TIP3    H155336   2.175   2.043  16.589  0.8182  0.3927  0.0104
11307TIP3    H255337   2.158   2.121  16.460 -0.0080  0.0674 -0.0730
11308TIP3   OH255338   2.240   0.509  16.824 -0.0331  0.3376  0.2515
11308TIP3    H155339   2.255   0.603  16.839  0.4187  0.0109  2.0129
11308TIP3    H255340   2.315   0.481  16.772  0.6978  0.6248  1.1338
11309TIP3   OH255341   6.118   3.100   3.321 -0.5173 -0.2039 -0.3574
11309TIP3    H155342   6.150   3.190   3.311  0.5640 -0.4788  0.6143
11309TIP3    H255343   6.193   3.050   3.352 -1.1165 -1.4559 -0.8750
11310TIP3   OH255344   2.292   0.896   3.635 -0.1244  0.0482  0.4023
11310TIP3    H155345   2.323   0.986   3.652  2.6536 -0.9983  1.2839
11310TIP3    H255346   2.334   0.872   3.552 -0.4322 -0.6210  0.4406
11311TIP3   OH255347   4.723   1.704   5.125  0.2113  0.3889 -0.0296
11311TIP3    H155348   4.716   1.798   5.109 -0.5051  0.3788  0.2310
11311TIP3    H255349   4.641   1.668   5.092  1.1442 -0.3529 -1.6363
11312TIP3   OH255350   4.240   5.440  14.182  0.0999 -0.6385  0.0803
11312TIP3    H155351   4.261   5.434  14.275 -0.1563  0.3035  0.1956
11312TIP3    H255352   4.213   5.351  14.158 -1.1638 -0.5770  1.2266
11313TIP3   OH255353   3.003   1.560   6.327  0.0513 -0.5403  0.4092
11313TIP3    H155354   2.984   1.632   6.267  1.2753 -0.6900 -0.1643
11313TIP3    H255355   3.045   1.602   6.402 -0.7929 -0.4481  0.8343
11314TIP3   OH255356   5.478   3.799  14.700  0.2498 -0.5918  0.3408
11314TIP3    H155357   5.541   3.853  14.748 -0.7354  0.3057  0.6413
11314TIP3    H255358   5.396   3.808  14.748  0.1837 -2.7834  0.6803
11315TIP3   OH255359   2.130   4.919   2.505  0.0746 -0.4403 -0.2371
11315TIP3    H155360   2.123   4.907   2.599  0.1854  0.1415 -0.1546
11315TIP3    H255361   2.060   4.865   2.468  0.9676 -1.8367  0.0979
11316TIP3   OH255362   0.224   2.371  11.380 -0.6673  0.0582 -0.3904
11316TIP3    H155363   0.235   2.371  11.284 -1.3661 -0.1805 -0.4698
11316TIP3    H255364   0.251   2.283  11.407 -0.3508  0.1653 -0.3472
11317TIP3   OH255365   4.584   3.519   2.662 -0.0789 -0.6385  0.9707
11317TIP3    H155366   4.667   3.505   2.617  0.1476  2.3622  0.3070
11317TIP3    H255367   4.607   3.526   2.754  0.1234 -1.7890  1.0146
11318TIP3   OH255368   5.499   6.130  12.056  0.2126  0.3485 -0.5248
11318TIP3    H155369   5.520   6.223  12.043 -2.7293  1.3269  1.2385
11318TIP3    H255370   5.447   6.106  11.979 -0.6436  0.7319 -0.0803
11319TIP3   OH255371   1.670   1.771  12.335 -0.0777  0.1286 -0.4453
11319TIP3    H155372   1.724   1.698  12.303 -0.5955 -0.6941  0.5419
11319TIP3    H255373   1.688   1.774  12.429 -0.2402  1.1336 -0.4429
11320TIP3   OH255374   1.201   2.852   4.043 -0.3200 -0.1646  0.0415
11320TIP3    H155375   1.129   2.896   4.089  0.7580  1.5898  0.0862
11320TIP3    H255376   1.275   2.858   4.104 -0.0321 -1.6159 -0.1678
11321TIP3   OH255377   1.921   3.231   3.895  0.2852  0.5507  0.3573
11321TIP3    H155378   2.007   3.268   3.915 -0.0108  0.3382  2.0496
11321TIP3    H255379   1.891   3.282   3.820  0.4960  2.8362  1.7771
11322TIP3   OH255380   3.802   6.303   3.726  0.6669  0.4570  0.0478
11322TIP3    H155381   3.794   6.293   3.631 -1.8213  1.3229  0.1463
11322TIP3    H255382   3.777   6.394   3.743  1.4890  0.4277  1.5115
11323TIP3   OH255383   2.433   5.609  14.448  0.3594  0.7383 -0.4234
11323TIP3    H155384   2.474   5.523  14.447  1.5985  1.2279  3.3368
11323TIP3    H255385   2.489   5.662  14.392  1.7088  0.0083  0.2156
11324TIP3   OH255386   4.215   5.153  12.294 -0.5499 -0.3417  0.1352
11324TIP3    H155387   4.254   5.215  12.356 -0.5208 -1.2173  1.0114
11324TIP3    H255388   4.184   5.207  12.221  0.4820  0.5789  0.3700
11325TIP3   OH255389   6.147   3.391  13.771  0.2481  0.1560 -0.1470
11325TIP3    H155390   6.141   3.411  13.864  1.4674  1.8281 -0.4172
11325TIP3    H255391   6.241   3.381  13.754  0.0101 -0.4941 -1.1275
11326TIP3   OH255392   5.406   1.210   4.673 -0.2202  0.6064 -0.1046
11326TIP3    H155393   5.500   1.211   4.657 -0.1819  1.1205  0.1227
11326TIP3    H255394   5.397   1.230   4.766 -0.5145 -0.5312  0.1208
11327TIP3   OH255395   4.148   6.234   0.980 -0.8423 -0.0416  0.1826
11327TIP3    H155396   4.143   6.273   0.892  3.5078  0.7018  0.1568
11327TIP3    H255397   4.139   6.309   1.039  1.0012  0.1776  0.2294
11328TIP3   OH255398   1.577   3.571   1.331  0.4250  0.2443 -0.0526
11328TIP3    H155399   1.617   3.487   1.351  0.0308  0.5803  2.2281
11328TIP3    H255400   1.485   3.560   1.353  0.2530  1.0811 -0.3351
11329TIP3   OH255401   6.453   6.072  15.875  0.3052  0.1947 -0.4661
11329TIP3    H155402   6.486   6.055  15.963 -0.6731 -0.7741 -0.2757
11329TIP3    H255403   6.360   6.091  15.888  0.8022  3.3333 -0.9377
11330TIP3   OH255404   0.691   0.701   4.665  0.0399  0.6586 -0.0813
11330TIP3    H155405   0.700   0.608   4.641 -1.2381  0.6393 -0.5102
11330TIP3    H255406   0.696   0.702   4.761  0.7563  0.2371 -0.1067
11331TIP3   OH255407   1.692   6.131  11.884 -0.4624  0.0750 -0.6829
11331TIP3    H155408   1.722   6.160  11.971 -0.9920 -0.0693 -0.4534
11331TIP3    H255409   1.734   6.046  11.872  1.0017  0.8663 -1.3111
11332TIP3   OH255410   4.258   2.974   5.704 -0.3608  0.4210  0.3012
11332TIP3    H155411   4.294   3.055   5.739 -0.5812  0.8208 -0.3750
11332TIP3    H255412   4.163   2.985   5.712 -0.4791  1.0831 -1.5844
11333TIP3   OH255413   2.104   6.413   3.438  0.3046 -0.1209 -0.1049
11333TIP3    H155414   2.056   6.493   3.420 -0.8240 -1.2521 -2.4859
11333TIP3    H255415   2.043   6.359   3.488  0.8640  0.2946  1.0272
11334TIP3   OH255416   1.586   4.055   6.312  0.6009 -0.2453  1.0420
11334TIP3    H155417   1.614   3.964   6.325 -2.0416 -1.6763 -2.4547
11334TIP3    H255418   1.499   4.058   6.351 -0.4640 -0.0488 -1.2586
11335TIP3   OH255419   0.519   6.678   4.671  0.5685 -0.2308  0.4336
11335TIP3    H155420   0.543   6.636   4.588  0.4697 -0.1444  0.3619
11335TIP3    H255421   0.578   6.753   4.677  0.7450 -0.3801  0.5620
11336TIP3   OH255422   2.466   3.257   5.322 -0.1362 -0.4436  0.2554
11336TIP3    H155423   2.458   3.242   5.228 -0.0935 -0.6511  0.2838
11336TIP3    H255424   2.448   3.171   5.361 -2.5246  0.1483  0.5521
11337TIP3   OH255425   4.875   3.459   3.246  0.3064  0.4949  0.9208
11337TIP3    H155426   4.898   3.505   3.164 -1.2963 -0.0529  0.1517
11337TIP3    H255427   4.811   3.516   3.288 -0.0705 -0.0029  1.0217
11338TIP3   OH255428   3.629   5.737   5.297 -0.2077  0.4017  0.2103
11338TIP3    H155429   3.557   5.789   5.333  0.1070  0.7268  0.3703
11338TIP3    H255430   3.619   5.651   5.337 -1.8992 -0.2467 -1.5556
11339TIP3   OH255431   0.930   4.340   1.662  0.4923  0.1389  0.6017
11339TIP3    H155432   0.982   4.372   1.589  0.6109 -1.2758  0.0435
11339TIP3    H255433   0.975   4.372   1.740  1.3875  0.1278  0.0970
11340TIP3   OH255434   1.886   6.462   2.279 -0.5361  0.2900 -0.3326
11340TIP3    H155435   1.934   6.434   2.201 -0.6296  2.5441 -1.2256
11340TIP3    H255436   1.915   6.402   2.347  0.0269 -1.3298 -1.9392
11341TIP3   OH255437   1.881   3.936   0.300 -0.6361  0.1157  0.1066
11341TIP3    H155438   1.837   3.955   0.217  0.4882  1.1719 -0.2652
11341TIP3    H255439   1.925   3.852   0.285  1.5212  1.4129 -1.2092
11342TIP3   OH255440   0.375   0.959   3.037 -0.0242 -0.4585  0.5343
11342TIP3    H155441   0.302   0.962   2.976 -1.5709  1.1940  2.3911
11342TIP3    H255442   0.371   0.870   3.074 -0.8476 -0.4985  0.3592
11343TIP3   OH255443   5.013   5.661  16.887 -0.3942  0.1628  0.5227
11343TIP3    H155444   4.953   5.617  16.826  0.5092  2.5301 -2.1623
11343TIP3    H255445   5.096   5.666  16.840 -0.1120  3.4854  1.2611
11344TIP3   OH255446   6.470   1.072   5.524  0.1399  0.1223 -0.3204
11344TIP3    H155447   6.525   1.001   5.559  0.3560  0.3469 -0.2008
11344TIP3    H255448   6.392   1.028   5.492  0.1352 -0.1409  0.0413
11345TIP3   OH255449   1.840   3.073   0.536 -0.3058  0.3558  0.5243
11345TIP3    H155450   1.906   3.140   0.516  0.2518 -0.3232  0.0903
11345TIP3    H255451   1.834   3.075   0.632 -0.3293  1.0602  0.5151
11346TIP3   OH255452   4.989   3.341   5.958 -0.3007  0.3279  0.5211
11346TIP3    H155453   4.932   3.323   5.884  2.2127 -0.8481 -1.1820
11346TIP3    H255454   4.980   3.435   5.973 -1.6271  0.3918 -0.5664
11347TIP3   OH255455   1.550   2.921   0.558  0.2965 -0.1871 -0.2983
11347TIP3    H155456   1.475   2.979   0.565  0.8928  0.4085  1.7378
11347TIP3    H255457   1.617   2.962   0.613  1.5099 -1.6031 -0.6741
11348TIP3   OH255458   0.755   3.197  11.712  0.5354  0.0831 -0.7853
11348TIP3    H155459   0.796   3.203  11.798 -1.9259  0.5658  0.3625
11348TIP3    H255460   0.737   3.104  11.701 -2.0201  0.3889  0.6000
11349TIP3   OH255461   5.175   0.459   1.082 -0.1875  0.6047 -0.2430
11349TIP3    H155462   5.238   0.493   1.018  1.9366 -1.7518  0.5073
11349TIP3    H255463   5.179   0.520   1.155  0.2539  1.1783 -0.7365
11350TIP3   OH255464   4.105   3.220  16.079 -0.8678 -0.6793  0.0142
11350TIP3    H155465   4.160   3.239  16.154 -0.2735  0.3751 -0.6747
11350TIP3    H255466   4.086   3.126  16.086 -1.2842 -0.4818  1.7669
11351TIP3   OH255467   2.810   0.840  11.968 -0.2305 -0.5293  0.4085
11351TIP3    H155468   2.829   0.906  12.035 -0.4793 -1.4282  1.3806
11351TIP3    H255469   2.834   0.757  12.009 -0.0581 -1.0542 -0.7505
11352TIP3   OH255470   3.046   5.673  12.867 -0.1643  0.5798  0.5925
11352TIP3    H155471   2.983   5.687  12.938  0.5234 -3.0688  2.0064
11352TIP3    H255472   2.992   5.640  12.795 -0.4881  1.7844  0.2714
11353TIP3   OH255473   3.551   6.061  11.195  0.4290  0.0560  0.1396
11353TIP3    H155474   3.645   6.051  11.213  0.3983  0.1270  0.3498
11353TIP3    H255475   3.539   6.156  11.188  0.5604 -0.0069 -0.9265
11354TIP3   OH255476   5.997   2.657  13.443  0.1369 -0.4232 -0.0882
11354TIP3    H155477   5.909   2.654  13.406  0.5184 -0.7016 -0.9865
11354TIP3    H255478   6.007   2.572  13.486 -0.8308  0.4396  1.9065
11355TIP3   OH255479   5.158   6.286   1.186  0.1779  0.2238  0.0325
11355TIP3    H155480   5.081   6.344   1.189 -1.0140 -1.3554  0.8400
11355TIP3    H255481   5.187   6.281   1.277  1.8016  1.4993 -0.3861
11356TIP3   OH255482   4.164   1.122   4.964  0.0381  0.3277 -0.2348
11356TIP3    H155483   4.109   1.201   4.958  0.0028  0.1887 -1.9005
11356TIP3    H255484   4.103   1.049   4.953  0.2515  0.0992  0.0884
11357TIP3   OH255485   1.993   5.355  12.121 -0.9382 -0.3496 -0.3339
11357TIP3    H155486   2.067   5.297  12.101 -1.4101 -1.1769  0.2771
11357TIP3    H255487   1.960   5.383  12.036  0.4285  0.4758 -0.6051
11358TIP3   OH255488   4.399   3.918  13.605 -0.2915 -0.3414  0.2818
11358TIP3    H155489   4.480   3.872  13.627 -0.8569 -1.9550 -0.8669
11358TIP3    H255490   4.414   4.008  13.632  1.7161 -0.7244  0.5145
11359TIP3   OH255491   4.618   3.517  16.498 -0.3283  0.3188  0.3921
11359TIP3    H155492   4.557   3.580  16.536  0.1820  0.6644  0.6469
11359TIP3    H255493   4.689   3.570  16.463  0.7445 -0.1705  1.7438
11360TIP3   OH255494   1.487   0.453  12.970  0.3544 -0.2189  0.3399
11360TIP3    H155495   1.464   0.450  12.877  0.7165 -1.1743  0.2786
11360TIP3    H255496   1.465   0.542  12.997  0.4994  0.1440 -0.7263
11361TIP3   OH255497   5.681   4.932  13.862  0.1278  0.2298  0.3864
11361TIP3    H155498   5.705   4.881  13.785  0.7878  2.3689 -0.8651
11361TIP3    H255499   5.624   5.002  13.829 -0.9386  0.2103  2.0914
11362TIP3   OH255500   6.707   1.861  12.810  0.2537  0.0511  0.4352
11362TIP3    H155501   6.665   1.802  12.872  1.1093  0.5574  1.5007
11362TIP3    H255502   6.797   1.828  12.802  0.3871  0.4827  0.0980
11363TIP3   OH255503   6.766   3.719  14.380 -0.8336  0.5935  0.5381
11363TIP3    H155504   6.800   3.770  14.306  1.1998 -1.3246  0.1027
11363TIP3    H255505   6.841   3.709  14.438 -1.1847 -1.9334  0.5986
11364TIP3   OH255506   3.647   5.094   5.262  0.3871 -0.5406 -0.1426
11364TIP3    H155507   3.562   5.116   5.226  1.3331  0.2475 -1.9519
11364TIP3    H255508   3.706   5.163   5.230  1.4480 -0.3099  2.1845
11365TIP3   OH255509   6.020   5.524   0.789  0.2462 -0.1022  0.1704
11365TIP3    H155510   6.062   5.530   0.703  1.7697 -0.1819  0.8987
11365TIP3    H255511   6.009   5.430   0.804 -1.2964 -0.0391 -0.5457
11366TIP3   OH255512   5.671   3.873  15.856 -0.3603 -0.3412  0.2180
11366TIP3    H155513   5.642   3.791  15.816 -1.7460 -0.3238  1.1891
11366TIP3    H255514   5.641   3.868  15.947 -2.1803  2.0763 -0.2002
11367TIP3   OH255515   5.466   3.245  14.987  0.1314 -0.2097  0.1758
11367TIP3    H155516   5.506   3.325  15.022 -1.9950  0.6367  0.7059
11367TIP3    H255517   5.455   3.263  14.894 -0.5825  0.2026  0.3438
11368TIP3   OH255518   2.446   2.696   2.689 -0.5627 -0.3957  0.2067
11368TIP3    H155519   2.364   2.740   2.668  0.3223  1.9775  1.4388
11368TIP3    H255520   2.432   2.657   2.775 -0.7668 -0.9177 -0.0681
11369TIP3   OH255521   4.771   3.814  12.437  0.2784  0.2397 -0.1060
11369TIP3    H155522   4.779   3.874  12.511 -0.5890 -0.8123  0.8522
11369TIP3    H255523   4.798   3.866  12.361  0.8359  1.4304  0.8890
11370TIP3   OH255524   5.013   1.622  11.973 -0.2213 -0.3630  0.1970
11370TIP3    H155525   5.093   1.650  11.928  0.7057 -1.8272  0.8811
11370TIP3    H255526   5.010   1.527  11.959 -2.5544 -0.1443 -0.9484
11371TIP3   OH255527   5.651   5.260   5.901  0.3473  0.6497 -0.2045
11371TIP3    H155528   5.565   5.302   5.895 -0.1805 -0.5518 -1.2945
11371TIP3    H255529   5.666   5.249   5.994 -0.9601  0.3012 -0.0326
11372TIP3   OH255530   2.126   6.006  16.608  0.9353  0.1782  0.7253
11372TIP3    H155531   2.032   5.992  16.596  1.1053  0.5894 -1.2812
11372TIP3    H255532   2.167   5.949  16.543  2.1912 -1.8531  3.2022
11373TIP3   OH255533   1.777   0.915  16.626  0.2434  0.0080  0.3293
11373TIP3    H155534   1.690   0.918  16.666 -0.3045  0.8696 -0.8777
11373TIP3    H255535   1.802   0.823  16.631 -1.4665 -0.5467 -0.8146
11374TIP3   OH255536   3.614   1.229  12.465  0.3752 -0.3345 -0.4317
11374TIP3    H155537   3.537   1.273  12.502  0.5705 -2.1164  2.2109
11374TIP3    H255538   3.685   1.293  12.475  0.0438 -0.1370  0.7140
11375TIP3   OH255539   2.502   0.983   5.698  0.3235  0.1618  0.0249
11375TIP3    H155540   2.521   0.906   5.752 -0.3803  0.9850  1.4562
11375TIP3    H255541   2.408   0.978   5.682  0.1934  0.9709  0.5159
11376TIP3   OH255542   0.709   3.581  13.071  0.0433 -0.1426  0.3386
11376TIP3    H155543   0.679   3.543  12.989 -1.1107 -0.1322  0.7544
11376TIP3    H255544   0.726   3.506  13.127  0.8661 -0.1514  0.0888
11377TIP3   OH255545   3.244   1.926   2.434 -0.0158  0.1657 -0.2091
11377TIP3    H155546   3.218   1.870   2.507  1.4515 -0.8411 -0.4346
11377TIP3    H255547   3.308   1.986   2.471 -1.8901  2.0306  0.1331
11378TIP3   OH255548   3.582   5.425  16.609 -0.2532  0.3613  0.2164
11378TIP3    H155549   3.489   5.444  16.603 -0.4648 -0.7215 -0.0100
11378TIP3    H255550   3.614   5.483  16.678 -0.7919  1.8234 -0.7385
11379TIP3   OH255551   1.670   2.178   4.426 -0.3271  0.1250  0.0703
11379TIP3    H155552   1.762   2.204   4.433 -0.2205 -0.2927  0.2505
11379TIP3    H255553   1.625   2.235   4.488 -0.0969 -0.0989  0.4464
11380TIP3   OH255554   0.753   0.882   2.076 -0.4975  0.0119 -0.5614
11380TIP3    H155555   0.835   0.842   2.106 -1.1341 -0.3314  0.8028
11380TIP3    H255556   0.720   0.823   2.008 -0.3742 -0.6802 -0.0292
11381TIP3   OH255557   1.797   1.457   4.885  0.5856  1.0065 -0.5368
11381TIP3    H155558   1.770   1.544   4.913  0.9226  0.8300  0.3899
11381TIP3    H255559   1.802   1.407   4.967 -0.0372  0.0040 -1.1038
11382TIP3   OH255560   1.078   4.203  12.607  0.0189 -0.3687 -0.3414
11382TIP3    H155561   1.167   4.186  12.639 -0.0689  2.5563  1.7175
11382TIP3    H255562   1.091   4.237  12.518  1.0193  0.2993  0.0430
11383TIP3   OH255563   0.934   1.434   3.857  0.8504 -0.5250  0.0267
11383TIP3    H155564   0.951   1.355   3.908 -0.2366  0.0194  1.2718
11383TIP3    H255565   0.840   1.432   3.840  0.1225  2.2062  3.0860
11384TIP3   OH255566   0.398   3.379  13.998 -0.0758  0.3612 -0.3327
11384TIP3    H155567   0.423   3.296  13.958  0.2928  0.3085  0.0039
11384TIP3    H255568   0.441   3.378  14.084 -0.9632  0.4215  0.1143
11385TIP3   OH255569   4.654   6.111   4.782 -0.0648  0.1347  0.0930
11385TIP3    H155570   4.731   6.055   4.792 -2.0438 -2.7463 -0.1772
11385TIP3    H255571   4.628   6.132   4.871  1.1256  1.2925  0.1812
11386TIP3   OH255572   4.811   1.931   2.693 -0.2145 -0.4802  0.5624
11386TIP3    H155573   4.788   2.022   2.712  1.6256  0.1341 -0.0458
11386TIP3    H255574   4.815   1.889   2.778 -1.0634  0.0118  0.8519
11387TIP3   OH255575   5.520   3.802  11.074  0.7143 -0.3265 -0.5951
11387TIP3    H155576   5.572   3.834  11.148  1.5257 -1.1041 -0.8140
11387TIP3    H255577   5.484   3.719  11.104 -2.5531  1.4180  0.4857
11388TIP3   OH255578   5.814   0.374  15.345  0.4028 -0.4153 -0.0817
11388TIP3    H155579   5.718   0.369  15.343  0.5257 -3.4549 -0.6042
11388TIP3    H255580   5.834   0.416  15.428 -1.3815  0.8882 -0.2661
11389TIP3   OH255581   2.512   3.846   1.948 -0.4358  0.1340  0.7457
11389TIP3    H155582   2.589   3.875   1.997 -0.4217  0.0759  0.7572
11389TIP3    H255583   2.438   3.890   1.991 -0.2931  1.1003  0.0186
11390TIP3   OH255584   1.890   2.070  14.263 -0.0433  0.4137  0.2507
11390TIP3    H155585   1.850   2.016  14.194 -0.7861  1.2909 -0.0075
11390TIP3    H255586   1.939   2.007  14.316 -0.1617 -0.3974 -0.5740
11391TIP3   OH255587   3.270   4.369   3.794 -0.5985  0.3911 -0.2966
11391TIP3    H155588   3.353   4.400   3.756 -0.7057  1.6364  0.4474
11391TIP3    H255589   3.296   4.298   3.853 -0.0421  0.7917 -0.0471
11392TIP3   OH255590   6.124   2.205   5.783  0.3822 -0.3557  0.1617
11392TIP3    H155591   6.063   2.256   5.730  0.8084 -0.5100 -0.4816
11392TIP3    H255592   6.080   2.195   5.867 -0.2980 -0.1069 -0.1619
11393TIP3   OH255593   5.800   0.966  12.617  0.3208 -0.5712 -0.0465
11393TIP3    H155594   5.776   1.050  12.580 -1.8386 -1.7210 -1.3616
11393TIP3    H255595   5.817   0.910  12.541  1.7952 -1.3174  0.8068
11394TIP3   OH255596   3.177   3.104   6.048 -0.2131 -0.1982  0.6729
11394TIP3    H155597   3.119   3.050   5.994  0.2823  0.4433 -0.5421
11394TIP3    H255598   3.254   3.050   6.063 -0.9959 -0.9527  2.0593
11395TIP3   OH255599   4.072   4.828  17.177 -0.3811 -0.0096  0.1613
11395TIP3    H155600   4.065   4.791  17.089  0.5722  1.4544 -0.5648
11395TIP3    H255601   4.013   4.903  17.176  0.5089  0.7025  0.3755
11396TIP3   OH255602   5.878   3.239  10.780  0.1912 -0.5600  0.0300
11396TIP3    H155603   5.826   3.312  10.814 -0.9630 -1.7895  0.9516
11396TIP3    H255604   5.906   3.268  10.694  1.3257  1.7340  1.1268
11397TIP3   OH255605   0.031   2.424   3.622  0.0651  0.2966  0.0152
11397TIP3    H155606  -0.002   2.444   3.535 -1.6465 -0.2177  0.5401
11397TIP3    H255607   0.078   2.504   3.649  0.3772  0.5423 -1.2580
11398TIP3   OH255608   4.599   1.975   0.417 -0.9324  0.2591  0.8081
11398TIP3    H155609   4.632   1.939   0.334  1.0951  3.3256  0.2013
11398TIP3    H255610   4.597   1.900   0.476  1.3088 -1.2466 -0.9241
11399TIP3   OH255611   6.171   5.476   0.211  0.5596 -0.4054  0.6611
11399TIP3    H155612   6.145   5.384   0.221  0.1878 -0.4587 -0.6629
11399TIP3    H255613   6.088   5.523   0.203  0.7880 -0.2421 -0.9104
11400TIP3   OH255614   4.692   5.475   0.620 -0.2828  0.2438 -0.1838
11400TIP3    H155615   4.740   5.393   0.619 -0.4827  0.1171  0.6672
11400TIP3    H255616   4.755   5.541   0.590  1.1884  0.4986  3.2253
11401TIP3   OH255617   3.112   4.838  13.477 -0.4908  0.3441 -0.2078
11401TIP3    H155618   3.183   4.777  13.494 -0.1046  0.2809 -1.9869
11401TIP3    H255619   3.033   4.791  13.507  0.0042 -0.3164  0.0768
11402TIP3   OH255620   5.860   0.437  11.245 -0.0576  0.4307 -0.3425
11402TIP3    H155621   5.791   0.434  11.179 -0.3343 -2.1858  0.0065
11402TIP3    H255622   5.870   0.346  11.273  2.2458  1.0464  0.9542
11403TIP3   OH255623   4.403   3.642  14.626  0.4906 -0.2907 -0.6436
11403TIP3    H155624   4.420   3.690  14.545  0.5444 -0.1421 -0.5418
11403TIP3    H255625   4.452   3.689  14.693  0.2486 -0.2710 -0.4799
11404TIP3   OH255626   4.740   1.732  17.097  0.0423  0.0041 -0.1445
11404TIP3    H155627   4.668   1.746  17.159 -1.5615 -0.2726 -1.8963
11404TIP3    H255628   4.738   1.808  17.039  1.0401 -0.1141 -0.3523
11405TIP3   OH255629   3.342   6.704   4.113 -0.2868  0.6656 -0.0865
11405TIP3    H155630   3.373   6.768   4.177  1.5616 -0.3797  0.0811
11405TIP3    H255631   3.283   6.754   4.057  1.3889  2.6135 -0.1660
11406TIP3   OH255632   4.680   6.068  12.990 -0.2180 -0.1334 -0.2362
11406TIP3    H155633   4.670   5.973  12.994 -0.9589 -0.0488 -0.0500
11406TIP3    H255634   4.697   6.087  12.897  1.0408 -0.5462 -0.1093
11407TIP3   OH255635   0.459   0.480   2.672  0.2616  0.3210 -0.6185
11407TIP3    H155636   0.508   0.448   2.748  0.4588  1.6672 -0.1783
11407TIP3    H255637   0.378   0.428   2.672  1.1227 -1.0284 -0.6201
11408TIP3   OH255638   3.699   4.312  13.439 -0.3311  0.6628  0.2506
11408TIP3    H155639   3.654   4.270  13.512 -1.2058  0.2771 -0.5151
11408TIP3    H255640   3.742   4.240  13.393 -1.2498  0.6859 -0.6488
11409TIP3   OH255641   3.025   2.880  15.886  0.6707 -0.2372  0.2817
11409TIP3    H155642   3.055   2.970  15.876  2.2654 -0.8586 -0.8936
11409TIP3    H255643   3.072   2.847  15.963  2.6685 -1.0327 -1.2173
11410TIP3   OH255644   4.780   6.775  11.630  0.2477 -0.2997 -0.2079
11410TIP3    H155645   4.800   6.790  11.538  1.1928  1.0240  0.2002
11410TIP3    H255646   4.791   6.680  11.642 -1.0147 -0.6511 -1.7079
11411TIP3   OH255647   5.580   2.097  12.847  0.2014  0.1049 -0.1755
11411TIP3    H155648   5.660   2.044  12.850  0.3086  0.1546 -1.7265
11411TIP3    H255649   5.509   2.034  12.862  0.5040  0.0150  0.9254
11412TIP3   OH255650   4.471   3.295  14.475 -0.1411  0.5677  0.3594
11412TIP3    H155651   4.462   3.226  14.541 -0.8746  0.6044  0.3009
11412TIP3    H255652   4.470   3.249  14.391 -1.7256  0.7329  0.2729
11413TIP3   OH255653   6.315   0.624  11.621  0.0651 -0.2029  0.0956
11413TIP3    H155654   6.369   0.690  11.666  0.1875 -0.3439  0.1543
11413TIP3    H255655   6.301   0.662  11.534 -0.1873  0.0779  0.2562
11414TIP3   OH255656   3.669   2.890  13.241 -0.2359 -0.3129  0.0920
11414TIP3    H155657   3.674   2.874  13.335 -1.3929  1.8451  0.5532
11414TIP3    H255658   3.699   2.808  13.201  1.9749 -0.6607  2.3260
11415TIP3   OH255659   3.234   4.891  17.178  0.5550  0.0450 -0.1111
11415TIP3    H155660   3.154   4.861  17.221  0.4065 -0.0889 -0.4736
11415TIP3    H255661   3.240   4.984  17.201 -0.5511  0.4480 -1.3449
11416TIP3   OH255662   5.706   3.026   3.789 -0.0753 -0.2933  0.5418
11416TIP3    H155663   5.635   3.080   3.756 -1.6165 -1.7672  1.3652
11416TIP3    H255664   5.684   3.010   3.881  0.0266 -2.7249  0.1993
11417TIP3   OH255665   1.300   4.754   1.045 -0.5408  0.0298 -0.2679
11417TIP3    H155666   1.344   4.684   1.093 -1.3216 -0.6336 -0.4998
11417TIP3    H255667   1.290   4.825   1.108  0.7736  0.1463 -0.1952
11418TIP3   OH255668   3.023   4.428  14.934  0.5539 -0.2548 -0.0777
11418TIP3    H155669   3.036   4.384  14.849 -0.6922 -0.0942 -0.3615
11418TIP3    H255670   3.007   4.519  14.911 -0.2825 -0.3052  0.2941
11419TIP3   OH255671   4.158   3.285   3.744 -0.0602  0.2520  0.3261
11419TIP3    H155672   4.204   3.362   3.778 -1.7138  1.0068  0.9155
11419TIP3    H255673   4.183   3.281   3.651  3.0960 -0.7989  1.1508
11420TIP3   OH255674   1.223   6.006  15.952 -0.1453 -0.1474  0.2801
11420TIP3    H155675   1.188   5.917  15.942 -0.9345  0.1238  0.5650
11420TIP3    H255676   1.183   6.038  16.033  1.6544 -0.2320  1.2161
11421TIP3   OH255677   5.160   4.939  12.282 -1.0033  0.0623 -0.3847
11421TIP3    H155678   5.133   4.851  12.255 -0.8689  0.3294 -1.4275
11421TIP3    H255679   5.225   4.924  12.351 -1.1372 -0.6548 -0.4098
11422TIP3   OH255680   1.570   3.512  12.112 -0.1556  0.0195 -0.4186
11422TIP3    H155681   1.545   3.439  12.055  0.1606 -0.0408 -0.4825
11422TIP3    H255682   1.541   3.485  12.200 -2.1800  0.8560 -0.8052
11423TIP3   OH255683   0.624   2.575  15.301 -0.2551 -0.4415  0.3331
11423TIP3    H155684   0.679   2.574  15.379  0.5561 -0.1834 -0.2274
11423TIP3    H255685   0.620   2.484  15.272  0.6184 -0.3289 -0.1387
11424TIP3   OH255686   1.798   0.281   1.708  0.1010 -0.5402  0.0409
11424TIP3    H155687   1.741   0.261   1.782 -0.2597 -0.5936 -0.2543
11424TIP3    H255688   1.859   0.347   1.742 -0.4569 -0.1119  0.2023
11425TIP3   OH255689   6.184   0.378   5.391  0.4033  0.4164 -0.1393
11425TIP3    H155690   6.172   0.451   5.330  2.3827  1.0356  0.2021
11425TIP3    H255691   6.218   0.418   5.471 -2.6412 -0.3196  1.6141
11426TIP3   OH255692   6.404   5.015   4.057 -0.1321 -0.2949  0.5514
11426TIP3    H155693   6.322   4.983   4.020 -0.2918 -0.0595  0.7015
11426TIP3    H255694   6.396   4.996   4.151  0.3858 -1.1414  0.4277
11427TIP3   OH255695   2.937   1.524   1.290 -0.2336 -0.2136  0.1547
11427TIP3    H155696   2.918   1.532   1.197 -1.4571 -2.7433  0.1505
11427TIP3    H255697   2.977   1.608   1.314  1.8412 -0.2268 -3.0435
11428TIP3   OH255698   2.029   4.369  16.600  0.2542  0.1546  0.1135
11428TIP3    H155699   2.015   4.290  16.547  1.2514  0.4696 -0.6514
11428TIP3    H255700   1.984   4.352  16.682  0.2050 -1.0950 -0.1605
11429TIP3   OH255701   0.313   6.482  12.713 -0.0769 -0.8380  0.0541
11429TIP3    H155702   0.324   6.542  12.639 -1.8742 -0.7734 -0.2023
11429TIP3    H255703   0.221   6.493  12.739  0.0248 -2.2317  1.0862
11430TIP3   OH255704   4.940   0.211   0.256 -0.4799  0.2247  0.2807
11430TIP3    H155705   4.845   0.204   0.251 -0.4366 -0.9361  1.0669
11430TIP3    H255706   4.968   0.131   0.300  0.7885  1.0100  0.9227
11431TIP3   OH255707   6.242   1.375  14.865 -0.1040 -0.1902 -0.4241
11431TIP3    H155708   6.165   1.320  14.883  0.0999 -0.7795 -1.3129
11431TIP3    H255709   6.259   1.421  14.947 -0.9519 -0.6260 -0.0010
11432TIP3   OH255710   4.590   3.090  16.357  0.3934  0.2196 -0.5247
11432TIP3    H155711   4.529   3.086  16.284 -0.3549  0.3883  0.0826
11432TIP3    H255712   4.534   3.086  16.435  1.1295  0.8018  0.0406
11433TIP3   OH255713   3.426   4.355   4.915 -0.3738 -0.3261 -0.2212
11433TIP3    H155714   3.460   4.357   5.004 -0.6900  0.9220 -0.1185
11433TIP3    H255715   3.334   4.378   4.924 -0.6514 -1.1791 -0.7714
11434TIP3   OH255716   2.627   1.539   0.205  0.4366 -0.0962 -0.2657
11434TIP3    H155717   2.569   1.540   0.282  2.9066 -0.0467  1.6666
11434TIP3    H255718   2.619   1.627   0.168 -0.5467 -0.0249  0.1027
11435TIP3   OH255719   0.903   5.770   2.253  0.3634 -0.0130 -0.5714
11435TIP3    H155720   0.871   5.709   2.319 -1.5613  2.8442  1.2413
11435TIP3    H255721   0.874   5.731   2.170 -0.8310 -1.5528  0.5283
11436TIP3   OH255722   2.834   4.959   4.101  0.3182 -0.5652  0.0524
11436TIP3    H155723   2.843   4.993   4.011 -0.3515 -0.6827 -0.0623
11436TIP3    H255724   2.893   4.883   4.104  0.8272 -0.1803 -0.0908
11437TIP3   OH255725   5.978   3.828   5.206  0.3187  0.1367 -0.3350
11437TIP3    H155726   5.928   3.883   5.147  0.3980  0.4590 -0.1052
11437TIP3    H255727   5.945   3.739   5.191 -1.2165  0.5051  0.7028
11438TIP3   OH255728   2.756   4.604  13.206  0.0637 -0.5601  0.3115
11438TIP3    H155729   2.736   4.689  13.247 -0.1147  1.0093 -2.8792
11438TIP3    H255730   2.672   4.575  13.169  0.6066 -1.0382 -0.5553
11439TIP3   OH255731   2.749   6.637   2.521  0.0155  0.1125 -0.4703
11439TIP3    H155732   2.772   6.692   2.446 -0.8774  1.3174  0.1280
11439TIP3    H255733   2.762   6.694   2.597 -0.4027 -0.6745  0.1953
11440TIP3   OH255734   1.272   0.647  13.697 -0.2060  0.2161 -0.3033
11440TIP3    H155735   1.316   0.585  13.756  0.7040 -0.4036 -1.6099
11440TIP3    H255736   1.226   0.707  13.756  0.6875 -0.3794  1.0357
11441TIP3   OH255737   2.710   2.667  13.318  0.0088 -0.3799  0.4595
11441TIP3    H155738   2.621   2.692  13.345 -0.8387 -0.2956 -2.2760
11441TIP3    H255739   2.758   2.750  13.317 -0.2159 -0.2428  0.6964
11442TIP3   OH255740   5.168   2.117   0.261  0.3079  0.1701 -0.1150
11442TIP3    H155741   5.136   2.165   0.185 -1.3234  0.0727  0.4956
11442TIP3    H255742   5.154   2.177   0.335 -1.9242 -1.2847  0.6836
11443TIP3   OH255743   0.703   1.501   0.094 -0.6127  0.6297 -0.0294
11443TIP3    H155744   0.691   1.595   0.077  0.0679  0.4109 -1.7546
11443TIP3    H255745   0.699   1.460   0.008 -1.6553 -1.0279  0.7831
11444TIP3   OH255746   5.651   4.886  15.282  0.3400 -0.0245  0.2923
11444TIP3    H155747   5.585   4.950  15.308  1.6307  1.1714  0.6729
11444TIP3    H255748   5.708   4.878  15.358  0.1217 -1.7642  0.3113
11445TIP3   OH255749   3.733   1.971  15.400 -0.0183  0.6640  0.0509
11445TIP3    H155750   3.644   1.982  15.365  0.5574  1.1003 -1.3124
11445TIP3    H255751   3.737   2.029  15.476 -0.4361  1.7718 -0.7618
11446TIP3   OH255752   5.833   5.566  13.392  0.6337  0.1458 -0.7227
11446TIP3    H155753   5.769   5.524  13.450  1.6781 -0.1941  0.2063
11446TIP3    H255754   5.838   5.656  13.424  0.8105  0.1006 -0.6210
11447TIP3   OH255755   4.947   3.281   4.272 -0.2017  0.0687 -0.6920
11447TIP3    H155756   4.897   3.356   4.241 -0.0904  0.1405 -0.6980
11447TIP3    H255757   5.006   3.317   4.338  1.1854  0.3138 -2.0533
11448TIP3   OH255758   6.063   4.705   4.244 -0.0865 -0.2778 -0.7348
11448TIP3    H155759   6.043   4.683   4.153 -0.9572 -1.9224 -0.1506
11448TIP3    H255760   6.010   4.645   4.296  0.1310  0.8938  0.8712
11449TIP3   OH255761   2.284   3.410  15.035 -0.0164  0.1372  0.1623
11449TIP3    H155762   2.329   3.494  15.018  2.1529 -0.9025  0.5711
11449TIP3    H255763   2.226   3.428  15.108 -0.2172  1.5188 -0.3240
11450TIP3   OH255764   4.934   6.588   5.785 -0.0316 -0.4136  0.3957
11450TIP3    H155765   4.847   6.557   5.758  0.2280 -2.7918  2.0431
11450TIP3    H255766   4.994   6.543   5.726  0.2262 -1.1644  1.2235
11451TIP3   OH255767   4.557   1.636   2.884 -0.9134 -0.1473  0.0760
11451TIP3    H155768   4.564   1.709   2.946 -2.8492  0.7817 -0.7685
11451TIP3    H255769   4.607   1.663   2.808  0.6251 -0.8640  0.8149
11452TIP3   OH255770   3.337   4.154  14.937  0.1144  0.7275 -0.1103
11452TIP3    H155771   3.314   4.210  14.863  1.2092  0.0958 -0.9333
11452TIP3    H255772   3.286   4.189  15.010 -2.7190 -0.0347 -1.6506
11453TIP3   OH255773   0.331   5.331   0.200 -0.5062  0.1445  0.2520
11453TIP3    H155774   0.376   5.248   0.181 -1.5965 -0.4323  0.1710
11453TIP3    H255775   0.390   5.398   0.165  0.0583 -0.6368 -0.3232
11454TIP3   OH255776   5.631   2.140  13.918 -0.0980  0.5488  0.4409
11454TIP3    H155777   5.591   2.208  13.864 -0.8565  0.5717  1.0127
11454TIP3    H255778   5.612   2.167  14.008  0.3189  0.0154  0.6963
11455TIP3   OH255779   2.774   5.602  14.040  0.0958  0.3475  0.2469
11455TIP3    H155780   2.859   5.570  14.009  0.5268  1.6396  0.0932
11455TIP3    H255781   2.790   5.633  14.129 -0.6308 -1.1255  0.9238
11456TIP3   OH255782   5.589   0.076  16.695  0.3612 -0.5448 -0.3821
11456TIP3    H155783   5.578   0.122  16.778  2.0557 -1.1844  0.2109
11456TIP3    H255784   5.504   0.085  16.651  0.0180  1.3306  0.6369
11457TIP3   OH255785   3.170   5.369  17.006  0.3389  0.2468 -0.4830
11457TIP3    H155786   3.167   5.274  16.993  1.9739  0.1152 -0.1285
11457TIP3    H255787   3.190   5.379  17.099 -2.7110  1.0064  0.1313
11458TIP3   OH255788   3.687   2.630   4.972 -0.3964 -0.5204 -0.8830
11458TIP3    H155789   3.712   2.710   5.018  0.8623 -1.6679  0.4665
11458TIP3    H255790   3.599   2.610   5.004 -0.7440  0.3368 -1.2760
11459TIP3   OH255791   3.988   4.485  16.993 -0.3370 -0.4212  0.1340
11459TIP3    H155792   4.040   4.489  17.073  0.5049  0.6678 -0.4548
11459TIP3    H255793   3.995   4.573  16.956  0.5516 -1.3384 -1.9343
11460TIP3   OH255794   3.800   1.366  16.225 -0.1173 -0.0950  0.4218
11460TIP3    H155795   3.712   1.352  16.190 -0.0993 -0.7093  0.6182
11460TIP3    H255796   3.798   1.456  16.258  0.5290  1.2870 -3.0850
11461TIP3   OH255797   3.614   6.210   3.897  0.3052  0.0236  0.4027
11461TIP3    H155798   3.673   6.271   3.853  0.0298 -0.6508 -0.9532
11461TIP3    H255799   3.620   6.130   3.845 -0.9270 -0.4270  0.9247
11462TIP3   OH255800   5.245   4.523   2.038 -0.0640  0.2216  0.4475
11462TIP3    H155801   5.180   4.469   2.083 -0.8877  1.0279  0.2454
11462TIP3    H255802   5.310   4.544   2.105 -1.2547  1.3694  1.2838
11463TIP3   OH255803   3.988   2.999   5.698 -0.7426 -0.1881 -0.1405
11463TIP3    H155804   3.896   3.020   5.680 -1.0490 -1.2678  0.1388
11463TIP3    H255805   3.986   2.954   5.783  0.2212  1.1272  0.5843
11464TIP3   OH255806   6.529   4.732   1.539  0.1494 -0.3421  0.0323
11464TIP3    H155807   6.498   4.655   1.586 -2.2861  1.4960  1.5905
11464TIP3    H255808   6.612   4.755   1.582 -0.7262 -0.2323  1.6831
11465TIP3   OH255809   4.820   4.820  14.520  0.1030  0.0853 -0.7027
11465TIP3    H155810   4.779   4.742  14.484  2.0316 -1.1891 -0.2317
11465TIP3    H255811   4.872   4.855  14.448  0.7106 -0.1245 -0.3672
11466TIP3   OH255812   5.229   5.025   5.981  0.0607  0.5402 -0.4572
11466TIP3    H155813   5.240   4.970   5.903 -0.6455 -1.9433  1.1301
11466TIP3    H255814   5.302   5.001   6.038 -1.2249 -0.0561  0.9788
11467TIP3   OH255815   3.727   2.864  16.992  0.0887 -0.0210  0.2240
11467TIP3    H155816   3.680   2.945  16.973 -0.6761 -0.4837  0.0985
11467TIP3    H255817   3.675   2.796  16.949  0.8724 -0.5442  0.1053
11468TIP3   OH255818   3.008   1.539   5.164  0.3728 -0.6226  0.2017
11468TIP3    H155819   2.961   1.457   5.178  0.2418 -1.0558 -2.4212
11468TIP3    H255820   2.953   1.588   5.103  1.2735  0.6791  0.4025
11469TIP3   OH255821   2.280   3.834   4.774  0.2502  0.5352 -0.0264
11469TIP3    H155822   2.244   3.870   4.693 -0.1935  1.8364  0.7328
11469TIP3    H255823   2.220   3.864   4.842 -0.0137 -1.4853  0.6780
11470TIP3   OH255824   3.781   3.216  11.800 -0.1193  0.1641 -0.2858
11470TIP3    H155825   3.809   3.307  11.796 -1.1140  0.4426 -0.8320
11470TIP3    H255826   3.701   3.217  11.853  0.1990 -0.4699  0.2196
11471TIP3   OH255827   2.297   2.678  13.224 -0.3454  0.4115  0.7171
11471TIP3    H155828   2.334   2.620  13.291  0.6619  3.8953  3.3454
11471TIP3    H255829   2.360   2.750  13.217 -2.7929  2.5448 -0.4201
11472TIP3   OH255830   6.216   3.910  14.713  0.1579 -0.8176 -0.0831
11472TIP3    H155831   6.133   3.953  14.734 -0.7995 -1.8543 -1.6616
11472TIP3    H255832   6.225   3.842  14.780  0.0241 -0.3411  0.4260
11473TIP3   OH255833   1.351   5.097   4.441  0.1735 -0.0838 -0.0766
11473TIP3    H155834   1.301   5.020   4.467 -1.5585  0.9594 -0.1739
11473TIP3    H255835   1.417   5.065   4.381  0.2499 -1.6486  0.8250
11474TIP3   OH255836   0.475   6.109   0.571  0.4116 -0.0842  0.4143
11474TIP3    H155837   0.530   6.187   0.572  0.4200 -0.0973  1.7486
11474TIP3    H255838   0.491   6.067   0.656 -0.1362 -1.1554  0.0011
11475TIP3   OH255839   2.326   4.593   4.627 -0.0114 -0.1833 -0.2050
11475TIP3    H155840   2.265   4.594   4.701  0.4445 -0.8941  0.1891
11475TIP3    H255841   2.323   4.503   4.595 -0.1052  0.0929 -0.9734
11476TIP3   OH255842   6.719   5.431  10.458  0.1258 -0.0590 -0.4745
11476TIP3    H155843   6.812   5.416  10.477  1.0758  2.9130 -2.4938
11476TIP3    H255844   6.694   5.357  10.403  1.6156 -0.2773 -0.8913
11477TIP3   OH255845   1.463   3.973   5.369  0.4825  0.0726  0.7326
11477TIP3    H155846   1.441   4.033   5.298  0.2126 -1.2883 -0.3764
11477TIP3    H255847   1.406   3.998   5.441  0.6873  1.4112  0.4440
11478TIP3   OH255848   1.613   2.499   3.896  0.5403  0.1726  0.3843
11478TIP3    H155849   1.600   2.506   3.991 -2.6871 -0.2619  0.0322
11478TIP3    H255850   1.566   2.574   3.860  1.0760 -0.1051 -0.9076
11479TIP3   OH255851   2.793   5.838   2.900 -0.0841 -0.0324 -0.1685
11479TIP3    H155852   2.775   5.859   2.809  1.3597  0.9451 -0.2371
11479TIP3    H255853   2.874   5.788   2.898 -1.0066 -1.6076  0.4308
11480TIP3   OH255854   6.590   2.477   4.914 -0.0624  0.1320 -0.0251
11480TIP3    H155855   6.619   2.502   5.002 -1.6725  1.0035  0.2785
11480TIP3    H255856   6.512   2.423   4.928 -0.8065  0.9485 -0.9389
11481TIP3   OH255857   5.334   2.487   2.229 -0.0156  0.4334 -0.0560
11481TIP3    H155858   5.311   2.421   2.295 -0.9038  1.3735  0.5798
11481TIP3    H255859   5.339   2.569   2.277  1.3461  0.8072 -0.8111
11482TIP3   OH255860   0.307   0.722  15.486 -0.3097 -0.4503 -0.0115
11482TIP3    H155861   0.300   0.704  15.392  1.4316  0.5049 -0.3424
11482TIP3    H255862   0.230   0.775  15.506 -0.1478  0.2178 -1.1225
11483TIP3   OH255863   0.960   3.556  12.784  0.1227  0.2389  0.3660
11483TIP3    H155864   0.998   3.476  12.820 -1.5427  0.2601  2.2843
11483TIP3    H255865   0.927   3.530  12.698  0.7976 -0.7983  0.4067
11484TIP3   OH255866   5.796   4.267   0.327  0.1952  0.1051 -0.2612
11484TIP3    H155867   5.727   4.316   0.281 -0.5891  0.6780  1.4620
11484TIP3    H255868   5.866   4.331   0.340  0.1637  0.1103 -0.1210
11485TIP3   OH255869   1.638   2.491   5.353  0.9024  0.5055 -0.4537
11485TIP3    H155870   1.639   2.568   5.297  0.8676  0.4896 -0.4758
11485TIP3    H255871   1.709   2.436   5.320  0.9713  0.5581 -0.3963
11486TIP3   OH255872   0.933   2.729  13.173  0.3558  0.0028  0.0518
11486TIP3    H155873   0.931   2.816  13.213  0.1909  0.5415 -1.1102
11486TIP3    H255874   0.958   2.745  13.082 -1.0949 -1.0118 -0.5454
11487TIP3   OH255875   0.203   4.450  17.040  0.0660 -0.3480  0.0094
11487TIP3    H155876   0.274   4.387  17.049  3.2595  2.9868 -0.4412
11487TIP3    H255877   0.197   4.467  16.945 -0.6560  0.1106  0.1314
11488TIP3   OH255878   4.091   2.357  14.844 -0.1744 -0.7869 -0.6578
11488TIP3    H155879   4.183   2.380  14.837 -0.3997  0.2224 -0.3063
11488TIP3    H255880   4.091   2.267  14.877  0.6653 -0.5485 -0.0079
11489TIP3   OH255881   1.094   0.594   2.356  0.1552  0.3606 -0.2075
11489TIP3    H155882   1.035   0.598   2.432 -0.2776  0.0514 -0.5273
11489TIP3    H255883   1.104   0.501   2.339 -0.2786  0.4521 -0.9478
11490TIP3   OH255884   4.764   4.283  12.737  0.1197 -0.1729  0.2067
11490TIP3    H155885   4.732   4.344  12.670  2.5841 -1.0095 -1.8230
11490TIP3    H255886   4.690   4.271  12.796 -1.9943  0.9572 -2.1322
11491TIP3   OH255887   1.795   4.949  12.958 -0.1813 -0.0627  0.6485
11491TIP3    H155888   1.803   4.857  12.982 -1.8659 -0.3092  0.3058
11491TIP3    H255889   1.706   4.973  12.983 -0.0834  1.1977 -0.1769
11492TIP3   OH255890   4.721   3.520  17.196 -0.6471  0.0157  0.5547
11492TIP3    H155891   4.744   3.473  17.116  0.3914  0.0797  0.8050
11492TIP3    H255892   4.658   3.464  17.240 -1.0929 -0.0974 -0.2268
11493TIP3   OH255893   2.906   1.706  10.624 -0.4800  0.5408  0.1793
11493TIP3    H155894   2.848   1.719  10.699 -1.1417  2.2665 -0.5881
11493TIP3    H255895   2.850   1.666  10.557 -0.0027 -0.5958  0.4510
11494TIP3   OH255896   5.129   2.193   0.684  0.2268 -0.3988  0.3391
11494TIP3    H155897   5.222   2.209   0.668  0.0123 -0.4155 -1.0431
11494TIP3    H255898   5.085   2.236   0.611 -0.7940 -1.2267  0.4509
11495TIP3   OH255899   6.472   2.268   0.548 -0.0856 -0.6914  0.6327
11495TIP3    H155900   6.565   2.269   0.522  0.2059 -1.2347  1.6161
11495TIP3    H255901   6.447   2.360   0.550  0.9131 -0.4281  1.9769
11496TIP3   OH255902   1.411   4.658   2.331 -0.1063 -0.1869  0.0200
11496TIP3    H155903   1.471   4.727   2.301  0.1521 -1.0371 -1.4740
11496TIP3    H255904   1.435   4.643   2.422  0.0222  1.4948  0.2873
11497TIP3   OH255905   4.458   3.095   6.189 -1.0246 -0.5050  0.2422
11497TIP3    H155906   4.550   3.102   6.213 -0.6999 -3.8749  0.2748
11497TIP3    H255907   4.410   3.105   6.272 -0.5027 -1.4638  0.6733
11498TIP3   OH255908   1.172   6.001   1.581 -0.0210 -0.2220  0.1879
11498TIP3    H155909   1.177   5.996   1.676 -1.4497  1.5876  0.4020
11498TIP3    H255910   1.081   5.978   1.560 -0.0355  0.5212 -0.6233
11499TIP3   OH255911   5.772   0.932   2.628  0.6414 -0.1365 -0.4178
11499TIP3    H155912   5.789   1.019   2.664  1.0650 -0.9843  1.4878
11499TIP3    H255913   5.854   0.885   2.639 -0.4878 -1.7567  1.4894
11500TIP3   OH255914   3.848   3.723   4.494  0.0624 -0.0200 -0.1034
11500TIP3    H155915   3.928   3.771   4.515 -1.1671  1.2966  1.7564
11500TIP3    H255916   3.876   3.632   4.482  1.8938  0.5279  0.0268
11501TIP3   OH255917   4.946   1.875  11.048  0.1086 -0.3561  0.2646
11501TIP3    H155918   5.012   1.847  10.985 -0.2628 -1.3995  0.3248
11501TIP3    H255919   4.888   1.933  10.998  0.7441  0.1132  0.0702
11502TIP3   OH255920   6.319   2.103   0.706  0.1037  0.2390  0.4216
11502TIP3    H155921   6.286   2.161   0.775  0.6496  0.1395  0.7709
11502TIP3    H255922   6.374   2.160   0.652 -0.9074  0.4914 -0.3775
11503TIP3   OH255923   2.914   1.595   1.033 -0.2016  0.7512  0.4908
11503TIP3    H155924   2.838   1.570   0.981 -1.3888  3.2397  0.9943
11503TIP3    H255925   2.907   1.689   1.044  2.4542  0.8982  1.3662
11504TIP3   OH255926   2.782   4.088  15.198 -0.0968  0.2924 -0.5274
11504TIP3    H155927   2.772   4.114  15.106 -2.2280  0.0238 -0.3769
11504TIP3    H255928   2.745   4.161  15.247  2.8343  1.3466  0.2196
11505TIP3   OH255929   6.064   4.943  12.874  0.0380  0.3451  0.7575
11505TIP3    H155930   6.140   4.983  12.917  1.0450  0.0609 -0.6754
11505TIP3    H255931   6.036   4.873  12.933  0.9881  0.3670  1.2440
11506TIP3   OH255932   6.505   3.817  13.164 -0.7998 -0.3735  0.0174
11506TIP3    H155933   6.448   3.840  13.090 -0.0246  1.2318 -0.0880
11506TIP3    H255934   6.463   3.857  13.240  0.9424  2.0778 -0.2739
11507TIP3   OH255935   4.123   3.502  15.211  0.6826  0.0922 -0.0189
11507TIP3    H155936   4.132   3.590  15.247  2.5785 -0.2427  0.4092
11507TIP3    H255937   4.213   3.473  15.199  0.0770 -2.0107  0.3954
11508TIP3   OH255938   6.265   1.023  17.009 -0.2789 -0.1879 -0.3961
11508TIP3    H155939   6.210   0.945  17.010  0.7430 -0.9055  0.0478
11508TIP3    H255940   6.333   1.006  17.074 -1.2233  1.9278  1.2211
11509TIP3   OH255941   2.663   2.981   5.489 -0.0100 -0.1504  0.8462
11509TIP3    H155942   2.660   3.039   5.566 -1.0052  2.2721 -0.9708
11509TIP3    H255943   2.596   2.915   5.507 -1.1770  1.1744  1.4676
11510TIP3   OH255944   2.766   5.677  14.528  0.4368  0.3579  0.4874
11510TIP3    H155945   2.681   5.683  14.573  0.3064 -0.7748  0.4119
11510TIP3    H255946   2.824   5.636  14.592  0.3591 -0.8724 -0.2265
11511TIP3   OH255947   1.232   0.769   1.020  0.3928  0.0495 -0.5354
11511TIP3    H155948   1.178   0.693   1.045  1.5994 -0.7385 -0.2915
11511TIP3    H255949   1.178   0.844   1.042  0.2946 -0.6876  1.8619
11512TIP3   OH255950   6.135   0.556  15.344 -0.1402 -0.4204 -0.0198
11512TIP3    H155951   6.079   0.612  15.291  0.4818  0.2764  0.0507
11512TIP3    H255952   6.123   0.589  15.434  0.2948 -0.3513  0.0101
11513TIP3   OH255953   3.633   5.526   2.467 -0.3057  0.1964 -0.2432
11513TIP3    H155954   3.567   5.464   2.498  0.3776  1.7448  4.6533
11513TIP3    H255955   3.717   5.484   2.487  0.1685  1.1813 -0.1633
11514TIP3   OH255956   6.011   2.085   1.092  0.1642 -0.2897  0.6611
11514TIP3    H155957   5.958   2.009   1.116 -0.6966  0.1356  0.1464
11514TIP3    H255958   6.101   2.056   1.103 -0.1817 -0.7708  2.3272
11515TIP3   OH255959   4.264   3.014   5.428 -1.0559  0.5955  0.1752
11515TIP3    H155960   4.221   2.935   5.393  1.4984  0.0187 -1.8732
11515TIP3    H255961   4.271   2.998   5.522  0.6698 -2.3205 -0.3858
11516TIP3   OH255962   2.843   6.080  11.017  0.4306 -0.1020 -0.3271
11516TIP3    H155963   2.771   6.140  10.998  0.5042  0.8405  2.1846
11516TIP3    H255964   2.804   5.993  11.012 -0.5846  0.3431 -0.2726
11517TIP3   OH255965   5.266   4.381   4.844  0.0341  0.4226 -0.2409
11517TIP3    H155966   5.330   4.352   4.779 -0.0472  3.0710 -1.5548
11517TIP3    H255967   5.223   4.300   4.872  1.8186 -1.0542 -1.5830
11518TIP3   OH255968   4.165   5.359   3.755 -0.2855 -0.9746 -0.1448
11518TIP3    H155969   4.126   5.306   3.685  0.0113 -3.7753  1.7518
11518TIP3    H255970   4.260   5.354   3.738 -0.3643  1.0296 -1.3685
11519TIP3   OH255971   5.890   6.659   5.142 -0.2796 -0.4091 -0.0633
11519TIP3    H155972   5.923   6.746   5.166 -2.5619  0.6402 -0.6468
11519TIP3    H255973   5.961   6.620   5.091  1.4486  0.4222  1.6382
11520TIP3   OH255974   0.896   0.972  17.106  0.3222  0.0936 -0.4633
11520TIP3    H155975   0.811   0.941  17.075 -0.0915  1.3502 -0.6293
11520TIP3    H255976   0.875   1.037  17.173  1.1451  0.4449 -0.5366
11521TIP3   OH255977   2.805   5.013   5.671 -0.1105 -0.2940  0.4595
11521TIP3    H155978   2.882   4.975   5.714  0.7221  0.1671 -0.6066
11521TIP3    H255979   2.836   5.040   5.585 -0.9881  1.6568  0.7231
11522TIP3   OH255980   0.334   6.713   4.890  0.2074 -0.0204 -0.1538
11522TIP3    H155981   0.385   6.666   4.824  1.6675  0.1835  0.8140
11522TIP3    H255982   0.313   6.797   4.849  1.7298  0.3958 -0.1026
11523TIP3   OH255983   2.677   3.071  16.775  0.5049 -0.4122 -0.2730
11523TIP3    H155984   2.756   3.123  16.788 -0.0957  0.6171 -0.7038
11523TIP3    H255985   2.710   2.981  16.764  1.6586  0.0823 -0.9877
11524TIP3   OH255986   1.735   2.163  16.899  0.3280 -0.1631  0.1375
11524TIP3    H155987   1.794   2.216  16.953 -0.1598 -0.0296  0.5504
11524TIP3    H255988   1.670   2.129  16.961 -0.6000  0.5006 -0.4421
11525TIP3   OH255989   6.363   2.650  11.479 -0.3597  0.9982  0.2406
11525TIP3    H155990   6.376   2.642  11.384  1.3299  0.1534  0.5325
11525TIP3    H255991   6.441   2.696  11.510 -1.3516  2.1238  1.1070
11526TIP3   OH255992   4.871   0.518  13.443  0.6872  0.3577  0.0168
11526TIP3    H155993   4.921   0.514  13.525  0.6669 -0.3715  0.0001
11526TIP3    H255994   4.783   0.489  13.468  0.6362  0.3046 -0.2280
11527TIP3   OH255995   6.148   4.016  12.744 -0.3237 -0.6199 -0.4833
11527TIP3    H155996   6.116   3.926  12.748 -0.9737 -0.3658  0.3773
11527TIP3    H255997   6.071   4.069  12.766 -0.1395  0.1790 -1.7396
11528TIP3   OH255998   0.558   5.976   4.763  0.1660 -0.4963  0.0793
11528TIP3    H155999   0.489   5.932   4.813 -0.8936  1.0600  0.0277
11528TIP3    H256000   0.578   6.055   4.815  1.3087 -0.5173 -0.3340
11529TIP3   OH256001   6.517   3.512  15.764 -0.4876 -0.1156 -0.0850
11529TIP3    H156002   6.594   3.506  15.820  0.1989  0.3851 -0.9671
11529TIP3    H256003   6.505   3.424  15.730 -0.0600 -0.1058 -0.2651
11530TIP3   OH256004   0.179   3.422   1.453  0.5020 -0.8949  0.0346
11530TIP3    H156005   0.209   3.498   1.504  3.3456  0.3010 -3.1699
11530TIP3    H256006   0.104   3.455   1.403 -1.1229 -1.5532  1.9553
11531TIP3   OH256007   6.362   3.770   3.316  0.4892 -0.1854 -0.1110
11531TIP3    H156008   6.290   3.807   3.368  0.0121 -1.7476  0.3586
11531TIP3    H256009   6.437   3.825   3.336 -1.1684  3.3733 -2.8178
11532TIP3   OH256010   5.415   1.687   5.177  0.2759 -0.1557  0.5786
11532TIP3    H156011   5.334   1.729   5.203 -0.1783 -0.4440 -0.3493
11532TIP3    H256012   5.455   1.657   5.259 -0.4870  0.1008  1.0398
11533TIP3   OH256013   2.930   2.079  12.046  0.1065 -0.7337 -0.5918
11533TIP3    H156014   2.884   2.035  12.117  2.2251 -0.5909  0.9364
11533TIP3    H256015   2.874   2.154  12.023  0.5595  0.6966  2.6956
11534TIP3   OH256016   3.126   0.702   6.573 -0.2145 -0.2682  0.3191
11534TIP3    H156017   3.173   0.620   6.589  0.8969  0.4509  0.8178
11534TIP3    H256018   3.186   0.753   6.518 -0.9787  0.1407 -0.1450
11535TIP3   OH256019   5.906   3.241  11.492  0.2806 -0.2558 -0.5933
11535TIP3    H156020   5.914   3.148  11.471  0.9017 -0.9132  2.4050
11535TIP3    H256021   5.825   3.269  11.447 -0.2216 -2.3542 -1.0345
11536TIP3   OH256022   5.873   2.693  16.423 -0.2151 -0.6491 -0.5120
11536TIP3    H156023   5.874   2.611  16.473  0.4768 -0.5394 -0.3261
11536TIP3    H256024   5.939   2.747  16.466 -2.5925  1.0594  1.0965
11537TIP3   OH256025   4.184   3.968  15.950  0.0907  0.3776 -0.4076
11537TIP3    H156026   4.131   3.888  15.943  1.8807 -0.7643 -1.1729
11537TIP3    H256027   4.216   3.984  15.862  0.2474  1.6101 -0.1346
11538TIP3   OH256028   1.672   2.056  12.223  0.0789  0.1506  0.1183
11538TIP3    H156029   1.717   1.982  12.184  1.3210  1.0036 -0.1062
11538TIP3    H256030   1.739   2.098  12.279  0.1644  2.5496 -1.7032
11539TIP3   OH256031   1.308   5.474  11.615 -0.2588  0.0521 -0.3820
11539TIP3    H156032   1.287   5.564  11.591 -1.0178  0.2290  0.8819
11539TIP3    H256033   1.288   5.423  11.537  0.2105  0.9830 -1.1142
11540TIP3   OH256034   2.730   4.205  16.080  0.0790 -0.4852 -0.4087
11540TIP3    H156035   2.745   4.121  16.036 -0.1646 -0.0336 -1.3558
11540TIP3    H256036   2.667   4.251  16.025 -0.7548 -0.1835  0.7687
11541TIP3   OH256037   0.601   0.449   2.131 -0.2439 -1.0271  0.4149
11541TIP3    H156038   0.571   0.359   2.119  0.1970 -1.1088 -0.1153
11541TIP3    H256039   0.546   0.484   2.201  1.3841 -2.5941  2.5791
11542TIP3   OH256040   6.656   6.628  16.117  0.2221  0.3753 -0.1247
11542TIP3    H156041   6.742   6.600  16.148  0.3686  1.3917  0.3960
11542TIP3    H256042   6.600   6.550  16.127  1.1545 -0.4003 -0.8130
11543TIP3   OH256043   4.586   6.146  12.640 -0.2552 -0.0284 -0.6124
11543TIP3    H156044   4.634   6.224  12.613  4.3675 -1.8132  1.9259
11543TIP3    H256045   4.535   6.174  12.716  0.6303  0.7497 -0.3002
11544TIP3   OH256046   4.701   1.399   1.827  0.4199  0.1981  0.4028
11544TIP3    H156047   4.700   1.306   1.805 -2.3519  0.3089 -0.1271
11544TIP3    H256048   4.713   1.443   1.743 -2.5992  0.4052  0.0353
11545TIP3   OH256049   3.488   0.464   0.544 -0.1336  0.7323  0.3948
11545TIP3    H156050   3.540   0.537   0.509 -1.2521  0.8329 -1.0941
11545TIP3    H256051   3.436   0.434   0.470  0.0678 -1.3923  1.0778
11546TIP3   OH256052   6.636   0.582   1.741  0.6232  0.2912  0.4721
11546TIP3    H156053   6.615   0.591   1.648 -0.1411  1.4769  0.7492
11546TIP3    H256054   6.560   0.538   1.779  1.0389 -0.4125  0.5052
11547TIP3   OH256055   3.936   2.651  15.410  0.5868 -0.4739 -0.3911
11547TIP3    H156056   4.013   2.603  15.442  1.7582  2.1879  1.0333
11547TIP3    H256057   3.898   2.690  15.489 -1.5603 -0.7699 -1.2452
11548TIP3   OH256058   3.690   5.467   4.647 -0.5987  0.0587  0.2312
11548TIP3    H156059   3.772   5.506   4.617 -1.5494  2.2940  0.4658
11548TIP3    H256060   3.632   5.471   4.571 -1.1879  0.5083  0.6997
11549TIP3   OH256061   1.983   4.527  15.690 -0.1763 -0.7188  0.1649
11549TIP3    H156062   1.937   4.444  15.678 -0.2184 -0.6093 -0.4192
11549TIP3    H256063   1.939   4.588  15.631  1.1251 -0.7671 -0.8833
11550TIP3   OH256064   4.110   4.889  10.635 -0.2521  0.3084 -0.1513
11550TIP3    H156065   4.187   4.834  10.650  0.8061  1.6681 -0.4319
11550TIP3    H256066   4.042   4.852  10.691  0.8185 -0.4942  0.6372
11551TIP3   OH256067   4.150   2.833  11.730 -0.2640  0.7821  0.2059
11551TIP3    H156068   4.230   2.785  11.712 -0.9633 -0.8710  1.3923
11551TIP3    H256069   4.156   2.912  11.676  2.4873  1.0381  0.8307
11552TIP3   OH256070   1.713   3.578   5.735 -0.1825 -0.0526  0.4452
11552TIP3    H156071   1.775   3.594   5.664 -0.0657 -1.3025  0.2446
11552TIP3    H256072   1.751   3.504   5.783 -2.1748 -1.7847 -0.5281
11553TIP3   OH256073   1.652   0.520   2.225 -0.5139  0.1349 -0.2087
11553TIP3    H156074   1.728   0.536   2.282 -0.0207  0.6070 -0.9839
11553TIP3    H256075   1.582   0.572   2.263 -0.6689 -0.9208  0.9699
11554TIP3   OH256076   3.777   2.285  14.064  0.2318 -0.4079  0.1323
11554TIP3    H156077   3.684   2.262  14.075  0.3326 -1.0264 -0.2529
11554TIP3    H256078   3.821   2.238  14.135  0.1186  0.8358  1.0423
11555TIP3   OH256079   5.899   5.173   5.486  0.5638 -0.7172 -0.2818
11555TIP3    H156080   5.848   5.092   5.488 -0.4532 -0.0655  0.9647
11555TIP3    H256081   5.989   5.144   5.473  0.0065 -1.9440 -1.5897
11556TIP3   OH256082   3.163   6.739   6.010  0.2044  0.3263 -0.4810
11556TIP3    H156083   3.169   6.671   6.077  0.0796  1.2636  0.4880
11556TIP3    H256084   3.089   6.793   6.038  0.5930  1.1290 -0.9983
11557TIP3   OH256085   4.183   6.127   2.623  0.3139  0.5557  0.0481
11557TIP3    H156086   4.241   6.108   2.696  0.3305  0.4531  0.0084
11557TIP3    H256087   4.240   6.121   2.545 -0.0426 -0.8606 -0.1008
11558TIP3   OH256088   3.278   2.949  15.445  0.1921 -0.2439 -0.4280
11558TIP3    H156089   3.227   3.026  15.421  0.0770 -0.5420 -1.1602
11558TIP3    H256090   3.214   2.889  15.485  0.2101 -0.1135 -0.2025
11559TIP3   OH256091   3.677   5.274  11.129 -0.0603 -0.2200 -0.5998
11559TIP3    H156092   3.729   5.228  11.194  1.3135  0.7181 -1.0067
11559TIP3    H256093   3.623   5.207  11.089 -0.5676 -0.8887  1.1695
11560TIP3   OH256094   5.398   3.940   2.398  0.9855 -0.0925 -0.2480
11560TIP3    H156095   5.465   3.900   2.453  0.3584 -0.4526  0.2596
11560TIP3    H256096   5.384   3.877   2.328 -0.0656 -0.8242  0.6004
11561TIP3   OH256097   4.100   3.987  15.063  0.5626  0.0785 -0.6128
11561TIP3    H156098   4.012   3.987  15.027  0.5634  0.6868 -0.6328
11561TIP3    H256099   4.157   4.003  14.987  0.8453 -2.1729 -0.9113
11562TIP3   OH256100   3.641   6.013  13.171 -0.5316  0.6462 -0.0664
11562TIP3    H156101   3.673   6.018  13.081 -2.0148  2.6272 -0.5079
11562TIP3    H256102   3.701   5.952  13.214  2.3269  2.3294 -1.4835
11563TIP3   OH256103   5.659   1.561   4.907 -0.3153 -0.3813 -0.0449
11563TIP3    H156104   5.677   1.539   4.815  0.3937 -1.6854  0.3902
11563TIP3    H256105   5.611   1.485   4.940 -1.1138  0.3601  0.5057
11564TIP3   OH256106   1.953   4.008   4.719  0.1802 -0.4475  0.5020
11564TIP3    H156107   2.013   4.067   4.674 -0.3767 -1.1512 -1.2130
11564TIP3    H256108   1.999   3.984   4.800  1.9918 -0.5515 -0.5330
11565TIP3   OH256109   5.748   0.978   2.962  0.7279  0.0253  0.3928
11565TIP3    H156110   5.653   0.990   2.962  0.3865 -2.2676  2.1301
11565TIP3    H256111   5.783   1.052   3.011 -0.4475 -0.7073  2.3969
11566TIP3   OH256112   2.881   1.516   5.469 -0.3403 -0.5605  0.1131
11566TIP3    H156113   2.865   1.602   5.430  2.6038 -0.1029 -0.1686
11566TIP3    H256114   2.851   1.525   5.560 -0.7260  0.5150 -0.1147
11567TIP3   OH256115   5.442   2.076   0.220 -0.1212  0.2156  0.3399
11567TIP3    H156116   5.498   2.124   0.281 -0.2956  1.7062 -0.6536
11567TIP3    H256117   5.353   2.099   0.247 -0.1943  1.0045 -0.5729
11568TIP3   OH256118   0.093   5.343   6.262  0.6585  1.0438  0.5398
11568TIP3    H156119   0.118   5.276   6.325 -1.2477 -0.0391  0.1971
11568TIP3    H256120   0.106   5.426   6.307  0.7286  0.3332  1.8402
11569TIP3   OH256121   3.353   4.107   1.777  0.4487  0.0447  0.1387
11569TIP3    H156122   3.444   4.088   1.754 -0.1362 -2.4140 -0.3533
11569TIP3    H256123   3.334   4.048   1.850 -1.2222 -0.7177 -0.8589
11570TIP3   OH256124   2.172   4.634  15.493 -0.1772 -0.5666  0.0075
11570TIP3    H156125   2.197   4.711  15.544 -0.7597  0.3414 -1.0449
11570TIP3    H256126   2.079   4.647  15.475 -0.0459 -1.0091 -1.0423
11571TIP3   OH256127   2.088   5.248   3.498 -0.1016 -0.2246  0.1672
11571TIP3    H156128   2.122   5.159   3.508  2.0494  0.5025 -0.4288
11571TIP3    H256129   2.117   5.294   3.577  1.3223  0.7182 -0.8929
11572TIP3   OH256130   4.216   6.302   3.840  0.0310  0.2080  0.3877
11572TIP3    H156131   4.186   6.348   3.919 -1.8562 -0.5103  0.1143
11572TIP3    H256132   4.259   6.370   3.788  0.4076  0.9060  1.5843
11573TIP3   OH256133   2.801   0.012   2.745  0.2340  0.3363  0.3113
11573TIP3    H156134   2.880   0.065   2.754 -0.2027  0.9697  0.4184
11573TIP3    H256135   2.777  -0.011   2.835 -0.5710  1.4341  0.3915
11574TIP3   OH256136   6.335   5.449  13.960  0.4491 -0.3775  0.4829
11574TIP3    H156137   6.242   5.447  13.984  0.4331 -1.0141  0.3868
11574TIP3    H256138   6.360   5.541  13.965 -0.2396 -0.1826  0.3152
11575TIP3   OH256139   3.541   2.811   1.205  0.1400 -0.3680 -0.0742
11575TIP3    H156140   3.599   2.741   1.232 -1.4305 -2.2253 -1.4044
11575TIP3    H256141   3.484   2.825   1.281  0.8364 -0.0858  0.4065
11576TIP3   OH256142   1.906   5.231  14.189 -0.1589  0.0227  0.3338
11576TIP3    H156143   1.950   5.197  14.111  1.1052 -0.1528  1.1169
11576TIP3    H256144   1.936   5.174  14.260 -0.0221  1.2099  1.2285
11577TIP3   OH256145   4.672   4.075  11.441  0.7068 -0.3549 -0.3627
11577TIP3    H156146   4.676   4.124  11.523 -2.0670 -0.9797  0.1830
11577TIP3    H256147   4.734   4.120  11.383  0.8126  1.6159  1.2476
11578TIP3   OH256148   5.822   0.002   1.342  0.1401  0.0198  0.0274
11578TIP3    H156149   5.739   0.007   1.295  0.3457  1.7248 -0.1834
11578TIP3    H256150   5.888  -0.011   1.274  0.3145  1.3651 -0.0852
11579TIP3   OH256151   5.719   0.426  17.019 -0.0663 -0.1442  0.6379
11579TIP3    H156152   5.744   0.422  16.927  1.1431 -0.0164  0.9539
11579TIP3    H256153   5.638   0.478  17.020 -1.2112 -1.8468 -0.5471
11580TIP3   OH256154   2.747   6.018  16.576 -0.3998  0.3364  0.1493
11580TIP3    H156155   2.805   5.976  16.512 -0.2717 -0.4274  0.7464
11580TIP3    H256156   2.805   6.043  16.648 -0.7352 -0.0279  0.5525
11581TIP3   OH256157   0.873   0.515  13.422 -0.4844  0.0568  0.0580
11581TIP3    H156158   0.849   0.520  13.329  0.7489 -3.2982 -0.4813
11581TIP3    H256159   0.967   0.501  13.422 -0.8078 -2.3192  1.7361
11582TIP3   OH256160   6.736   3.152  14.191  0.2667 -0.0282  0.8801
11582TIP3    H156161   6.702   3.241  14.201 -1.1659 -0.7513  2.8732
11582TIP3    H256162   6.659   3.099  14.169  0.6975 -1.1038  1.8939
11583TIP3   OH256163   5.539   3.777  10.789 -0.1886 -0.6932  0.6322
11583TIP3    H156164   5.622   3.734  10.767  0.4875  1.4729 -1.1743
11583TIP3    H256165   5.544   3.791  10.883  1.0202 -1.5988  0.7145
11584TIP3   OH256166   2.464   2.567   4.255  0.5299 -0.2057  0.3529
11584TIP3    H156167   2.396   2.618   4.298  0.0699 -0.4550 -0.0840
11584TIP3    H256168   2.544   2.590   4.303  0.5083  1.6609 -0.4595
11585TIP3   OH256169   3.196   4.948   0.636 -0.3525 -0.3107 -0.3982
11585TIP3    H156170   3.273   4.910   0.679  1.5193  2.5319 -1.1163
11585TIP3    H256171   3.147   4.872   0.605  1.7319 -2.2285  0.7834
11586TIP3   OH256172   1.530   0.857   2.088  0.5045 -0.7937  0.5484
11586TIP3    H156173   1.528   0.834   2.181  0.1217 -0.2247  0.6843
11586TIP3    H256174   1.619   0.887   2.073 -0.0530  1.3645  1.2979
11587TIP3   OH256175   0.221   0.756  10.934  0.1375  0.1161 -0.0858
11587TIP3    H156176   0.269   0.788  10.858 -1.8851  2.5003 -0.4132
11587TIP3    H256177   0.190   0.835  10.978 -2.4922 -1.3105  0.7207
11588TIP3   OH256178   6.112   6.681   4.099  0.1095  0.2850  0.3636
11588TIP3    H156179   6.145   6.768   4.078  0.6573  0.2658  1.1210
11588TIP3    H256180   6.040   6.667   4.037  1.3723  0.4196 -1.1544
11589TIP3   OH256181   6.618   5.222   4.064  0.2104  0.4025  0.0111
11589TIP3    H156182   6.581   5.273   4.136  2.2230  0.7669  0.8105
11589TIP3    H256183   6.554   5.152   4.049 -0.4960  0.6429  1.7832
11590TIP3   OH256184   4.173   3.670   0.581  0.3136 -0.0131 -0.1169
11590TIP3    H156185   4.104   3.631   0.528 -0.4567  0.5117  0.4930
11590TIP3    H256186   4.129   3.698   0.662  1.5889 -1.4140  1.1057
11591TIP3   OH256187   0.621   0.642  11.862 -0.4752  0.2634  0.8620
11591TIP3    H156188   0.582   0.649  11.775 -0.6965  0.9566  1.0099
11591TIP3    H256189   0.644   0.550  11.871 -1.6034 -0.0569  0.5524
11592TIP3   OH256190   1.575   0.623  12.562 -0.6151 -0.2535  0.0238
11592TIP3    H156191   1.636   0.591  12.494 -0.3144  0.8867 -0.2456
11592TIP3    H256192   1.561   0.715  12.540 -2.0674 -0.3910  0.3773
11593TIP3   OH256193   2.780   4.110   6.361  0.5817 -0.5254 -0.1766
11593TIP3    H156194   2.708   4.071   6.410  1.8031 -2.1479  0.3747
11593TIP3    H256195   2.841   4.141   6.428  0.4652  0.7309 -0.6367
11594TIP3   OH256196   0.670   3.636   2.852 -0.1655 -0.6199 -0.3745
11594TIP3    H156197   0.621   3.673   2.926 -1.3700  0.0544 -1.4927
11594TIP3    H256198   0.761   3.638   2.881 -0.3647  1.7702  0.2238
11595TIP3   OH256199   1.781   1.447   2.553  0.0225 -0.2282  0.4917
11595TIP3    H156200   1.701   1.501   2.560  0.0865 -0.1562  0.6524
11595TIP3    H256201   1.749   1.362   2.524 -0.2181 -0.4899  1.5252
11596TIP3   OH256202   4.458   3.582   5.945 -0.4632  0.1341  0.4640
11596TIP3    H156203   4.534   3.526   5.955  0.0782  0.1280 -3.1631
11596TIP3    H256204   4.383   3.526   5.966  0.3203 -0.8601  0.5803
11597TIP3   OH256205   6.398   0.562   1.161  0.3247 -0.4707 -0.0795
11597TIP3    H156206   6.402   0.501   1.234 -1.5371 -1.4972 -0.7821
11597TIP3    H256207   6.459   0.526   1.096  1.1236 -0.1848  0.5132
11598TIP3   OH256208   5.392   3.537   4.634  0.1768  0.3853 -0.0615
11598TIP3    H156209   5.384   3.615   4.688 -0.6149  0.0402  0.3319
11598TIP3    H256210   5.472   3.494   4.664 -0.8999 -0.4427  1.6849
11599TIP3   OH256211   1.872   6.685   5.696 -0.0100  0.4486  0.1114
11599TIP3    H156212   1.819   6.700   5.774 -0.6612  1.0713 -0.4517
11599TIP3    H256213   1.896   6.772   5.665 -0.7029  0.2397 -1.0386
11600TIP3   OH256214   6.446   3.407  14.300  0.8056 -0.3046 -0.7675
11600TIP3    H156215   6.437   3.502  14.307 -1.2921 -0.2623 -3.2124
11600TIP3    H256216   6.539   3.393  14.284  1.5451  1.1285  2.0067
11601TIP3   OH256217   5.330   1.806  11.357 -0.2472 -0.4343 -0.2832
11601TIP3    H156218   5.303   1.742  11.292  0.7136 -0.3259 -0.8114
11601TIP3    H256219   5.426   1.810  11.348 -0.3063  1.2440 -0.4494
11602TIP3   OH256220   3.104   2.935   2.096 -0.0753 -0.0576 -0.1206
11602TIP3    H156221   3.099   2.987   2.016  0.2801 -0.2422 -0.2636
11602TIP3    H256222   3.020   2.951   2.140  0.1180  0.8160 -0.0530
11603TIP3   OH256223   2.655   0.511  14.939  0.1226 -0.1762 -0.4881
11603TIP3    H156224   2.712   0.586  14.957  1.5208 -1.8631  2.5462
11603TIP3    H256225   2.601   0.503  15.018 -0.6920 -1.7397 -1.1787
11604TIP3   OH256226   5.250   1.872  12.559  0.0738 -0.5223  0.2699
11604TIP3    H156227   5.237   1.848  12.651 -0.9597  0.7787  0.4824
11604TIP3    H256228   5.164   1.903  12.530 -0.6505 -4.5928 -2.2891
11605TIP3   OH256229   0.998   0.648   4.373 -0.7420 -0.1712  0.0298
11605TIP3    H156230   0.976   0.582   4.439 -0.2221  0.4569  0.8568
11605TIP3    H256231   1.086   0.623   4.343 -0.1841  0.6203  0.9715
11606TIP3   OH256232   4.937   0.324  16.172 -0.2348 -0.8914 -0.2698
11606TIP3    H156233   4.911   0.279  16.253 -0.0810 -0.1526  0.1974
11606TIP3    H256234   5.032   0.313  16.168 -0.2655 -1.0876 -0.4488
11607TIP3   OH256235   2.955   2.549  13.577 -0.3199  1.0669  0.2810
11607TIP3    H156236   2.984   2.521  13.664 -0.0884  0.7697  0.1073
11607TIP3    H256237   2.889   2.616  13.595  0.1444  1.4235  0.6822
11608TIP3   OH256238   0.340   4.074  13.243 -0.2175  0.3773  0.4983
11608TIP3    H156239   0.424   4.029  13.251  0.1151  1.2709  2.3318
11608TIP3    H256240   0.275   4.005  13.257  0.2378 -0.0929  0.3146
11609TIP3   OH256241   4.421   2.329   5.507 -0.2102 -0.0737 -0.6315
11609TIP3    H156242   4.480   2.308   5.434  0.1500  1.3255 -0.7566
11609TIP3    H256243   4.363   2.253   5.514  0.3272 -0.6001 -1.8027
11610TIP3   OH256244   5.258   4.246  11.565  0.3900 -0.4145 -0.2543
11610TIP3    H156245   5.245   4.197  11.646 -1.8073  0.2387 -0.1921
11610TIP3    H256246   5.318   4.317  11.590 -1.4056  0.6484  1.1953
11611TIP3   OH256247   0.191   5.732   2.076  0.2702  0.9715 -0.4713
11611TIP3    H156248   0.199   5.696   2.164  2.1601 -0.0071 -0.9954
11611TIP3    H256249   0.135   5.669   2.030 -0.8639  1.5787  0.0696
11612TIP3   OH256250   4.915   5.974   0.244 -0.2880  0.0433  0.2790
11612TIP3    H156251   4.922   6.057   0.196  1.3115  0.8595  1.8543
11612TIP3    H256252   4.946   5.995   0.332 -1.7889 -1.7751  1.2704
11613TIP3   OH256253   6.028   4.630   1.887  0.2219  0.1958 -1.0490
11613TIP3    H156254   5.968   4.690   1.843  0.3056 -0.3584 -1.9046
11613TIP3    H256255   6.026   4.550   1.835 -0.4845 -0.8389  0.5352
11614TIP3   OH256256   2.812   6.095   2.749  0.1640 -0.0158  0.3143
11614TIP3    H156257   2.720   6.091   2.777  0.3924  0.1107  1.0973
11614TIP3    H256258   2.832   6.188   2.742  0.4798 -0.0320  0.9769
11615TIP3   OH256259   1.839   2.071  12.694  0.1046  0.2290  0.3854
11615TIP3    H156260   1.762   2.128  12.698 -0.8207 -0.7566 -2.2396
11615TIP3    H256261   1.812   1.992  12.741 -0.5358 -0.1281 -0.5584
11616TIP3   OH256262   5.168   0.606   3.046  0.5620 -0.0034 -0.0521
11616TIP3    H156263   5.076   0.634   3.049  0.6208  0.2902 -0.8954
11616TIP3    H256264   5.217   0.682   3.077  0.3334 -1.1918  3.4485
11617TIP3   OH256265   1.447   0.550  14.854 -0.3984  0.2915 -0.3214
11617TIP3    H156266   1.439   0.544  14.759 -0.2373  2.3210 -0.4770
11617TIP3    H256267   1.477   0.463  14.881 -1.4039 -0.5962 -2.0106
11618TIP3   OH256268   4.882   5.609  15.911  0.3736 -0.4594  0.4746
11618TIP3    H156269   4.836   5.679  15.865 -0.9600 -0.9210  1.0604
11618TIP3    H256270   4.816   5.540  15.919  1.4874 -1.5313  0.4515
11619TIP3   OH256271   1.234   4.108   3.355 -0.3543 -0.0285 -0.0954
11619TIP3    H156272   1.180   4.155   3.419  0.6756  0.8340  0.1454
11619TIP3    H256273   1.306   4.072   3.406 -0.6598 -1.1428 -0.4288
11620TIP3   OH256274   5.888   0.623  16.616  0.6096 -0.0274  0.9730
11620TIP3    H156275   5.969   0.615  16.666  1.1844  0.3876  0.1040
11620TIP3    H256276   5.913   0.604  16.526 -0.5271 -1.2883  0.9070
11621TIP3   OH256277   2.648   4.950  14.750 -0.3664  0.2140  0.4125
11621TIP3    H156278   2.577   4.909  14.801  0.5577 -1.8593  0.0737
11621TIP3    H256279   2.718   4.963  14.813 -0.6163  1.2006  0.4931
11622TIP3   OH256280   2.108   4.683   6.852 -0.3346 -0.3761 -0.4226
11622TIP3    H156281   2.120   4.772   6.884  0.0678 -0.9442  1.0331
11622TIP3    H256282   2.060   4.693   6.769  0.9079  1.2616 -0.9623
11623TIP3   OH256283   2.315   6.058   5.798 -0.1545 -0.0823 -0.3210
11623TIP3    H156284   2.281   6.092   5.881 -0.0837  0.3598 -0.4703
11623TIP3    H256285   2.308   5.963   5.806 -2.0930  0.0095 -0.6137
11624TIP3   OH256286   2.658   3.813   0.514  0.2754  0.1979  1.0095
11624TIP3    H156287   2.618   3.889   0.473 -1.1543 -0.6033  0.8922
11624TIP3    H256288   2.639   3.824   0.608 -1.1294 -0.6935  0.8446
11625TIP3   OH256289   0.379   2.631   4.816  0.9564 -0.0631  0.0918
11625TIP3    H156290   0.424   2.549   4.836  0.4839 -1.1756 -3.0094
11625TIP3    H256291   0.286   2.607   4.813  0.4443  1.4195  2.8208
11626TIP3   OH256292   3.370   4.673   3.878 -0.0610  0.1202  0.1844
11626TIP3    H156293   3.424   4.615   3.933 -2.9142 -1.0768  1.8751
11626TIP3    H256294   3.373   4.633   3.791 -0.6614 -1.7012  0.9669
11627TIP3   OH256295   2.574   0.518  17.207 -0.6549 -0.2668  0.1057
11627TIP3    H156296   2.525   0.598  17.188 -1.0991 -0.5671 -0.0105
11627TIP3    H256297   2.515   0.466  17.261  0.9057  0.9477  3.0946
11628TIP3   OH256298   0.152   6.236  12.627  0.6623  0.0601 -0.1363
11628TIP3    H156299   0.104   6.303  12.676 -0.1101 -0.4894 -0.1405
11628TIP3    H256300   0.222   6.285  12.582 -1.0729  1.1796 -1.7116
11629TIP3   OH256301   4.267   5.153  14.714 -0.2122  0.0721  0.0609
11629TIP3    H156302   4.345   5.099  14.704  0.0941  0.3550  0.8091
11629TIP3    H256303   4.195   5.098  14.685  0.3097 -0.0762 -0.9483
11630TIP3   OH256304   4.796   6.018  15.351 -0.2853 -0.2408  0.0085
11630TIP3    H156305   4.791   6.107  15.386 -0.9162  0.0105 -0.7246
11630TIP3    H256306   4.768   6.026  15.260  2.2368 -0.7499 -0.8309
11631TIP3   OH256307   3.010   0.209  12.887 -0.2032  0.3302 -0.0106
11631TIP3    H156308   3.029   0.291  12.840  2.6138 -1.0170 -1.3599
11631TIP3    H256309   3.076   0.205  12.956 -0.6278 -0.5632  0.3518
11632TIP3   OH256310   2.752   0.561   0.812 -0.5887 -1.1067  0.1278
11632TIP3    H156311   2.727   0.639   0.861  0.8138  0.5163 -1.6698
11632TIP3    H256312   2.824   0.523   0.862  0.9234  0.6170 -0.6620
11633TIP3   OH256313   2.488   0.409   4.026 -0.2773  0.1300 -0.2041
11633TIP3    H156314   2.397   0.405   4.055 -1.0082  2.6755 -1.9345
11633TIP3    H256315   2.530   0.466   4.090 -0.1782 -0.0991 -0.0657
11634TIP3   OH256316   3.755   2.846  14.949 -0.3004 -0.4961  0.1322
11634TIP3    H156317   3.759   2.782  15.020 -0.5471 -0.1435  0.4632
11634TIP3    H256318   3.842   2.844  14.910  0.1591  0.0635  1.1055
11635TIP3   OH256319   4.080   5.493   2.058 -0.3691 -0.0469 -0.2743
11635TIP3    H156320   4.105   5.567   2.002 -1.2685 -0.6092 -1.4239
11635TIP3    H256321   4.134   5.504   2.137  1.0613  0.6170 -1.3277
11636TIP3   OH256322   4.671   2.167  15.989  0.3547  0.1125 -0.5130
11636TIP3    H156323   4.751   2.129  16.026  0.3058  0.3916 -0.1070
11636TIP3    H256324   4.700   2.214  15.911  0.6688  0.6552 -0.0735
11637TIP3   OH256325   4.660   4.338   2.311 -0.6301  0.1576  0.7583
11637TIP3    H156326   4.686   4.311   2.399  2.2930  0.5039  0.0440
11637TIP3    H256327   4.634   4.256   2.267  0.9728 -0.4742  0.9578
11638TIP3   OH256328   1.515   1.087  16.245 -0.7935  0.0005 -0.5263
11638TIP3    H156329   1.508   1.095  16.150 -2.1014  0.1007 -0.4272
11638TIP3    H256330   1.558   1.002  16.258 -2.0855 -0.7744 -1.1754
11639TIP3   OH256331   2.059   3.859  13.207  0.2745 -0.3164  0.2180
11639TIP3    H156332   1.964   3.858  13.209  0.2742 -1.4602  0.0627
11639TIP3    H256333   2.085   3.805  13.281  0.8014 -0.1674  0.1450
11640TIP3   OH256334   3.789   3.186   0.300 -0.1689 -0.2528 -0.1170
11640TIP3    H156335   3.808   3.107   0.351  0.3845 -0.6170 -0.8758
11640TIP3    H256336   3.694   3.190   0.296 -0.1971 -1.0935 -0.3934
11641TIP3   OH256337   4.715   0.130   3.648  0.2800  0.7934  0.0973
11641TIP3    H156338   4.784   0.182   3.689 -0.0413  0.1876  1.4237
11641TIP3    H256339   4.749   0.041   3.647 -0.2371  0.5927  0.2113
11642TIP3   OH256340   4.489   2.774   1.267 -0.4254  0.4857  0.0606
11642TIP3    H156341   4.560   2.734   1.217 -0.9814  0.1248 -0.4483
11642TIP3    H256342   4.414   2.771   1.208 -1.1416 -0.1226  0.9909
11643TIP3   OH256343   3.953   6.141   1.407 -0.1452  0.0919  0.1763
11643TIP3    H156344   3.930   6.141   1.314  0.1504  0.6264  0.0988
11643TIP3    H256345   3.869   6.156   1.452 -0.1659  0.6797 -0.0461
11644TIP3   OH256346   3.426   6.306  13.466  0.2389 -0.1760  0.7101
11644TIP3    H156347   3.393   6.270  13.549 -2.5586  2.9327  1.0704
11644TIP3    H256348   3.483   6.378  13.493  1.0869 -0.5574 -0.0553
11645TIP3   OH256349   1.287   4.387   4.814  0.2525  0.1228 -0.1907
11645TIP3    H156350   1.225   4.362   4.883  2.7575 -0.1864  1.9955
11645TIP3    H256351   1.306   4.305   4.768  2.7784 -0.7231  2.2793
11646TIP3   OH256352   5.479   1.128   3.924 -0.3147  0.4804 -0.0001
11646TIP3    H156353   5.574   1.132   3.939 -0.7259 -0.0576  3.0850
11646TIP3    H256354   5.465   1.043   3.883  0.3924  0.0171  0.7042
11647TIP3   OH256355   6.250   6.655  12.403 -0.2499 -0.1642  0.5547
11647TIP3    H156356   6.184   6.621  12.342  0.4966 -1.1979  0.3081
11647TIP3    H256357   6.322   6.682  12.347 -0.4291  0.8983  0.8304
11648TIP3   OH256358   4.961   5.100  11.557  0.4313 -0.0479 -0.3570
11648TIP3    H156359   4.889   5.092  11.619 -0.0479 -0.8946 -1.0159
11648TIP3    H256360   5.022   5.161  11.599  0.6756 -1.5273  1.5016
11649TIP3   OH256361   2.970   1.883  13.869 -0.2187 -0.1299 -0.1367
11649TIP3    H156362   2.934   1.879  13.780  0.7122  0.7154 -0.5589
11649TIP3    H256363   2.955   1.795  13.904 -0.1558 -0.6219 -1.3026
11650TIP3   OH256364   3.607   5.721   3.959 -0.1520  0.7371 -0.2402
11650TIP3    H156365   3.538   5.759   3.906 -1.8918  0.6187  1.8885
11650TIP3    H256366   3.626   5.787   4.026 -0.7617 -0.6876  1.3754
11651TIP3   OH256367   0.684   4.597   4.695 -0.0467  0.0091  0.4518
11651TIP3    H156368   0.742   4.581   4.769 -0.3411  0.7434  0.8356
11651TIP3    H256369   0.641   4.512   4.680  1.6150 -0.7312 -0.2676
11652TIP3   OH256370   6.694   1.635  15.247 -0.9697  0.7517 -0.6325
11652TIP3    H156371   6.653   1.661  15.330  1.7571  1.4657  0.5350
11652TIP3    H256372   6.667   1.544  15.235  1.3200 -0.5243  2.8533
11653TIP3   OH256373   6.014   2.275   5.359  0.2258  0.0123  0.5738
11653TIP3    H156374   5.925   2.309   5.344  0.2847 -0.0081  0.1655
11653TIP3    H256375   6.009   2.184   5.330 -0.2181 -0.6613  2.6903
11654TIP3   OH256376   0.151   5.066  11.042 -0.0138 -0.6704 -0.3893
11654TIP3    H156377   0.246   5.077  11.040  0.2412 -1.8158  2.9721
11654TIP3    H256378   0.117   5.154  11.061  0.6029 -0.8517  1.6698
11655TIP3   OH256379   2.201   1.654  12.864  0.0842 -0.7601 -0.4395
11655TIP3    H156380   2.134   1.586  12.862 -1.2139  0.4820 -3.3477
11655TIP3    H256381   2.266   1.625  12.800  0.4059 -0.1355 -0.4030
11656TIP3   OH256382   3.320   5.603  12.021  0.3743  0.6942 -0.6471
11656TIP3    H156383   3.387   5.668  12.001 -0.4301  1.3438 -1.2763
11656TIP3    H256384   3.267   5.598  11.941 -1.1328  1.1826  0.3049
11657TIP3   OH256385   4.224   2.483   5.619 -0.0456 -0.9370 -0.2421
11657TIP3    H156386   4.280   2.426   5.566 -0.5094 -1.8063  0.1713
11657TIP3    H256387   4.235   2.449   5.708  1.6691  1.2611  0.4323
11658TIP3   OH256388   4.458   1.013  11.145 -0.0376 -0.2810 -0.8119
11658TIP3    H156389   4.449   1.102  11.179  1.6405 -0.6009  0.5837
11658TIP3    H256390   4.383   0.966  11.180 -0.4233  0.3657 -0.7674
11659TIP3   OH256391   4.264   2.988  12.208 -0.7926 -0.5238  0.0181
11659TIP3    H156392   4.295   2.899  12.223 -1.3645 -0.6799  0.2792
11659TIP3    H256393   4.326   3.025  12.144  1.6998  0.1567  2.7301
11660TIP3   OH256394   2.173   0.630   3.841  0.2066  0.6918  0.2201
11660TIP3    H156395   2.181   0.557   3.902  0.0522 -0.3387 -0.9519
11660TIP3    H256396   2.120   0.595   3.769  0.1550  1.9503 -0.3697
11661TIP3   OH256397   6.296   1.093  16.339  0.2564  0.0093  0.1283
11661TIP3    H156398   6.319   1.186  16.338 -0.0591  0.0803 -0.3331
11661TIP3    H256399   6.380   1.048  16.329  0.3168  0.2578 -0.5188
11662TIP3   OH256400   5.741   4.968   6.231  0.0348  0.1059  0.0663
11662TIP3    H156401   5.774   4.911   6.301  1.1136  0.4971 -0.1283
11662TIP3    H256402   5.755   4.918   6.151 -1.3689 -0.4198  0.1202
11663TIP3   OH256403   3.475   2.045   1.959 -0.6632 -0.1825  0.8160
11663TIP3    H156404   3.540   2.088   1.903  0.5513 -1.6420  1.0622
11663TIP3    H256405   3.397   2.036   1.904 -0.8560  2.0926  0.6981
11664TIP3   OH256406   2.066   2.996  11.615  0.0260 -0.5490  0.3742
11664TIP3    H156407   2.054   2.902  11.622  0.8222 -0.7998 -1.4253
11664TIP3    H256408   2.120   3.008  11.537 -0.3996  1.4211  0.3510
11665TIP3   OH256409   5.789   4.941  13.435 -0.3463  0.2698 -0.0058
11665TIP3    H156410   5.804   4.903  13.522 -0.0198 -0.2190 -0.2692
11665TIP3    H256411   5.870   4.923  13.387 -0.5339  0.5165 -0.4146
11666TIP3   OH256412   3.664   2.527  14.758 -0.2527  0.2464  0.1467
11666TIP3    H156413   3.706   2.519  14.673 -1.9455  1.4568 -0.8485
11666TIP3    H256414   3.731   2.566  14.814  0.6452  0.1149 -0.8170
11667TIP3   OH256415   4.046   0.767  14.162 -0.2537 -0.3002 -0.0402
11667TIP3    H156416   4.068   0.859  14.150  0.4502 -0.5845 -0.9582
11667TIP3    H256417   4.092   0.742  14.242  0.1928 -0.0697 -0.2263
11668TIP3   OH256418   4.052   5.694   2.698 -0.0270  0.3714  0.2540
11668TIP3    H156419   4.089   5.676   2.784 -0.8828 -0.1679  0.5176
11668TIP3    H256420   3.972   5.743   2.715  0.0618  0.7073 -0.2626
11669TIP3   OH256421   4.245   3.065  13.796  0.3371  0.2810  0.5599
11669TIP3    H156422   4.259   2.990  13.853  2.7037  1.1329  1.1717
11669TIP3    H256423   4.198   3.128  13.850  0.4303  0.1452  0.8004
11670TIP3   OH256424   3.712   3.598  12.558  0.0415  0.0977  0.4507
11670TIP3    H156425   3.744   3.597  12.648 -0.4627  0.4704  0.6359
11670TIP3    H256426   3.767   3.534  12.513  2.2739  2.0520  0.3262
11671TIP3   OH256427   2.695   3.468  10.991  0.2722 -0.5599 -0.0454
11671TIP3    H156428   2.689   3.372  10.989  0.0581 -0.5582  0.5185
11671TIP3    H256429   2.632   3.497  10.925 -1.7733 -0.7214  1.8014
11672TIP3   OH256430   4.955   4.072  15.810  0.0846  0.0644  0.3825
11672TIP3    H156431   4.924   4.131  15.741  1.0270  0.7726  0.5609
11672TIP3    H256432   5.045   4.099  15.826 -0.3007  0.3067  2.3197
11673TIP3   OH256433   1.846   6.772  10.752 -0.3383  0.3818  0.7446
11673TIP3    H156434   1.863   6.774  10.658  2.8077 -0.5428  1.2456
11673TIP3    H256435   1.806   6.857  10.771 -1.0822  0.5512 -1.3998
11674TIP3   OH256436   4.935   5.108   4.041  0.6074 -0.3026  0.0771
11674TIP3    H156437   4.910   5.199   4.058 -0.6459 -0.6775  0.2804
11674TIP3    H256438   4.912   5.062   4.122  0.8075 -0.8877 -0.1967
11675TIP3   OH256439   2.279   5.673  14.677  0.1567 -0.3242  0.4232
11675TIP3    H156440   2.340   5.645  14.609 -0.4227  1.0690 -0.6732
11675TIP3    H256441   2.285   5.604  14.743  1.2852 -1.3087 -0.6748
11676TIP3   OH256442   3.036   6.247   2.514 -0.2331  0.3561  0.5031
11676TIP3    H156443   3.107   6.184   2.505  2.0972  3.2792 -2.8740
11676TIP3    H256444   2.972   6.221   2.447 -0.3685  0.2485  0.6729
11677TIP3   OH256445   5.356   4.222   1.213 -0.2396 -0.1491 -0.2101
11677TIP3    H156446   5.439   4.253   1.249 -0.6617  0.4350  0.2753
11677TIP3    H256447   5.338   4.140   1.259 -0.6333  0.4479  0.6935
11678TIP3   OH256448   0.488   1.978  10.659 -0.5056  0.4748 -0.1837
11678TIP3    H156449   0.563   1.935  10.699 -0.1818  1.9689  0.8832
11678TIP3    H256450   0.526   2.046  10.602 -1.0131 -0.1602 -1.3105
11679TIP3   OH256451   1.015   5.071  16.299 -0.4779 -0.1009  0.7413
11679TIP3    H156452   0.939   5.050  16.352  1.0810 -2.7304  2.0385
11679TIP3    H256453   1.004   5.019  16.219  0.5723 -1.5400  1.5064
11680TIP3   OH256454   0.922   6.706   2.742 -0.2569  0.0937 -0.1295
11680TIP3    H156455   0.973   6.627   2.756 -1.5042 -1.5099 -3.9720
11680TIP3    H256456   0.904   6.739   2.830  2.5424 -2.3843  1.4573
11681TIP3   OH256457   0.294   3.212  17.074 -0.2154 -0.0822  0.0383
11681TIP3    H156458   0.266   3.121  17.058  0.0705 -0.1409 -0.1305
11681TIP3    H256459   0.249   3.237  17.155  2.3518 -1.4963  1.9388
11682TIP3   OH256460   2.939   3.360  14.035  0.1925  0.3972  0.9886
11682TIP3    H156461   2.880   3.432  14.009  1.7936  1.0287 -0.9783
11682TIP3    H256462   3.025   3.401  14.039  1.1555 -1.4674 -0.3656
11683TIP3   OH256463   3.770   0.231  13.622 -0.0473  0.0979 -0.3244
11683TIP3    H156464   3.797   0.141  13.605  1.3740  0.6413 -1.0375
11683TIP3    H256465   3.835   0.284  13.577 -1.3650  1.4783 -0.6435
11684TIP3   OH256466   1.574   0.298  12.358  0.2004 -0.0190  0.2614
11684TIP3    H156467   1.545   0.245  12.432 -0.1031 -1.1483 -0.6390
11684TIP3    H256468   1.564   0.240  12.282 -1.9342  1.9640 -1.0171
11685TIP3   OH256469   6.453   5.258   2.619 -0.1125 -0.2531 -0.7593
11685TIP3    H156470   6.418   5.180   2.661 -0.5172 -0.4778 -1.4944
11685TIP3    H256471   6.470   5.319   2.691 -0.4566 -0.7583 -0.2476
11686TIP3   OH256472   2.483   1.807  14.995 -0.1506  0.5719 -0.4626
11686TIP3    H156473   2.557   1.771  15.045 -1.4746 -0.4235  0.8227
11686TIP3    H256474   2.416   1.825  15.061 -2.0156 -0.9551 -1.8822
11687TIP3   OH256475   5.959   3.225  16.361 -0.1103  0.1564  0.0654
11687TIP3    H156476   6.041   3.177  16.377  0.8726  1.4837 -0.8769
11687TIP3    H256477   5.928   3.249  16.448  0.7182  0.0096  0.4058
11688TIP3   OH256478   1.149   2.213  15.674 -0.2365  0.0322 -0.2988
11688TIP3    H156479   1.237   2.226  15.639  0.8506 -1.5861  1.7565
11688TIP3    H256480   1.146   2.121  15.700 -2.4274  0.1526 -0.0236
11689TIP3   OH256481   2.003   3.367  14.103  0.0246  0.0264  0.2914
11689TIP3    H156482   2.047   3.332  14.180  1.7666  0.3596 -0.5444
11689TIP3    H256483   2.059   3.343  14.029 -0.1754  2.1368 -0.5771
11690TIP3   OH256484   1.256   1.865  16.216 -0.0061 -0.1925 -0.1304
11690TIP3    H156485   1.328   1.812  16.182  1.5088  2.3768 -1.0758
11690TIP3    H256486   1.246   1.835  16.307  1.3763 -1.4756 -0.3710
11691TIP3   OH256487   3.482   2.657  13.981  0.6063 -0.2446  0.4806
11691TIP3    H156488   3.551   2.601  14.016  1.8545  1.0483  0.1386
11691TIP3    H256489   3.528   2.722  13.928 -0.6855  1.9063  1.9098
11692TIP3   OH256490   6.318   4.279  14.529 -0.2880 -0.2260  0.2518
11692TIP3    H156491   6.371   4.346  14.573  1.0207  0.9113 -2.9157
11692TIP3    H256492   6.229   4.314  14.533 -0.1175  0.1038  1.5074
11693TIP3   OH256493   3.145   4.331  11.484 -0.4185 -0.1587  0.4444
11693TIP3    H156494   3.075   4.266  11.486 -0.0690 -0.5137  1.2508
11693TIP3    H256495   3.128   4.386  11.561  0.2583 -0.3308  0.7177
11694TIP3   OH256496   5.505   3.868  11.625  0.2311  0.2456 -0.8118
11694TIP3    H156497   5.542   3.827  11.703  1.8259  1.4308 -0.9264
11694TIP3    H256498   5.440   3.930  11.658 -0.7135 -0.8681 -0.5474
11695TIP3   OH256499   0.853   6.646  14.807  0.2466 -0.3167  0.3478
11695TIP3    H156500   0.848   6.728  14.855 -1.2761  0.5030 -1.1676
11695TIP3    H256501   0.781   6.650  14.745  1.4647 -1.8535 -1.2269
11696TIP3   OH256502   2.852   4.723  14.657  0.3269 -0.1527  0.1392
11696TIP3    H156503   2.797   4.799  14.673  0.9240  0.5016 -0.8123
11696TIP3    H256504   2.794   4.659  14.615  0.6131  1.0932 -2.2342
11697TIP3   OH256505   3.612   0.183   2.232  0.3884 -0.0279 -0.5598
11697TIP3    H156506   3.575   0.264   2.268 -0.8845 -0.7008 -0.3139
11697TIP3    H256507   3.693   0.210   2.188  0.9402  1.1055  1.1062
11698TIP3   OH256508   4.017   1.873  11.748 -0.0737 -0.0674 -0.2252
11698TIP3    H156509   3.962   1.895  11.823 -0.8734 -1.4299 -0.3970
11698TIP3    H256510   3.989   1.932  11.679 -0.0191  0.5206  0.2529
11699TIP3   OH256511   1.264   4.305   0.541  0.2096  0.0194  0.2278
11699TIP3    H156512   1.182   4.255   0.545  0.1759 -0.0065 -0.8427
11699TIP3    H256513   1.320   4.262   0.606  0.0349 -1.1677 -0.3834
11700TIP3   OH256514   0.070   0.547   3.454 -0.7487  0.3424  0.1898
11700TIP3    H156515   0.039   0.485   3.388 -1.3538  1.2565 -0.3925
11700TIP3    H256516   0.023   0.628   3.435  0.3295  1.0999  0.6940
11701TIP3   OH256517   0.394   3.138   0.380 -0.2285 -0.0125  0.4072
11701TIP3    H156518   0.314   3.087   0.373 -0.9723  0.7442  2.8747
11701TIP3    H256519   0.378   3.216   0.327 -0.4755 -0.6201 -0.4187
11702TIP3   OH256520   1.330   5.503   2.620 -0.1744 -0.1371 -0.1903
11702TIP3    H156521   1.343   5.492   2.714 -1.8469  2.1805  0.3633
11702TIP3    H256522   1.418   5.518   2.585  0.4261 -0.8110  1.0106
11703TIP3   OH256523   4.773   1.128   2.953 -0.5768 -0.0302  0.5771
11703TIP3    H156524   4.714   1.116   3.027 -0.1284 -0.4654  0.8651
11703TIP3    H256525   4.741   1.208   2.910 -0.8950  0.1744  1.1827
11704TIP3   OH256526   0.519   3.367  16.943  0.4759  0.3497  0.3211
11704TIP3    H156527   0.510   3.351  16.849 -0.0430 -0.0422  0.4395
11704TIP3    H256528   0.440   3.330  16.982  0.3647  1.1194  0.8453
11705TIP3   OH256529   6.099   1.306  14.317 -0.3280  0.3271 -0.0450
11705TIP3    H156530   6.018   1.308  14.368  0.2999 -1.5478  1.0708
11705TIP3    H256531   6.080   1.246  14.246 -0.2952  0.8194 -0.4726
11706TIP3   OH256532   2.719   6.356   5.421 -0.6303 -0.5436 -0.1172
11706TIP3    H156533   2.735   6.450   5.417 -1.1113 -0.4274  0.6620
11706TIP3    H256534   2.625   6.347   5.413 -0.6900 -0.8872  0.8599
11707TIP3   OH256535   0.088   3.757  15.204 -0.0720 -0.1746 -0.4190
11707TIP3    H156536   0.077   3.817  15.130 -2.6190  0.7825  0.6861
11707TIP3    H256537   0.046   3.801  15.278  0.1562 -2.2509  0.9979
11708TIP3   OH256538   5.221   5.875  12.605 -0.4447 -0.8873  0.0754
11708TIP3    H156539   5.279   5.922  12.545  1.0778 -0.6555  1.6648
11708TIP3    H256540   5.165   5.822  12.549 -0.0157  0.4087 -1.6004
11709TIP3   OH256541   2.413   6.544  16.241 -0.0684 -0.4026 -1.0464
11709TIP3    H156542   2.491   6.562  16.293  0.6766  0.6069 -2.4718
11709TIP3    H256543   2.442   6.552  16.150 -1.5081 -1.4293 -1.6133
11710TIP3   OH256544   3.903   0.745   0.627 -0.0348  0.4028 -0.4983
11710TIP3    H156545   3.837   0.684   0.594  0.5035  0.3601 -1.5357
11710TIP3    H256546   3.863   0.786   0.703 -0.9255 -0.2497 -0.6148
11711TIP3   OH256547   3.064   0.967   6.152 -0.0919  0.2407 -0.1612
11711TIP3    H156548   3.111   0.946   6.233 -0.3755  0.2461  0.0052
11711TIP3    H256549   3.018   1.048   6.172 -0.3413  0.1228 -0.2589
11712TIP3   OH256550   2.416   2.915  11.993 -0.5511 -0.1488  0.4525
11712TIP3    H156551   2.331   2.954  11.971 -2.2393 -4.0130 -0.3739
11712TIP3    H256552   2.393   2.836  12.043  2.6040 -0.9743  0.6757
11713TIP3   OH256553   1.544   4.915   5.928 -0.9083  0.0372 -0.5311
11713TIP3    H156554   1.491   4.836   5.916 -1.0967 -0.2475  2.0112
11713TIP3    H256555   1.481   4.987   5.920 -0.7909 -0.0592 -2.5277
11714TIP3   OH256556   4.312   5.987   0.519 -0.2221 -0.0204  0.1577
11714TIP3    H156557   4.270   6.065   0.482  1.1623  0.4128 -0.5276
11714TIP3    H256558   4.307   5.922   0.449 -0.2785 -0.1490  0.2821
11715TIP3   OH256559   3.977   6.082  16.974 -0.3128 -0.1691  0.1994
11715TIP3    H156560   3.968   6.172  16.945 -1.9573 -0.3875 -0.0416
11715TIP3    H256561   3.896   6.064  17.022  0.0926 -1.4360  0.4328
11716TIP3   OH256562   5.767   2.404  12.951  0.3284 -0.2176  0.7731
11716TIP3    H156563   5.826   2.348  12.900  2.3408  0.4644  2.2913
11716TIP3    H256564   5.822   2.477  12.980 -0.2699 -1.4514  5.4070
11717TIP3   OH256565   2.276   1.806  15.166  0.1117  0.1679  0.3890
11717TIP3    H156566   2.249   1.878  15.223  1.5008  0.3664  0.8120
11717TIP3    H256567   2.310   1.740  15.227  0.0241 -0.3174 -0.0917
11718TIP3   OH256568   0.720   1.593   1.120 -0.4242  0.1260  0.4528
11718TIP3    H156569   0.651   1.609   1.183  1.1950  0.9143  2.0746
11718TIP3    H256570   0.778   1.530   1.162  0.4710  0.3713 -0.3813
11719TIP3   OH256571   4.103   0.429  14.652 -0.1028  0.7101 -0.1801
11719TIP3    H156572   4.112   0.502  14.591 -0.4326 -0.7663 -2.0294
11719TIP3    H256573   4.128   0.352  14.602 -0.4220 -0.5604  1.5446
11720TIP3   OH256574   1.283   6.375  11.698  0.4246 -0.1827  0.7225
11720TIP3    H156575   1.233   6.418  11.768  0.6130 -0.7737  1.2199
11720TIP3    H256576   1.369   6.417  11.702  0.0591  0.6597  0.0302
11721TIP3   OH256577   3.976   2.051  17.108 -0.2470 -0.0515 -0.2886
11721TIP3    H156578   3.936   1.965  17.121 -0.7748  0.4597  1.5873
11721TIP3    H256579   4.015   2.072  17.193  1.6433  0.6763 -1.3012
11722TIP3   OH256580   4.568   0.816  13.402 -0.5413 -0.1930  0.4005
11722TIP3    H156581   4.499   0.879  13.386 -0.6797 -0.1412  1.1861
11722TIP3    H256582   4.649   0.867  13.399 -0.5894 -0.1259  0.2333
11723TIP3   OH256583   3.407   2.230  12.527 -0.2712 -0.3073  0.0530
11723TIP3    H156584   3.398   2.252  12.435 -1.4081 -1.2903 -0.0782
11723TIP3    H256585   3.478   2.165  12.530  0.8961  0.9335  0.0811
11724TIP3   OH256586   0.982   0.162  16.653  0.6412  0.2130  0.1467
11724TIP3    H156587   0.890   0.138  16.647  0.3078  1.8821 -1.7008
11724TIP3    H256588   1.027   0.079  16.667 -0.8972 -0.9829 -1.7247
11725TIP3   OH256589   0.712   1.079   5.166  0.0346 -0.3166  0.0785
11725TIP3    H156590   0.741   1.166   5.136 -0.3441 -0.7502 -1.6122
11725TIP3    H256591   0.620   1.091   5.187  0.0548 -0.2471  0.1307
11726TIP3   OH256592   3.825   4.334   2.498  0.0565 -0.3825 -0.1827
11726TIP3    H156593   3.823   4.429   2.485 -0.2269 -0.1363  1.5983
11726TIP3    H256594   3.752   4.316   2.558  1.5951 -1.4354  1.3948
11727TIP3   OH256595   5.810   4.865   5.447 -0.1023 -0.1171 -0.0795
11727TIP3    H156596   5.761   4.789   5.418 -1.8523  0.4342  1.3046
11727TIP3    H256597   5.797   4.930   5.378 -1.2163 -0.0280  0.2061
11728TIP3   OH256598   6.624   3.988  16.292  0.4996  0.5015  0.1097
11728TIP3    H156599   6.568   4.038  16.352 -0.7730 -0.6960 -0.0653
11728TIP3    H256600   6.592   4.013  16.205  0.7029  0.3507 -0.0051
11729TIP3   OH256601   5.315   1.324  11.326 -0.5576 -0.3885 -0.1535
11729TIP3    H156602   5.292   1.255  11.388 -0.1805  0.5190  1.0151
11729TIP3    H256603   5.263   1.304  11.247 -2.0180 -0.8344  0.9004
11730TIP3   OH256604   6.698   6.119  16.819  0.1185 -0.4799  1.1105
11730TIP3    H156605   6.691   6.076  16.734  1.0383 -1.8301  1.6904
11730TIP3    H256606   6.609   6.144  16.842  0.1850  2.3210 -1.4498
11731TIP3   OH256607   1.189   0.051   0.417  0.1410 -0.2870 -0.0760
11731TIP3    H156608   1.213   0.068   0.326 -1.9999 -2.0883 -1.0400
11731TIP3    H256609   1.238   0.115   0.467  1.6655  0.5012 -2.4663
11732TIP3   OH256610   4.604   4.130   2.112 -0.1305 -0.1143 -0.0867
11732TIP3    H156611   4.579   4.221   2.092 -0.5236 -0.3355 -0.6095
11732TIP3    H256612   4.524   4.080   2.100  0.1402 -0.5662 -0.0023
11733TIP3   OH256613   2.128   1.252  12.637 -0.2020 -0.3410  0.3066
11733TIP3    H156614   2.154   1.190  12.705  1.1151 -2.4115 -2.0194
11733TIP3    H256615   2.180   1.227  12.560 -1.9931  1.6246 -1.6155
11734TIP3   OH256616   2.491   0.851  13.524 -0.5667  0.8852 -0.5645
11734TIP3    H156617   2.548   0.779  13.498  0.1388  1.1647  0.2098
11734TIP3    H256618   2.534   0.930  13.491 -0.6250  1.0768 -0.1868
11735TIP3   OH256619   3.578   4.830  11.682  0.2205 -0.2313 -0.2260
11735TIP3    H156620   3.671   4.827  11.657  0.4126 -1.3228  0.5694
11735TIP3    H256621   3.578   4.814  11.776 -0.7056  0.9777 -0.0122
11736TIP3   OH256622   6.194   0.986   1.280 -0.5327 -0.1481  0.0212
11736TIP3    H156623   6.194   1.070   1.233 -2.3070 -0.2877 -0.2671
11736TIP3    H256624   6.283   0.978   1.315  0.0876  1.1455 -1.2072
11737TIP3   OH256625   0.622   5.165  15.712  0.0370  0.0639 -0.2123
11737TIP3    H156626   0.561   5.223  15.667  0.9651  0.3648 -1.1113
11737TIP3    H256627   0.620   5.084  15.661  0.8599  0.2972 -0.6227
11738TIP3   OH256628   5.137   0.267   0.854  0.3470  0.2735  0.7844
11738TIP3    H156629   5.106   0.351   0.821 -0.7326 -0.3718  0.1397
11738TIP3    H256630   5.214   0.289   0.906 -0.0871  1.6944  0.8476
11739TIP3   OH256631   5.548   2.069   6.002  0.6029  0.4901 -0.3051
11739TIP3    H156632   5.634   2.105   6.023  0.5988  1.3221 -1.6906
11739TIP3    H256633   5.489   2.109   6.067  0.8895  1.6209 -0.7378
11740TIP3   OH256634   0.679   5.595  13.829 -0.3214 -0.3020 -0.0712
11740TIP3    H156635   0.728   5.529  13.781  3.1478  0.6281  2.0339
11740TIP3    H256636   0.713   5.679  13.798 -0.5127  0.3678  1.4580
11741TIP3   OH256637   3.328   2.607   0.060  0.5781 -0.2073 -1.0501
11741TIP3    H156638   3.306   2.698   0.081  0.0361 -0.1278 -1.9655
11741TIP3    H256639   3.300   2.558   0.138  0.6695  0.3757 -0.6428
11742TIP3   OH256640   1.083   5.743  11.404 -0.2324  0.2703 -0.4947
11742TIP3    H156641   1.111   5.722  11.315 -0.8193 -0.0170 -0.6117
11742TIP3    H256642   1.163   5.737  11.456 -0.2845 -1.6836 -0.6212
11743TIP3   OH256643   3.811   6.245   1.998  0.1521 -0.6634  0.5814
11743TIP3    H156644   3.730   6.196   2.012  1.5459 -3.3478 -0.3567
11743TIP3    H256645   3.879   6.189   2.034  1.6507  1.4588  1.1263
11744TIP3   OH256646   2.421   3.547   4.579  0.2173  0.7927 -0.3668
11744TIP3    H156647   2.459   3.462   4.557 -1.7555 -0.5945  1.4126
11744TIP3    H256648   2.465   3.572   4.660 -0.7560  0.4219  0.2822
11745TIP3   OH256649   2.357   1.789   5.688  0.7116 -0.4490  0.0866
11745TIP3    H156650   2.401   1.804   5.772  0.3486  0.7559  0.0669
11745TIP3    H256651   2.426   1.759   5.630  0.7171 -2.6349  1.1719
11746TIP3   OH256652   2.187   5.209  17.210 -0.5111 -0.1899 -0.2765
11746TIP3    H156653   2.133   5.263  17.268  0.6906  0.7299  0.0133
11746TIP3    H256654   2.265   5.189  17.262  0.2897  0.1096 -1.3457
11747TIP3   OH256655   0.537   0.895  16.132 -0.2092  0.0795 -0.1301
11747TIP3    H156656   0.475   0.952  16.177  0.6890 -0.3556  1.6989
11747TIP3    H256657   0.597   0.955  16.087  0.4505  0.5985  1.4074
11748TIP3   OH256658   1.173   0.254  16.379  0.0440  0.0443 -0.2166
11748TIP3    H156659   1.091   0.277  16.338  0.2387 -1.4054 -1.4590
11748TIP3    H256660   1.240   0.284  16.318  0.3811 -0.2698 -0.0066
11749TIP3   OH256661   0.566   5.164   3.987  0.4044 -0.4924  0.3566
11749TIP3    H156662   0.539   5.247   4.026 -0.4912 -0.2428 -0.7488
11749TIP3    H256663   0.530   5.097   4.045 -0.2216 -0.1186  0.4049
11750TIP3   OH256664   1.883   4.270  13.729 -0.6293  0.0977 -0.0402
11750TIP3    H156665   1.945   4.222  13.785 -1.0565 -1.3472 -0.7695
11750TIP3    H256666   1.806   4.282  13.784 -1.0604 -1.3463 -0.3146
11751TIP3   OH256667   6.777   5.399   3.935  0.1960 -0.1618 -0.5866
11751TIP3    H156668   6.747   5.485   3.966  1.2647  0.4936 -1.3444
11751TIP3    H256669   6.719   5.337   3.978 -1.0725  0.9837 -0.6064
11752TIP3   OH256670   2.354   5.774   2.951 -0.2888 -0.3719  0.0484
11752TIP3    H156671   2.382   5.763   2.860 -2.1605 -1.2478 -0.4533
11752TIP3    H256672   2.410   5.844   2.985  0.8821 -0.4812 -1.5688
11753TIP3   OH256673   3.138   5.857   4.204 -0.0875  0.2892  0.4813
11753TIP3    H156674   3.215   5.799   4.204  0.0351  0.4410 -0.2648
11753TIP3    H256675   3.066   5.801   4.231  0.3452  0.2310  1.5375
11754TIP3   OH256676   3.678   5.733  16.223 -0.0266 -0.2345 -0.3018
11754TIP3    H156677   3.611   5.787  16.263  1.1463 -0.0584  1.5023
11754TIP3    H256678   3.753   5.741  16.282  0.4122 -3.2370 -0.3818
11755TIP3   OH256679   2.001   4.801   0.091  0.6450 -0.3745  0.5032
11755TIP3    H156680   2.041   4.847   0.018  0.8947 -0.3412  0.6599
11755TIP3    H256681   2.029   4.710   0.081  0.7425 -0.3554  0.6004
11756TIP3   OH256682   5.738   2.883  12.873 -0.1120  1.1218  0.2435
11756TIP3    H156683   5.663   2.939  12.891 -0.4098  0.7458  0.1771
11756TIP3    H256684   5.722   2.848  12.786  0.5851  1.7459 -0.1469
11757TIP3   OH256685   3.468   3.052  16.678 -0.0546  0.2886  0.2018
11757TIP3    H156686   3.492   3.027  16.767  1.8445  1.1187 -0.0528
11757TIP3    H256687   3.429   2.973  16.640  1.3535 -0.7929  0.9747
11758TIP3   OH256688   5.894   4.560  16.672 -0.1826 -0.1246  0.5045
11758TIP3    H156689   5.800   4.539  16.677 -0.2977  0.5576  1.2286
11758TIP3    H256690   5.915   4.597  16.757  0.2819  1.6955 -0.3835
11759TIP3   OH256691   5.120   2.059  13.803 -0.9096  0.7105  0.0235
11759TIP3    H156692   5.103   1.981  13.751  0.5806  0.9959 -0.9254
11759TIP3    H256693   5.102   2.033  13.893  3.2081 -1.8828  0.2069
11760TIP3   OH256694   4.928   0.759   4.383  0.0467 -0.4682 -0.0487
11760TIP3    H156695   5.016   0.721   4.387  0.3714  0.1876 -0.6219
11760TIP3    H256696   4.943   0.854   4.382 -0.7110 -0.3350  0.6941
11761TIP3   OH256697   6.138   0.274  17.080  0.1122 -0.0395 -0.3754
11761TIP3    H156698   6.232   0.276  17.063  0.3570  0.3322  0.9940
11761TIP3    H256699   6.114   0.182  17.069  1.0716 -0.5453  1.5297
11762TIP3   OH256700   5.781   2.107   5.408 -0.2295 -0.4216 -0.1237
11762TIP3    H156701   5.705   2.061   5.373  0.5258 -2.2394  0.5645
11762TIP3    H256702   5.748   2.193   5.434 -1.5280 -0.2936 -2.0774
11763TIP3   OH256703   0.091   2.484  15.236  0.5500 -0.0193 -0.1308
11763TIP3    H156704   0.124   2.440  15.157  1.5245  0.1178  0.1927
11763TIP3    H256705   0.170   2.514  15.281 -0.0326  0.4269  0.5965
11764TIP3   OH256706   0.299   2.697  14.462 -0.0656 -0.4866 -0.4561
11764TIP3    H156707   0.262   2.673  14.547 -0.0892  0.0395 -0.3166
11764TIP3    H256708   0.235   2.665  14.398 -0.3519 -0.3300 -0.2503
11765TIP3   OH256709   4.876   1.422  14.307 -0.1237  0.4986 -0.1299
11765TIP3    H156710   4.935   1.390  14.239 -0.5887 -2.2618  0.6918
11765TIP3    H256711   4.792   1.432  14.262 -0.1709 -0.2872 -0.2316
11766TIP3   OH256712   5.571   1.160   5.628 -0.2395  0.0253  0.1766
11766TIP3    H156713   5.657   1.124   5.648 -0.8847 -1.3174  0.5476
11766TIP3    H256714   5.584   1.255   5.632  1.4325 -0.1387 -0.6769
11767TIP3   OH256715   6.590   2.260  11.889 -0.1472  0.1556 -0.6383
11767TIP3    H156716   6.607   2.216  11.971  1.8009 -1.0162 -1.6367
11767TIP3    H256717   6.504   2.229  11.862 -0.2827 -0.3569  0.3855
11768TIP3   OH256718   2.288   5.498   0.330  0.4152  0.0488 -0.3844
11768TIP3    H156719   2.209   5.551   0.313  0.5228  0.7936  1.2874
11768TIP3    H256720   2.254   5.413   0.357  0.0924  0.9788  2.3085
11769TIP3   OH256721   5.493   2.495   6.228  0.2329 -0.1633  0.2483
11769TIP3    H156722   5.432   2.443   6.281 -0.0076  0.8729  0.9921
11769TIP3    H256723   5.549   2.429   6.185 -0.2261 -1.0456  0.9791
11770TIP3   OH256724   3.660   1.914   3.136  0.0757 -0.4501  0.6733
11770TIP3    H156725   3.638   2.006   3.122  2.0640 -0.2447 -1.4391
11770TIP3    H256726   3.639   1.898   3.228 -1.7473  1.6776  0.6729
11771TIP3   OH256727   5.946   0.737  15.255 -0.1453 -0.7512 -0.3688
11771TIP3    H156728   5.940   0.818  15.204  1.7394 -0.9377 -0.8969
11771TIP3    H256729   5.862   0.731  15.300 -0.1704  1.6523 -0.0827
11772TIP3   OH256730   1.166   6.063  14.086  0.6677 -0.1675  0.4432
11772TIP3    H156731   1.085   6.068  14.136 -1.0532  0.3041 -2.3247
11772TIP3    H256732   1.170   5.973  14.053  0.1469  0.3855 -1.1919
11773TIP3   OH256733   4.173   3.659   3.408  0.3482  0.2173 -0.1922
11773TIP3    H156734   4.250   3.630   3.455  0.8942 -1.0336 -1.8333
11773TIP3    H256735   4.204   3.731   3.353  0.4027 -0.4706 -1.0605
11774TIP3   OH256736   1.463   1.445   1.945  0.4754  0.5949  0.1073
11774TIP3    H156737   1.524   1.372   1.956 -2.0661 -1.7337 -0.7424
11774TIP3    H256738   1.455   1.455   1.850 -0.3329  0.9842  0.2112
11775TIP3   OH256739   1.465   0.883  15.986 -0.0033 -0.0144 -0.7369
11775TIP3    H156740   1.428   0.927  15.910 -0.2690 -0.4195 -0.8429
11775TIP3    H256741   1.554   0.858  15.958  0.7203  1.8268 -0.1509
11776TIP3   OH256742   6.553   3.434   5.060 -0.3816 -0.1449  0.2964
11776TIP3    H156743   6.514   3.346   5.056 -1.5998  0.4118 -0.2155
11776TIP3    H256744   6.549   3.466   4.970  2.3963 -0.5387 -0.0082
11777TIP3   OH256745   4.553   6.760   4.519 -0.3573 -0.3860  0.2731
11777TIP3    H156746   4.598   6.751   4.603  1.0902  0.1333 -0.4282
11777TIP3    H256747   4.521   6.671   4.499  0.8191 -0.8741  0.5358
11778TIP3   OH256748   1.205   6.265   0.003 -0.1098 -0.3383  0.2222
11778TIP3    H156749   1.233   6.355  -0.011 -1.8109  0.2692  0.6793
11778TIP3    H256750   1.233   6.218  -0.076  1.5375  0.3925  0.3576
11779TIP3   OH256751   3.295   0.325   1.816  0.3704 -0.3189  0.3238
11779TIP3    H156752   3.382   0.323   1.855  0.4859  2.3343  0.3006
11779TIP3    H256753   3.277   0.418   1.802 -2.5984 -0.8031  0.6205
11780TIP3   OH256754   1.774   2.396  14.224  0.0377  0.5070  0.8064
11780TIP3    H156755   1.698   2.362  14.271 -0.2533  0.7646  0.5258
11780TIP3    H256756   1.847   2.340  14.251 -0.1416  0.6088  1.5050
11781TIP3   OH256757   1.631   2.780   3.283 -0.8659 -0.1663  0.2475
11781TIP3    H156758   1.704   2.817   3.233 -0.0973  0.2971  1.6807
11781TIP3    H256759   1.554   2.825   3.249 -0.5378 -1.0000 -1.6036
11782TIP3   OH256760   5.827   3.096  11.176 -0.1972 -0.3479  0.2316
11782TIP3    H156761   5.839   3.009  11.214 -2.3197 -1.0571 -0.6044
11782TIP3    H256762   5.835   3.083  11.082 -0.6083  0.3317  0.0909
11783TIP3   OH256763   5.361   2.149   4.650  0.6613 -0.5512  0.6862
11783TIP3    H156764   5.293   2.190   4.705 -1.2986 -2.9832  0.1687
11783TIP3    H256765   5.392   2.221   4.594 -3.6159  0.0853 -1.1160
11784TIP3   OH256766   0.713   5.854  16.265  0.3654  0.1256  0.0312
11784TIP3    H156767   0.764   5.934  16.275 -1.3125  1.1949  0.3496
11784TIP3    H256768   0.771   5.793  16.219  0.9357  2.2625 -2.1809
11785TIP3   OH256769   1.808   5.376   4.588  0.4735 -0.2955 -0.0795
11785TIP3    H156770   1.804   5.287   4.624  0.1464 -0.0708  0.4465
11785TIP3    H256771   1.860   5.425   4.651  0.2038  0.0150 -0.0985
11786TIP3   OH256772   0.599   2.353  15.664 -0.1651  0.2966  0.1229
11786TIP3    H156773   0.676   2.318  15.709 -0.0721  1.5790  1.0083
11786TIP3    H256774   0.633   2.426  15.612 -0.2242 -1.3526 -2.2966
11787TIP3   OH256775   5.244   4.067   4.086  0.2011  0.4010  0.0821
11787TIP3    H156776   5.234   4.065   4.182  0.3241 -0.7808  0.0673
11787TIP3    H256777   5.318   4.009   4.069  0.2190  0.6638 -0.7331
11788TIP3   OH256778   4.525   5.795   5.056  0.0174  0.5324 -0.1873
11788TIP3    H156779   4.449   5.838   5.018  1.0513  1.6839 -0.9808
11788TIP3    H256780   4.488   5.733   5.119 -1.5954  0.5221 -1.1142
11789TIP3   OH256781   0.408   0.180   3.467 -0.3133 -0.1138  0.6737
11789TIP3    H156782   0.383   0.120   3.538 -1.7836  2.0752  2.0348
11789TIP3    H256783   0.325   0.207   3.428  0.3193  1.3193  0.3149
11790TIP3   OH256784   5.971   0.334   2.982 -0.3350 -0.4216 -0.4624
11790TIP3    H156785   6.024   0.291   2.915 -0.2303  1.0210 -1.3205
11790TIP3    H256786   5.999   0.293   3.064 -1.9383 -3.6858 -1.4616
11791TIP3   OH256787   2.944   4.156   2.087  0.3210  0.3109 -0.1394
11791TIP3    H156788   3.013   4.100   2.121 -0.0755  0.7180  1.3816
11791TIP3    H256789   2.962   4.242   2.125 -1.0988  0.3887  0.3990
11792TIP3   OH256790   3.962   2.762  14.556 -0.1693 -0.3649  0.9526
11792TIP3    H156791   4.016   2.839  14.576  0.6731 -1.0121  1.1807
11792TIP3    H256792   4.023   2.700  14.518 -1.2758 -0.0860 -1.3460
11793TIP3   OH256793   3.673   0.453  14.786  0.2483  0.3691  0.1002
11793TIP3    H156794   3.626   0.381  14.830 -1.0332  1.0920 -0.0638
11793TIP3    H256795   3.633   0.459  14.700 -1.4501  2.9421  0.9929
11794TIP3   OH256796   4.792   1.620  11.706  0.0284  0.7166 -0.4719
11794TIP3    H156797   4.841   1.701  11.699  0.8346  0.2773  0.0633
11794TIP3    H256798   4.841   1.557  11.653 -0.1042  0.3434 -0.1502
11795TIP3   OH256799   1.931   1.100   3.784 -0.1534 -0.5815  0.0238
11795TIP3    H156800   1.840   1.129   3.779 -0.1158 -0.8719 -3.1636
11795TIP3    H256801   1.982   1.181   3.791 -0.5902 -0.3963  1.2479
11796TIP3   OH256802   3.061   3.814   0.765  0.2312  0.1060 -0.5328
11796TIP3    H156803   2.996   3.836   0.832  1.3321 -0.4766  0.7441
11796TIP3    H256804   3.026   3.735   0.723  0.9549 -1.2247  1.3294
11797TIP3   OH256805   0.417   4.648   0.327 -0.1534  0.1280  0.1772
11797TIP3    H156806   0.349   4.710   0.302 -1.6630 -1.2190  0.9080
11797TIP3    H256807   0.374   4.563   0.328  1.5511 -0.7611  0.5920
11798TIP3   OH256808   2.518   5.317   3.001 -0.3933  0.4463  0.5433
11798TIP3    H156809   2.448   5.301   2.937  1.4041  2.5020 -2.0768
11798TIP3    H256810   2.489   5.395   3.048 -0.7733  0.1435  0.8133
11799TIP3   OH256811   2.343   0.825  15.488 -0.0969 -0.4612 -0.6893
11799TIP3    H156812   2.387   0.900  15.529  0.1075  0.0107 -1.7492
11799TIP3    H256813   2.331   0.852  15.397 -0.9729 -1.3075 -0.8247
11800TIP3   OH256814   0.350   2.734  16.065 -0.0011  0.0425  0.4285
11800TIP3    H156815   0.374   2.752  16.156  0.6622 -0.0510  0.2766
11800TIP3    H256816   0.364   2.640  16.054 -0.9281 -0.1045  0.4759
11801TIP3   OH256817   3.382   3.285   0.071  0.1639 -0.2400 -0.2279
11801TIP3    H156818   3.300   3.247   0.102 -0.2741  0.7254 -0.2086
11801TIP3    H256819   3.363   3.318  -0.016  0.9241 -1.3157 -0.8185
11802TIP3   OH256820   4.308   0.726   5.552 -0.4890 -0.6110  0.1025
11802TIP3    H156821   4.389   0.772   5.528  0.2173 -1.6808  0.4356
11802TIP3    H256822   4.331   0.634   5.551 -1.4739 -0.8749  1.1044
11803TIP3   OH256823   3.357   5.881   5.950  0.0724 -0.3291  0.4090
11803TIP3    H156824   3.366   5.963   5.999 -2.0184 -0.5866  1.3001
11803TIP3    H256825   3.374   5.813   6.015 -0.2806 -0.6324  0.1807
11804TIP3   OH256826   0.043   3.171   2.001 -0.0475 -0.0014  0.3640
11804TIP3    H156827   0.019   3.148   1.911 -1.2441  2.1602  0.1039
11804TIP3    H256828  -0.037   3.156   2.051  0.1525  0.3312  0.7808
11805TIP3   OH256829   0.312   4.163  15.583  0.4328  0.5198  0.4873
11805TIP3    H156830   0.315   4.075  15.547  1.0436  0.9533 -0.5259
11805TIP3    H256831   0.267   4.153  15.667 -0.2477 -0.6155 -0.0099
11806TIP3   OH256832   1.214   3.004  14.155 -0.0378 -0.0584  0.6841
11806TIP3    H156833   1.273   2.968  14.221  1.0583 -0.1063 -0.2913
11806TIP3    H256834   1.166   3.073  14.200  2.3136  1.4370  0.9837
11807TIP3   OH256835   1.429   4.668   1.883 -0.0667 -0.6188  0.1203
11807TIP3    H156836   1.421   4.574   1.900 -0.7276 -0.3795  1.2118
11807TIP3    H256837   1.361   4.708   1.938  0.4848  0.5256 -0.0132
11808TIP3   OH256838   3.917   2.553   4.825  0.2055 -0.0665 -0.5480
11808TIP3    H156839   3.872   2.502   4.758  0.1137 -1.1224  0.3055
11808TIP3    H256840   3.847   2.591   4.878  0.2638  1.2555 -1.3814
11809TIP3   OH256841   0.352   6.739  12.300 -0.3533 -0.0565  0.1136
11809TIP3    H156842   0.430   6.793  12.290  0.4838 -1.0740  1.0185
11809TIP3    H256843   0.377   6.653  12.266 -1.3046 -0.1894 -0.2588
11810TIP3   OH256844   0.425   6.727   2.393  0.0293 -0.4252  0.2900
11810TIP3    H156845   0.417   6.710   2.299 -1.5303 -0.1673  0.3591
11810TIP3    H256846   0.397   6.818   2.404 -0.8091 -0.7774  1.1336
11811TIP3   OH256847   1.549   4.268   5.625  0.4603  0.5505 -0.0038
11811TIP3    H156848   1.643   4.260   5.637  0.4787 -0.3915 -0.6764
11811TIP3    H256849   1.515   4.180   5.640 -0.2916  0.8410  0.0384
11812TIP3   OH256850   2.152   6.318   4.882 -0.3385 -0.0079 -0.1689
11812TIP3    H156851   2.219   6.367   4.930 -2.8524  2.7008  0.7061
11812TIP3    H256852   2.088   6.292   4.949 -1.6566 -0.0176 -1.4042
11813TIP3   OH256853   4.112   3.906  12.685  0.3767  0.5351 -0.3112
11813TIP3    H156854   4.043   3.939  12.742  0.5312  1.2139 -0.5071
11813TIP3    H256855   4.143   3.826  12.728  0.7463  1.2354  0.7507
11814TIP3   OH256856   3.464   3.935  11.649  0.2360  0.3656 -0.1594
11814TIP3    H156857   3.474   3.950  11.743  0.1135 -1.6426  0.2006
11814TIP3    H256858   3.427   4.017  11.616  2.3790  1.9416  1.1475
11815TIP3   OH256859   2.537   5.976  15.221  0.0494  0.1118  0.2003
11815TIP3    H156860   2.542   5.981  15.316 -0.2478 -0.5375  0.2523
11815TIP3    H256861   2.565   6.063  15.191  0.5007  0.2015  0.8642
11816TIP3   OH256862   4.259   3.389   5.334 -0.1790 -0.0449  0.3030
11816TIP3    H156863   4.345   3.368   5.371  0.5595  3.0736  0.4961
11816TIP3    H256864   4.197   3.350   5.396  1.0714 -0.3455  1.3947
11817TIP3   OH256865   0.133   3.497  12.911  0.3230 -0.4429  0.0772
11817TIP3    H156866   0.190   3.468  12.840 -0.6696  0.4794 -1.1190
11817TIP3    H256867   0.192   3.508  12.986  1.8354  1.0061 -1.2638
11818TIP3   OH256868   5.527   1.206  12.238  0.3247 -0.8579  0.8489
11818TIP3    H156869   5.577   1.262  12.179 -0.2749 -0.5237  0.6523
11818TIP3    H256870   5.436   1.237  12.230  0.4129 -0.0341  2.8299
11819TIP3   OH256871   0.937   6.242   1.448  0.0959  0.2940  0.0408
11819TIP3    H156872   0.932   6.209   1.538 -0.8779  0.7691  0.1701
11819TIP3    H256873   0.848   6.234   1.415  0.0443  1.9114 -0.2355
11820TIP3   OH256874   4.342   0.529   2.575 -0.6931 -0.0272  0.2037
11820TIP3    H156875   4.326   0.477   2.655 -0.2042 -1.4376 -0.5994
11820TIP3    H256876   4.363   0.464   2.508  1.0235  1.2960 -0.5801
11821TIP3   OH256877   4.689   2.619   2.671 -0.4019 -0.0406 -0.1778
11821TIP3    H156878   4.778   2.631   2.704 -0.0311 -0.2700 -1.0723
11821TIP3    H256879   4.634   2.625   2.749  0.5519 -1.9823  0.6924
11822TIP3   OH256880   6.548   0.207   1.149  0.0996  0.2248 -0.0568
11822TIP3    H156881   6.572   0.115   1.136 -0.7115 -0.0896  0.6320
11822TIP3    H256882   6.464   0.216   1.104  0.5183  0.8092 -0.7248
11823TIP3   OH256883   2.723   1.003  13.129  0.3031 -0.6096  0.8210
11823TIP3    H156884   2.793   1.069  13.126 -0.4498  0.1833  0.4857
11823TIP3    H256885   2.668   1.024  13.054  0.9019 -2.5812 -0.2016
11824TIP3   OH256886   4.853   6.055  12.763  0.2369 -0.0176 -0.1496
11824TIP3    H156887   4.786   6.058  12.694  1.4551  0.0995 -1.3500
11824TIP3    H256888   4.914   6.125  12.740  0.8983 -0.2852  0.7986
11825TIP3   OH256889   1.002   2.678  16.761  0.3402  0.2407  0.1846
11825TIP3    H156890   0.950   2.661  16.683  2.0360 -1.3771 -0.6179
11825TIP3    H256891   1.035   2.767  16.749 -0.8247  0.6391 -0.1109
11826TIP3   OH256892   1.176   4.895  12.012 -0.3714  0.6738  0.9064
11826TIP3    H156893   1.111   4.858  12.072 -0.5478 -0.8858 -0.2237
11826TIP3    H256894   1.216   4.820  11.969 -1.2942  1.7800 -2.0397
11827TIP3   OH256895   0.757   0.810  13.437 -0.5013 -0.1342 -0.7279
11827TIP3    H156896   0.813   0.850  13.503 -1.8413 -1.0782  1.0285
11827TIP3    H256897   0.762   0.716  13.455  0.7192 -0.6040 -3.2826
11828TIP3   OH256898   4.238   3.535  10.815 -0.0603  0.1803  0.3877
11828TIP3    H156899   4.319   3.486  10.834 -0.2634 -0.4612 -0.3650
11828TIP3    H256900   4.257   3.624  10.845 -0.1641 -0.6394  3.0013
11829TIP3   OH256901   2.910   0.867  15.161 -0.5986 -1.1254 -0.3188
11829TIP3    H156902   2.998   0.840  15.188  0.9067  1.1859 -2.6158
11829TIP3    H256903   2.885   0.934  15.224 -1.5517 -3.0819  1.4440
11830TIP3   OH256904   4.300   5.321  12.507 -0.5249  0.0129 -0.3784
11830TIP3    H156905   4.277   5.327  12.600  1.7460 -2.0269  0.3612
11830TIP3    H256906   4.303   5.412  12.478 -1.2143  0.6856  1.5392
11831TIP3   OH256907   5.764   0.523  13.757 -0.0607 -0.2590 -0.1420
11831TIP3    H156908   5.857   0.504  13.757  0.0986  0.5108 -0.4357
11831TIP3    H256909   5.728   0.465  13.689  0.0926 -1.0411  0.4358
11832TIP3   OH256910   1.557   4.870  12.586 -0.1642  0.1221  0.0492
11832TIP3    H156911   1.633   4.849  12.641  1.0684 -0.7759 -1.9026
11832TIP3    H256912   1.570   4.961  12.561 -1.9949  1.2878  3.1287
11833TIP3   OH256913   3.227   2.274  17.206  0.2609 -0.0630  0.1125
11833TIP3    H156914   3.180   2.192  17.196 -1.7699  1.2497 -1.4498
11833TIP3    H256915   3.262   2.292  17.119 -0.2138  1.2525  0.1886
11834TIP3   OH256916   4.560   4.154  11.106  0.0803  0.2634  0.3681
11834TIP3    H156917   4.637   4.102  11.128 -1.4804 -1.5880  1.6028
11834TIP3    H256918   4.534   4.122  11.020 -0.8353 -1.0118  1.0943
11835TIP3   OH256919   3.733   1.532   0.339  0.2732  0.8442 -0.5418
11835TIP3    H156920   3.813   1.481   0.326  0.0748  0.6471 -0.9990
11835TIP3    H256921   3.692   1.535   0.252 -0.3538  0.7074 -0.2507
11836TIP3   OH256922   0.282   3.774  12.720 -0.1227 -0.2073  0.0033
11836TIP3    H156923   0.277   3.850  12.777 -0.6305  0.2737 -0.6727
11836TIP3    H256924   0.192   3.757  12.693  0.1730 -0.0379 -1.1422
11837TIP3   OH256925   4.711   5.326   3.858  0.3016 -0.1048  0.1025
11837TIP3    H156926   4.755   5.377   3.926 -0.5281 -0.2631  0.7687
11837TIP3    H256927   4.653   5.388   3.814  1.7347  0.2866 -1.2931
11838TIP3   OH256928   5.402   1.314  15.671  0.5014 -0.0610 -0.2446
11838TIP3    H156929   5.394   1.401  15.632 -1.1882  0.8817  2.0517
11838TIP3    H256930   5.316   1.274  15.658  0.7160 -0.6924  0.2535
11839TIP3   OH256931   0.741   5.206   2.108  0.3596  0.3716 -0.0545
11839TIP3    H156932   0.790   5.145   2.164  1.6362  1.9956  0.6086
11839TIP3    H256933   0.808   5.255   2.061 -0.6778  0.8895 -1.0072
11840TIP3   OH256934   2.051   0.623  11.515 -0.7766 -0.7530 -0.4730
11840TIP3    H156935   1.995   0.602  11.440 -1.6451  0.1509 -0.0902
11840TIP3    H256936   2.137   0.588  11.491 -1.1559 -0.8936 -1.6839
11841TIP3   OH256937   1.111   3.265   6.609 -0.4624  0.4318  0.6872
11841TIP3    H156938   1.144   3.353   6.629 -0.9463  0.7521  0.0952
11841TIP3    H256939   1.138   3.249   6.518  0.6332 -0.5022  1.1651
11842TIP3   OH256940   3.715   6.463  15.050 -0.3346  0.3561 -0.2447
11842TIP3    H156941   3.794   6.414  15.075 -1.2717 -0.1450  1.7920
11842TIP3    H256942   3.741   6.555  15.057  0.1220  0.1929  0.2457
11843TIP3   OH256943   2.423   5.838  15.832 -0.1187  0.0720 -0.0033
11843TIP3    H156944   2.343   5.867  15.789  0.9265  3.5391  0.2851
11843TIP3    H256945   2.392   5.786  15.906 -2.0167 -0.5757 -1.1906
11844TIP3   OH256946   6.134   4.919  16.782 -0.0376  0.0848  0.8955
11844TIP3    H156947   6.055   4.969  16.804 -1.6709 -2.1543  0.3499
11844TIP3    H256948   6.187   4.923  16.861 -1.0657  0.9246  1.5707
11845TIP3   OH256949   1.927   6.162   0.483  0.2959 -0.0741 -0.5311
11845TIP3    H156950   1.882   6.110   0.416 -0.6507 -0.6151  0.5058
11845TIP3    H256951   1.937   6.102   0.557 -0.7214  1.1865  0.6525
11846TIP3   OH256952   6.683   0.677   3.696  0.1812  0.3017  0.0226
11846TIP3    H156953   6.712   0.757   3.652 -0.0732  0.2782 -0.1887
11846TIP3    H256954   6.762   0.642   3.736  0.9118 -0.9786 -2.4583
11847TIP3   OH256955   1.517   2.744  11.188  0.1204  0.3684  0.7704
11847TIP3    H156956   1.600   2.792  11.184  0.3770 -0.1445 -0.1627
11847TIP3    H256957   1.510   2.701  11.103 -1.7608  1.4615  0.3566
11848TIP3   OH256958   0.609   0.780  14.556  0.3089  0.1375 -0.3540
11848TIP3    H156959   0.651   0.856  14.515 -1.7887  2.6423  1.9434
11848TIP3    H256960   0.644   0.779  14.645  1.1405 -2.3069 -0.6787
11849TIP3   OH256961   5.810   2.428   5.909  0.0663  0.2424  0.1810
11849TIP3    H156962   5.766   2.373   5.973  0.0389 -0.4874 -0.4544
11849TIP3    H256963   5.894   2.449   5.949  0.0953 -0.3080  0.4125
11850TIP3   OH256964   5.883   6.607   0.825  0.1648 -0.1345  0.1297
11850TIP3    H156965   5.804   6.590   0.876  0.6400  0.3145  1.0429
11850TIP3    H256966   5.852   6.643   0.742 -0.5490  1.1628  0.9473
11851TIP3   OH256967   0.118   4.111  12.524 -0.3656 -0.1055 -0.1436
11851TIP3    H156968   0.113   4.016  12.509 -1.7320  0.2429 -2.0680
11851TIP3    H256969   0.211   4.131  12.514  0.0504 -1.3531  1.0426
11852TIP3   OH256970   1.061   6.282  12.401  0.0513  0.3072 -0.1118
11852TIP3    H156971   1.065   6.228  12.321 -0.8065 -0.9974  0.7028
11852TIP3    H256972   1.138   6.255  12.452 -0.1400  0.1616  0.1010
11853TIP3   OH256973   0.168   4.126   4.407 -0.0747 -0.1651  0.0708
11853TIP3    H156974   0.257   4.095   4.389 -0.6435 -2.1301  0.4328
11853TIP3    H256975   0.178   4.183   4.483  0.8547 -0.6238  0.3122
11854TIP3   OH256976   1.384   4.153  15.387 -0.0964  0.1200 -0.1036
11854TIP3    H156977   1.297   4.160  15.425 -0.3313 -1.1954 -0.3719
11854TIP3    H256978   1.381   4.073  15.335  1.1651  0.2536 -0.3958
11855TIP3   OH256979   2.843   6.552  14.174 -0.1252 -0.5476 -0.1482
11855TIP3    H156980   2.795   6.468  14.180 -0.6830 -0.2667 -0.6575
11855TIP3    H256981   2.921   6.538  14.227  0.4496 -1.8482 -1.3078
11856TIP3   OH256982   4.090   6.545   0.283 -0.6584  0.5271  0.1214
11856TIP3    H156983   4.119   6.461   0.247  1.4730  0.7479  1.2060
11856TIP3    H256984   4.005   6.527   0.323  0.0745 -1.2811  0.9029
11857TIP3   OH256985   6.330   0.302  15.641 -0.2315 -0.2761 -1.0127
11857TIP3    H156986   6.399   0.269  15.584  0.6675  0.8542 -0.5736
11857TIP3    H256987   6.336   0.247  15.719 -0.1765 -0.5062 -1.1746
11858TIP3   OH256988   4.104   4.952   2.159 -0.3540 -0.2923  0.2625
11858TIP3    H156989   4.175   4.965   2.097 -0.4219 -1.5818 -0.0977
11858TIP3    H256990   4.141   4.979   2.244  0.6081 -1.0388  0.0956
11859TIP3   OH256991   3.976   1.025   0.554 -0.2002  1.3921  0.3318
11859TIP3    H156992   3.972   1.012   0.648 -0.8129  2.4854  0.4676
11859TIP3    H256993   3.969   0.936   0.517  4.1635  0.5122  1.3540
11860TIP3   OH256994   6.117   4.047  14.979 -0.4151 -0.5447 -0.6808
11860TIP3    H156995   6.203   4.074  14.947 -0.2671 -0.8867 -0.5700
11860TIP3    H256996   6.068   4.129  14.989  0.0537 -0.3170 -0.2906
11861TIP3   OH256997   3.920   0.904   6.042  0.1985  0.2253  0.4697
11861TIP3    H156998   3.856   0.939   6.104  0.4676  0.2230  0.7509
11861TIP3    H256999   3.908   0.809   6.047  0.8834  0.1699  1.2457
11862TIP3   OH257000   1.770   4.978  17.064 -0.1078 -0.0734  0.4205
11862TIP3    H157001   1.814   5.037  17.125 -0.7185 -1.1380  1.9279
11862TIP3    H257002   1.825   4.979  16.985  1.6531 -0.0198  1.6185
11863TIP3   OH257003   4.242   6.008   1.076 -0.1439 -0.0930  0.8119
11863TIP3    H157004   4.216   6.093   1.042 -0.3880  0.5084  2.4423
11863TIP3    H257005   4.302   6.027   1.148  0.9203 -1.3425  0.2822
11864TIP3   OH257006   0.513   3.406  11.885  0.4041 -0.5197 -0.9051
11864TIP3    H157007   0.601   3.423  11.852  0.7494 -1.1326 -0.3082
11864TIP3    H257008   0.471   3.355  11.814 -0.0243  1.1774 -1.8920
11865TIP3   OH257009   4.596   5.187   6.485  0.6920 -0.5732  0.1659
11865TIP3    H157010   4.672   5.138   6.456 -0.0285 -0.8903 -1.2513
11865TIP3    H257011   4.522   5.127   6.471  0.3454 -0.8912  3.0672
11866TIP3   OH257012   3.597   0.704   3.596 -0.1039  0.3496 -0.0590
11866TIP3    H157013   3.515   0.685   3.641  0.8062 -0.4435  1.3256
11866TIP3    H257014   3.617   0.794   3.619 -0.6760  0.6100 -0.5618
11867TIP3   OH257015   0.318   3.655   2.290  0.4479 -0.0361 -0.2599
11867TIP3    H157016   0.318   3.706   2.209  0.0811 -1.6233 -1.2597
11867TIP3    H257017   0.310   3.564   2.262  0.9112 -0.6507  1.5281
11868TIP3   OH257018   2.379   5.685  12.311  0.4227  0.0071  0.1511
11868TIP3    H157019   2.444   5.702  12.242 -0.6734  2.1940 -0.3708
11868TIP3    H257020   2.303   5.650  12.265 -0.2596  1.3302  0.2528
11869TIP3   OH257021   4.096   0.711   0.060  0.5283 -0.0366  0.3138
11869TIP3    H157022   4.036   0.670   0.122  0.6452 -0.1499  0.3506
11869TIP3    H257023   4.048   0.788   0.028  0.5315  0.1138  0.6675
11870TIP3   OH257024   4.890   4.886  13.379  0.1390  0.2349 -0.3755
11870TIP3    H157025   4.909   4.798  13.410  1.0959  0.9862  1.2054
11870TIP3    H257026   4.794   4.888  13.368 -0.1172 -0.3196  1.6985
11871TIP3   OH257027   2.054   4.953   5.075  0.2717 -0.2529 -0.7512
11871TIP3    H157028   1.975   4.971   5.025  0.2867 -0.3896 -0.8262
11871TIP3    H257029   2.024   4.946   5.165 -0.1004 -2.1382 -0.9925
11872TIP3   OH257030   3.433   1.912  11.142 -0.2803 -0.0933 -0.5496
11872TIP3    H157031   3.499   1.885  11.078 -0.0373  1.4018 -0.9421
11872TIP3    H257032   3.461   1.872  11.224  1.0886  0.4710 -0.7298
11873TIP3   OH257033   2.898   1.852  14.448 -0.5785  0.0388 -0.3151
11873TIP3    H157034   2.938   1.771  14.480  2.6038  1.6244  0.0291
11873TIP3    H257035   2.844   1.882  14.521  0.5426 -0.3226  0.6997
11874TIP3   OH257036   0.943   6.005   2.634 -0.4511  0.2088 -0.1023
11874TIP3    H157037   1.019   6.056   2.605 -0.5453  0.5866  0.3125
11874TIP3    H257038   0.978   5.947   2.702 -0.9471  1.8650  1.5875
11875TIP3   OH257039   6.495   1.016  15.324 -0.1501  0.3073  0.1775
11875TIP3    H157040   6.518   1.079  15.392  1.8726 -2.3161  2.0558
11875TIP3    H257041   6.448   0.946  15.372  0.0341 -0.8924 -1.3615
11876TIP3   OH257042   0.607   3.518   6.251 -0.2925 -0.4793 -0.1508
11876TIP3    H157043   0.628   3.595   6.305  0.4524 -0.6617 -0.1849
11876TIP3    H257044   0.532   3.546   6.198 -0.0096  0.2321 -0.1782
11877TIP3   OH257045   6.714   4.136  15.534 -0.4071 -0.3091  0.1368
11877TIP3    H157046   6.641   4.152  15.475  0.0831 -0.9925 -0.6581
11877TIP3    H257047   6.758   4.221  15.542  0.0152 -0.3997 -1.1325
11878TIP3   OH257048   0.443   3.623   5.192  0.2046  0.2132 -0.2008
11878TIP3    H157049   0.402   3.536   5.189  1.6010 -0.5757  2.2240
11878TIP3    H257050   0.370   3.684   5.187 -1.2651 -1.1551  2.8781
11879TIP3   OH257051   5.424   1.373  11.823 -0.0842  0.2679  0.3907
11879TIP3    H157052   5.494   1.404  11.881 -2.1080  1.8502  2.0448
11879TIP3    H257053   5.429   1.430  11.747  0.8763 -0.0988  0.1698
11880TIP3   OH257054   5.176   2.008  14.809  0.1165  0.3322 -0.4624
11880TIP3    H157055   5.219   2.091  14.790 -0.0082  0.4352 -0.3027
11880TIP3    H257056   5.218   1.977  14.889 -0.2326  0.5278 -0.1982
11881TIP3   OH257057   6.193   5.464  12.017  0.6323  0.4115 -0.2803
11881TIP3    H157058   6.288   5.460  12.032  0.5169  0.3747  0.4565
11881TIP3    H257059   6.162   5.376  12.037  0.3200  0.6589  0.3275
11882TIP3   OH257060   1.244   0.410   1.602 -0.0718  0.1212  0.5203
11882TIP3    H157061   1.262   0.317   1.620  2.0749  0.2172 -0.9343
11882TIP3    H257062   1.198   0.409   1.518  0.6739  0.4133  0.1045
11883TIP3   OH257063   0.316   0.539  14.971 -0.1903  0.3187  0.0873
11883TIP3    H157064   0.404   0.501  14.965 -0.3418 -0.2777  1.3927
11883TIP3    H257065   0.261   0.481  14.919 -0.2147 -0.6304  1.1551
11884TIP3   OH257066   6.651   3.348  14.900  0.1405 -0.0196  0.2236
11884TIP3    H157067   6.711   3.389  14.963 -1.0747 -0.9338  2.0424
11884TIP3    H257068   6.656   3.254  14.919  0.7356 -0.4512 -1.9558
11885TIP3   OH257069   4.983   3.295   3.597  0.1029 -0.4640 -0.1691
11885TIP3    H157070   4.985   3.210   3.640 -1.3293  1.2677  3.4457
11885TIP3    H257071   4.891   3.317   3.589  0.4619  0.8914 -0.8203
11886TIP3   OH257072   1.779   4.273  15.184 -0.0746  0.3119 -0.4754
11886TIP3    H157073   1.821   4.327  15.118  0.0866 -0.4464 -1.0047
11886TIP3    H257074   1.727   4.210  15.134  1.4055 -1.3784  0.0596
11887TIP3   OH257075   5.083   5.153  15.590  0.7795 -0.2877  0.3374
11887TIP3    H157076   5.002   5.201  15.575  0.4419 -0.5712  1.1939
11887TIP3    H257077   5.056   5.075  15.638  1.3226 -1.3254 -1.0021
11888TIP3   OH257078   1.946   1.052  13.455  0.5549  0.0369  0.4058
11888TIP3    H157079   1.854   1.026  13.457  1.4858 -3.6145 -0.1336
11888TIP3    H257080   1.952   1.125  13.517 -2.5094 -0.2986  1.1747
11889TIP3   OH257081   0.009   2.965   5.986  0.2178 -0.9157  0.2410
11889TIP3    H157082  -0.070   2.996   5.943 -1.9474 -1.2970  3.7773
11889TIP3    H257083  -0.004   2.870   5.994  1.2712 -1.0493  0.4269
11890TIP3   OH257084   4.446   4.988  11.716  0.1222 -0.2089  0.2800
11890TIP3    H157085   4.353   4.994  11.734 -0.0062 -1.1317 -0.0767
11890TIP3    H257086   4.454   4.922  11.647  0.9574  0.4889 -0.3007
11891TIP3   OH257087   0.291   1.522  17.119  0.3146  0.4950  0.4424
11891TIP3    H157088   0.241   1.562  17.048 -0.0121  0.1144  0.4584
11891TIP3    H257089   0.376   1.567  17.116  0.5982 -0.0826 -0.7244
11892TIP3   OH257090   3.706   3.956  11.978  0.0133  0.3757 -0.3338
11892TIP3    H157091   3.746   4.039  12.001 -2.0652  1.4119 -0.3774
11892TIP3    H257092   3.617   3.978  11.951 -0.2179 -1.7283 -1.4360
11893TIP3   OH257093   5.429   6.423  11.041 -0.6175 -0.0047  0.5811
11893TIP3    H157094   5.334   6.428  11.058 -0.5017  1.0072  0.9555
11893TIP3    H257095   5.449   6.505  10.996  0.0718 -0.2510  0.4458
11894TIP3   OH257096   2.258   2.033   1.112 -0.3659 -0.2645  0.5480
11894TIP3    H157097   2.264   2.033   1.208  0.5687  0.5169  0.4916
11894TIP3    H257098   2.290   2.119   1.086 -0.6583 -0.4617 -0.4719
11895TIP3   OH257099   0.220   4.724   0.837 -0.0282  0.2657  0.0080
11895TIP3    H157100   0.161   4.770   0.777  0.8280  0.6021 -0.5875
11895TIP3    H257101   0.162   4.685   0.902 -1.0231 -0.4535 -1.2678
11896TIP3   OH257102   3.521   4.102  12.474 -0.0172  0.2760  0.3868
11896TIP3    H157103   3.593   4.050  12.438 -0.2739 -1.9292  2.9412
11896TIP3    H257104   3.543   4.192  12.450  2.2881 -0.6202 -1.0522
11897TIP3   OH257105   4.156   6.420   4.088 -0.6855 -0.9741 -0.1055
11897TIP3    H157106   4.119   6.405   4.175  0.3696  0.4096  0.6039
11897TIP3    H257107   4.248   6.443   4.104 -0.8337  0.6886 -1.4779
11898TIP3   OH257108   6.410   5.424  14.904 -0.8785  0.6397 -0.0409
11898TIP3    H157109   6.467   5.500  14.915 -0.7003  0.3914  0.8097
11898TIP3    H257110   6.324   5.461  14.886 -0.5536  1.0254 -0.8194
11899TIP3   OH257111   4.602   0.113   3.912 -0.4959 -0.1586 -0.5001
11899TIP3    H157112   4.518   0.085   3.948 -0.0670  0.0363  0.7026
11899TIP3    H257113   4.580   0.166   3.836 -1.4667 -0.1633 -0.2245
11900TIP3   OH257114   2.898   4.253  14.011  0.9177  0.4678 -0.7000
11900TIP3    H157115   2.902   4.349  14.014  0.2193  0.4654  0.7691
11900TIP3    H257116   2.982   4.225  14.047  0.9179  0.5159 -0.6624
11901TIP3   OH257117   2.150   4.169  16.970  0.2792 -0.5318 -0.4671
11901TIP3    H157118   2.149   4.081  16.932 -3.9952 -1.8343  2.2420
11901TIP3    H257119   2.089   4.220  16.916  2.1308  0.5678 -1.5476
11902TIP3   OH257120   4.528   5.619  16.751 -0.1171 -0.4603 -0.4600
11902TIP3    H157121   4.457   5.555  16.749 -0.6005  0.0289  0.6099
11902TIP3    H257122   4.507   5.682  16.683 -0.4239 -0.6155 -0.5072
11903TIP3   OH257123   2.357   0.813   1.672 -0.9440 -0.2149  0.1992
11903TIP3    H157124   2.415   0.749   1.631 -0.1296  0.8168 -0.2653
11903TIP3    H257125   2.416   0.875   1.715 -1.7025  0.9177 -0.3809
11904TIP3   OH257126   4.377   0.834  16.815 -0.1406  0.1788 -0.4774
11904TIP3    H157127   4.463   0.819  16.775  0.1951  1.0197 -0.0817
11904TIP3    H257128   4.397   0.847  16.908 -0.6904  0.4702 -0.4041
11905TIP3   OH257129   3.428   4.106  14.438  0.0443  0.0713 -0.2205
11905TIP3    H157130   3.413   4.047  14.364  1.7974 -0.6763  0.0125
11905TIP3    H257131   3.344   4.108  14.484 -1.0383  0.4782 -2.1731
11906TIP3   OH257132   5.503   4.521   2.744  0.3868 -0.0288 -0.3079
11906TIP3    H157133   5.566   4.484   2.681  0.3938 -0.4669 -0.0494
11906TIP3    H257134   5.532   4.486   2.829 -0.8641 -1.1372 -0.3223
11907TIP3   OH257135   5.108   5.798  14.478 -0.3228 -0.4909 -0.2812
11907TIP3    H157136   5.134   5.842  14.398 -2.3582 -0.8203 -1.1475
11907TIP3    H257137   5.170   5.725  14.487 -0.5857 -0.9473 -1.9978
11908TIP3   OH257138   2.254   5.792   5.819 -0.2139  0.0929 -0.2031
11908TIP3    H157139   2.222   5.755   5.737  1.2552 -1.0779 -0.2597
11908TIP3    H257140   2.198   5.751   5.886 -0.2715 -0.2922 -0.4814
11909TIP3   OH257141   6.453   2.058  14.890  0.1070  0.0607  0.9726
11909TIP3    H157142   6.495   1.995  14.948  1.1274 -1.2377 -1.1152
11909TIP3    H257143   6.362   2.031  14.885 -0.3023  1.0008  3.0247
11910TIP3   OH257144   2.437   3.755  14.240 -0.0792  0.4138 -0.2887
11910TIP3    H157145   2.478   3.691  14.297  0.9727  1.0293 -0.3356
11910TIP3    H257146   2.404   3.822  14.299 -1.1929 -0.1810 -0.2389
11911TIP3   OH257147   5.171   5.764   4.207  0.1326 -0.5836  0.3913
11911TIP3    H157148   5.095   5.793   4.158 -0.9586 -1.5163  1.4947
11911TIP3    H257149   5.173   5.669   4.195  0.0725 -0.7773  1.7961
11912TIP3   OH257150   3.252   5.843   1.385 -0.4304 -0.0370  0.2923
11912TIP3    H157151   3.196   5.913   1.351  0.3665  1.1167  1.3227
11912TIP3    H257152   3.333   5.850   1.334  0.0412  0.4566  1.1121
11913TIP3   OH257153   3.670   2.373  16.862  0.3981  0.3265 -0.6331
11913TIP3    H157154   3.677   2.295  16.807  1.2222  1.2023 -1.8017
11913TIP3    H257155   3.714   2.349  16.944  2.5003  0.2261 -1.7518
11914TIP3   OH257156   3.738   4.802   2.705 -0.0567  0.1858 -0.0293
11914TIP3    H157157   3.689   4.724   2.677  0.5340 -0.2554  0.1506
11914TIP3    H257158   3.774   4.778   2.791  0.3908  0.5429 -0.1159
11915TIP3   OH257159   6.777   6.491  16.515 -0.2014  0.2923 -0.0871
11915TIP3    H157160   6.778   6.578  16.475 -3.8359  0.9218  1.0315
11915TIP3    H257161   6.740   6.434  16.448  2.0756 -0.4519 -0.7799
11916TIP3   OH257162   2.783   5.394  12.075 -0.0726 -0.0778 -0.4330
11916TIP3    H157163   2.710   5.352  12.030 -2.4298  0.8508  2.4083
11916TIP3    H257164   2.789   5.349  12.159  0.9536  1.5603  0.4023
11917TIP3   OH257165   2.113   2.527   2.714  0.1902 -0.4175  0.0048
11917TIP3    H157166   2.083   2.497   2.800  0.9222  0.4146  0.5549
11917TIP3    H257167   2.147   2.449   2.671 -1.7826 -1.1905 -0.2312
11918TIP3   OH257168   4.818   4.365  15.438 -0.3186 -0.2108 -0.3753
11918TIP3    H157169   4.793   4.362  15.531  1.3796 -2.4263  0.0522
11918TIP3    H257170   4.775   4.443  15.404  0.4801  1.6445  2.7049
11919TIP3   OH257171   5.974   2.519  11.453 -0.3282 -0.2917  0.2424
11919TIP3    H157172   6.045   2.503  11.515 -0.2652  0.3017  0.3304
11919TIP3    H257173   6.002   2.477  11.372 -0.0234 -0.3340  0.3682
11920TIP3   OH257174   0.324   3.939   1.073  0.1218 -0.3484  0.6366
11920TIP3    H157175   0.324   3.855   1.028  0.4192  0.3946 -0.7786
11920TIP3    H257176   0.409   3.978   1.052 -0.6697  1.0307 -0.1342
11921TIP3   OH257177   1.999   1.911   3.558  0.3951 -0.1598  0.2866
11921TIP3    H157178   2.039   1.824   3.551 -1.1874 -0.8712 -0.2818
11921TIP3    H257179   1.970   1.916   3.649  1.0624  0.0395  0.4908
11922TIP3   OH257180   6.197   6.597   1.281  0.3532 -0.0057  0.1036
11922TIP3    H157181   6.217   6.535   1.352  0.2722  0.1664  0.2772
11922TIP3    H257182   6.127   6.555   1.231  0.4734 -0.1690  0.0735
11923TIP3   OH257183   0.474   5.230  17.193  0.0341 -0.0589 -0.1327
11923TIP3    H157184   0.515   5.180  17.122 -0.9858 -0.5854 -0.3603
11923TIP3    H257185   0.405   5.279  17.150  0.3682  0.7598  0.2680
11924TIP3   OH257186   3.188   6.081  13.447 -0.2562  0.6211  0.0747
11924TIP3    H157187   3.276   6.099  13.480  0.1437  1.5175 -1.4390
11924TIP3    H257188   3.135   6.065  13.525  1.1810  0.3891  1.0067
11925TIP3   OH257189   4.321   0.195   2.030 -0.2910  0.3261 -0.1582
11925TIP3    H157190   4.234   0.193   1.989  0.1559 -0.1528 -1.0985
11925TIP3    H257191   4.353   0.284   2.013 -0.1709  0.1779 -0.7044
11926TIP3   OH257192   4.181   1.426   3.282 -0.1034 -0.1092  0.1329
11926TIP3    H157193   4.125   1.480   3.337 -0.3213  0.4836 -0.6722
11926TIP3    H257194   4.192   1.476   3.201  1.4755 -0.2649  0.2233
11927TIP3   OH257195   5.983   6.340  15.167 -0.0686 -0.0272  0.2151
11927TIP3    H157196   6.007   6.408  15.230 -0.5844  0.8402 -0.5104
11927TIP3    H257197   6.060   6.284  15.162  0.6372  0.9078  0.3039
11928TIP3   OH257198   0.706   4.971  13.094 -0.1437 -0.0554  0.1149
11928TIP3    H157199   0.714   5.038  13.162  1.4155  0.3546 -0.4525
11928TIP3    H257200   0.685   5.020  13.015  2.0933 -0.1061 -0.5341
11929TIP3   OH257201   1.133   5.732   5.520 -0.5887  0.1510 -0.0193
11929TIP3    H157202   1.038   5.720   5.525 -0.6989  1.0839  0.2904
11929TIP3    H257203   1.145   5.827   5.517  0.2658  0.0059 -1.6833
11930TIP3   OH257204   1.447   2.652   0.781 -0.2247  0.1389 -0.3264
11930TIP3    H157205   1.361   2.669   0.741 -0.7009 -0.4129  0.4596
11930TIP3    H257206   1.436   2.569   0.827  0.3080  0.8048  1.0188
11931TIP3   OH257207   0.312   3.160   3.444  1.3939 -0.4793  0.1589
11931TIP3    H157208   0.270   3.095   3.501  0.5843 -0.8242 -0.8290
11931TIP3    H257209   0.324   3.237   3.501 -1.4500 -0.0273  0.2075
11932TIP3   OH257210   6.520   6.289  16.109  0.0748  0.4834  0.3333
11932TIP3    H157211   6.462   6.363  16.092  0.2622  1.0344  2.0604
11932TIP3    H257212   6.491   6.254  16.193 -1.1894 -2.5509 -1.2562
11933TIP3   OH257213   2.028   1.115  14.805  0.2148 -0.8990 -0.4247
11933TIP3    H157214   1.978   1.138  14.727  0.4235 -0.1295 -0.3355
11933TIP3    H257215   1.979   1.043  14.845 -0.8334 -0.1293 -0.3172
11934TIP3   OH257216   5.406   6.137  11.806 -0.0707  0.3029 -1.0113
11934TIP3    H157217   5.430   6.230  11.800 -1.5142  0.5947 -2.5272
11934TIP3    H257218   5.313   6.135  11.787 -0.1164 -1.4459 -0.6694
11935TIP3   OH257219   6.164   0.594   2.757  0.0030  0.0742 -0.1192
11935TIP3    H157220   6.135   0.681   2.728  0.1439  0.2876  0.3841
11935TIP3    H257221   6.259   0.601   2.760  0.0796 -0.4376 -1.1591
11936TIP3   OH257222   1.608   1.783  10.748  0.2437  1.0231  0.0323
11936TIP3    H157223   1.576   1.734  10.672  0.6781  0.0146  0.4982
11936TIP3    H257224   1.688   1.825  10.717  1.0091 -0.2529  0.2245
11937TIP3   OH257225   1.575   5.790  15.361  0.2684  0.5186  0.3593
11937TIP3    H157226   1.493   5.829  15.390 -0.2981  1.1122 -1.9588
11937TIP3    H257227   1.568   5.787  15.266  1.8456 -1.8501  0.2660
11938TIP3   OH257228   5.616   4.014   4.894  0.1131 -0.6255 -0.4529
11938TIP3    H157229   5.606   3.973   4.980  3.1038 -1.0570 -0.2545
11938TIP3    H257230   5.620   4.108   4.912 -1.7512 -0.5477 -0.3933
11939TIP3   OH257231   6.459   3.620  15.452  0.2773  0.8580 -0.0499
11939TIP3    H157232   6.404   3.677  15.506  0.7784  0.4011  0.9766
11939TIP3    H257233   6.442   3.532  15.487  3.3595  0.9409  1.8456
11940TIP3   OH257234   3.162   1.726  11.899 -0.0296 -0.0501  0.2856
11940TIP3    H157235   3.162   1.644  11.948  1.6674  0.0130  0.4394
11940TIP3    H257236   3.191   1.702  11.812 -0.1073  0.2978  0.1614
11941TIP3   OH257237   6.493   5.651  15.502 -0.6337 -0.2949 -0.0785
11941TIP3    H157238   6.542   5.728  15.532  0.4650 -0.3582 -1.6827
11941TIP3    H257239   6.501   5.589  15.574 -2.2519  1.3714  1.6161
11942TIP3   OH257240   6.370   2.208  16.173 -0.2509  0.5501 -0.3409
11942TIP3    H157241   6.348   2.262  16.249 -0.9711  0.8965 -0.7841
11942TIP3    H257242   6.400   2.271  16.107  0.7557  0.2125 -0.2131
11943TIP3   OH257243   1.682   3.769   2.866 -0.5108 -0.4750  0.0501
11943TIP3    H157244   1.740   3.700   2.832 -1.0373 -0.2846 -1.2404
11943TIP3    H257245   1.599   3.724   2.882 -0.7900 -0.1853 -0.5908
11944TIP3   OH257246   5.879   1.961   2.254  0.1837  0.0719 -0.0582
11944TIP3    H157247   5.899   1.908   2.177 -2.0341 -2.0956  0.7937
11944TIP3    H257248   5.850   1.898   2.320 -0.5434  2.1416  1.6625
11945TIP3   OH257249   5.761   6.628   1.862 -0.7625  0.3241 -0.5466
11945TIP3    H157250   5.851   6.631   1.895 -0.6286  0.5010 -0.9295
11945TIP3    H257251   5.734   6.719   1.857 -1.4822  0.2247  0.9736
11946TIP3   OH257252   1.237   1.519   1.284 -0.1346 -0.1816 -0.0841
11946TIP3    H157253   1.320   1.472   1.279 -0.2434 -0.3121 -0.7737
11946TIP3    H257254   1.255   1.604   1.244 -0.1429  0.0576  0.4282
11947TIP3   OH257255   5.836   1.701   4.084  0.3396 -0.3508  0.4835
11947TIP3    H157256   5.848   1.735   4.173  1.7859  1.7888 -0.4666
11947TIP3    H257257   5.922   1.667   4.060 -0.1085 -1.1284 -0.0197
11948TIP3   OH257258   5.327   4.365  15.256  0.4756  0.1175  0.1916
11948TIP3    H157259   5.301   4.345  15.166 -0.5329 -2.9333  1.1199
11948TIP3    H257260   5.249   4.406  15.294  0.1542 -0.5750  0.2903
11949TIP3   OH257261   2.987   5.867   2.388 -0.2164 -0.3728 -0.4464
11949TIP3    H157262   2.982   5.960   2.367 -0.8283 -0.5841 -1.3016
11949TIP3    H257263   2.918   5.827   2.334 -2.1703 -0.8879  2.3265
11950TIP3   OH257264   4.426   2.103   3.341  0.4918 -0.2698  0.7632
11950TIP3    H157265   4.489   2.103   3.269 -0.5226  0.5923 -0.1467
11950TIP3    H257266   4.480   2.106   3.420  1.6107 -0.7798  0.0266
11951TIP3   OH257267   5.509   1.674  16.539  0.5512  0.3844 -0.6725
11951TIP3    H157268   5.574   1.685  16.471 -1.2568  2.3463 -2.1355
11951TIP3    H257269   5.467   1.760  16.547 -2.5814 -1.0765 -0.5609
11952TIP3   OH257270   6.344   1.625   2.540 -0.6911 -0.3719 -0.1248
11952TIP3    H157271   6.293   1.703   2.563 -2.0227 -1.5672  1.0427
11952TIP3    H257272   6.302   1.591   2.461  0.6048  0.7192 -1.3136
11953TIP3   OH257273   3.412   6.502  14.913  0.2294 -0.0458 -1.0773
11953TIP3    H157274   3.337   6.446  14.896  0.4936 -0.1888 -1.7506
11953TIP3    H257275   3.486   6.459  14.871  0.3488  1.0323 -1.9922
11954TIP3   OH257276   2.368   3.956   5.512  0.1986  0.1879  0.1887
11954TIP3    H157277   2.456   3.991   5.496  0.1539  0.7248  1.0757
11954TIP3    H257278   2.343   3.915   5.429 -0.2179  3.2630 -1.2939
11955TIP3   OH257279   1.241   1.574   5.051  0.3632  0.8505  0.3506
11955TIP3    H157280   1.331   1.607   5.040  0.3319  1.0761  0.7657
11955TIP3    H257281   1.249   1.502   5.113  0.5567 -0.5179 -1.2066
11956TIP3   OH257282   6.674   6.419  16.965  1.5192  0.2719  0.4029
11956TIP3    H157283   6.715   6.438  17.050  0.2297 -0.4377  1.2014
11956TIP3    H257284   6.679   6.324  16.956  0.4691  0.2165  0.3059
11957TIP3   OH257285   0.875   3.498   1.657  0.3052  0.7348  0.0579
11957TIP3    H157286   0.799   3.557   1.660  0.0178  0.3788 -0.1975
11957TIP3    H257287   0.837   3.410   1.656  0.6783  0.5885 -2.1916
11958TIP3   OH257288   3.071   0.117   6.401  0.1427 -0.2416 -0.4646
11958TIP3    H157289   3.043   0.114   6.309 -1.0758 -2.1889 -0.0622
11958TIP3    H257290   3.003   0.169   6.445 -0.8411 -1.7826 -0.1538
11959TIP3   OH257291   6.694   5.918   5.189 -0.0426  0.3551  0.4182
11959TIP3    H157292   6.601   5.897   5.181 -0.3609  2.5974 -2.1635
11959TIP3    H257293   6.738   5.833   5.182 -1.8532 -0.7220  1.5956
11960TIP3   OH257294   6.633   4.652  16.199  0.3256  0.1980  0.6851
11960TIP3    H157295   6.625   4.667  16.104 -0.7648 -0.2071  0.7070
11960TIP3    H257296   6.701   4.586  16.207  0.3656  0.1761  0.1727
11961TIP3   OH257297   1.813   2.669   2.094  0.1766 -0.3343 -0.2828
11961TIP3    H157298   1.771   2.583   2.086 -0.2042 -0.3699  1.8259
11961TIP3    H257299   1.837   2.692   2.005 -1.4578 -1.7701 -1.1243
11962TIP3   OH257300   3.568   1.198   2.872  0.0250 -0.5645 -0.1641
11962TIP3    H157301   3.659   1.197   2.844  0.1861  0.9035  0.2726
11962TIP3    H257302   3.523   1.253   2.807 -0.1397  0.4700  0.8054
11963TIP3   OH257303   5.100   0.423  13.363 -0.0828  0.5005  0.6766
11963TIP3    H157304   5.119   0.438  13.271 -0.4609 -0.4533  0.4325
11963TIP3    H257305   5.010   0.455  13.375 -0.1864  0.2405  0.6104
11964TIP3   OH257306   1.229   2.537  16.272  0.0432  0.4502 -0.0919
11964TIP3    H157307   1.138   2.526  16.298 -0.5751 -1.3593 -2.7806
11964TIP3    H257308   1.279   2.524  16.353 -1.9533 -0.9693  0.9586
11965TIP3   OH257309   4.810   2.388  15.503 -0.1836  0.7663 -0.0309
11965TIP3    H157310   4.859   2.426  15.575 -0.5802  1.7366 -0.2569
11965TIP3    H257311   4.748   2.328  15.545 -0.6520  1.5880  0.4693
11966TIP3   OH257312   0.589   1.895  16.825  0.4468 -0.4371 -0.0267
11966TIP3    H157313   0.519   1.954  16.796 -0.8843 -0.9419  2.0247
11966TIP3    H257314   0.659   1.953  16.855 -0.5030  0.1117  1.1693
11967TIP3   OH257315   4.014   4.964   4.025  0.2749 -0.1927 -0.1324
11967TIP3    H157316   4.084   5.028   4.013  0.5625 -0.4950 -0.0752
11967TIP3    H257317   3.999   4.928   3.938  0.1239 -0.0541 -0.1614
11968TIP3   OH257318   3.770   0.310  16.347  0.0019 -0.1019 -0.2741
11968TIP3    H157319   3.754   0.402  16.325  1.9622  0.6229  1.1682
11968TIP3    H257320   3.686   0.277  16.379 -0.4390  1.4900  0.2446
11969TIP3   OH257321   6.297   5.743   1.741 -0.2067 -0.0537 -0.1613
11969TIP3    H157322   6.231   5.812   1.735  1.5026  1.5400 -1.1752
11969TIP3    H257323   6.259   5.669   1.693 -0.9761  1.0813 -1.3398
11970TIP3   OH257324   2.447   6.339   0.486  0.0969  0.6796  0.2296
11970TIP3    H157325   2.366   6.302   0.521  0.6120 -0.4597  0.2284
11970TIP3    H257326   2.506   6.264   0.475  0.3969  1.1812 -1.8748
11971TIP3   OH257327   3.137   4.917   6.370 -0.6787  0.0933 -0.1704
11971TIP3    H157328   3.076   4.849   6.398  0.4545 -1.0000 -0.3118
11971TIP3    H257329   3.128   4.920   6.275 -0.2991 -0.2893 -0.2217
11972TIP3   OH257330   1.469   5.993  11.181 -0.1976  0.3626  0.1592
11972TIP3    H157331   1.376   6.001  11.159  0.0163  1.0201 -0.5129
11972TIP3    H257332   1.505   5.935  11.114 -0.3049 -0.6382  0.9563
11973TIP3   OH257333   1.071   4.569   0.983 -0.1768  0.1759  0.6607
11973TIP3    H157334   1.150   4.621   0.966  0.9395 -1.1840  1.6047
11973TIP3    H257335   1.101   4.478   0.982 -1.2400 -0.2546  3.5117
11974TIP3   OH257336   6.725   6.375   3.336 -0.4277  0.3777 -0.3086
11974TIP3    H157337   6.713   6.444   3.401 -0.2596  0.5026 -0.4070
11974TIP3    H257338   6.806   6.399   3.291 -0.8685  0.6264 -0.9735
11975TIP3   OH257339   0.150   1.495  11.763 -0.0387  0.3610 -0.1340
11975TIP3    H157340   0.214   1.430  11.789 -0.3074  0.1775  0.0729
11975TIP3    H257341   0.144   1.487  11.668 -0.4536 -0.2757 -0.0553
11976TIP3   OH257342   1.762   5.065   5.972 -0.1721  0.0707 -0.0800
11976TIP3    H157343   1.697   4.999   5.949 -0.6731  0.1999  0.9324
11976TIP3    H257344   1.831   5.055   5.907 -1.0804 -0.2463 -1.0142
11977TIP3   OH257345   1.048   0.664  17.068 -0.4941  0.4643  0.1856
11977TIP3    H157346   1.084   0.617  16.993  1.9480  1.2523  0.8094
11977TIP3    H257347   1.035   0.753  17.036 -1.6617  0.2461  0.0416
11978TIP3   OH257348   1.684   4.775   1.932 -0.0982  0.0522 -0.0426
11978TIP3    H157349   1.662   4.865   1.909  1.4471  0.0824 -1.5301
11978TIP3    H257350   1.600   4.728   1.931 -1.0615  1.6642  1.8031
11979TIP3   OH257351   3.646   2.060   1.274 -0.7293 -0.2889 -0.2840
11979TIP3    H157352   3.660   1.988   1.335  1.4534  0.0923 -0.3200
11979TIP3    H257353   3.642   2.019   1.188 -2.1869 -0.6389 -0.0721
11980TIP3   OH257354   1.768   5.767   1.858 -0.1556 -0.0620  0.4238
11980TIP3    H157355   1.768   5.672   1.846  0.6599 -0.1077  0.7288
11980TIP3    H257356   1.820   5.800   1.785  1.5683 -0.0446  1.6299
11981TIP3   OH257357   5.544   4.453  12.722  0.4050  0.0019 -0.2558
11981TIP3    H157358   5.455   4.423  12.707  0.8146 -1.2349 -0.2621
11981TIP3    H257359   5.534   4.534  12.772 -0.6865 -0.5555  0.4362
11982TIP3   OH257360   3.433   6.436  14.491 -0.3662  0.3801 -0.6277
11982TIP3    H157361   3.398   6.428  14.402 -0.3004 -1.2975 -0.5080
11982TIP3    H257362   3.380   6.376  14.544  1.3707 -0.7005 -0.0708
11983TIP3   OH257363   5.696   5.724  12.091  0.9792 -0.0713  0.2094
11983TIP3    H157364   5.723   5.815  12.098  1.1127  0.0040 -1.1083
11983TIP3    H257365   5.773   5.673  12.118  0.6431  0.2081  1.7161
11984TIP3   OH257366   3.948   0.811   3.759 -0.1682 -0.6108  0.4831
11984TIP3    H157367   3.895   0.780   3.832  0.0406  0.7788  1.2480
11984TIP3    H257368   3.982   0.895   3.788  0.9912 -0.6444 -0.7099
11985TIP3   OH257369   3.811   4.503  12.811 -0.1185 -0.1258  0.0610
11985TIP3    H157370   3.762   4.543  12.883  0.3268  0.5467  0.0012
11985TIP3    H257371   3.903   4.526  12.829  0.0529 -0.4147 -0.4304
11986TIP3   OH257372   5.828   5.314  12.352  0.0038 -0.5206  0.3022
11986TIP3    H157373   5.783   5.387  12.311  1.4901 -0.3788 -1.0920
11986TIP3    H257374   5.836   5.248  12.283  0.5726 -1.1633  0.9689
11987TIP3   OH257375   4.410   1.044   3.513 -0.0885  0.0955  0.6562
11987TIP3    H157376   4.348   1.107   3.551 -1.2196  0.6387 -1.9632
11987TIP3    H257377   4.355   0.970   3.489  0.2480  0.5609 -1.6478
11988TIP3   OH257378   4.668   0.817   3.140  0.0701  0.0241 -0.0760
11988TIP3    H157379   4.698   0.903   3.167 -0.3309 -0.1912  1.0691
11988TIP3    H257380   4.638   0.775   3.221 -1.5408 -0.4655 -0.9146
11989TIP3   OH257381   6.448   6.296   4.645  0.3117 -0.0698 -1.2849
11989TIP3    H157382   6.366   6.333   4.614 -0.0551 -1.2551 -1.7741
11989TIP3    H257383   6.443   6.203   4.622  1.5215 -0.2830 -0.7669
11990TIP3   OH257384   6.605   4.249  12.673  0.2512 -0.0165  0.8346
11990TIP3    H157385   6.623   4.333  12.630 -0.6592 -0.3062 -0.1036
11990TIP3    H257386   6.584   4.273  12.763 -0.7890  0.8391  0.3784
11991TIP3   OH257387   5.890   2.090   0.165 -0.3212 -0.0767  0.4014
11991TIP3    H157388   5.912   2.126   0.079  0.2606  0.2123  0.6710
11991TIP3    H257389   5.880   1.996   0.149 -0.1973 -0.0256  0.0183
11992TIP3   OH257390   5.064   3.353  13.148 -0.3832  0.1994 -0.2570
11992TIP3    H157391   5.155   3.350  13.119  0.3103  1.1826  1.7167
11992TIP3    H257392   5.041   3.446  13.144 -0.9709  0.0777  0.1835
11993TIP3   OH257393   1.448   2.585  16.132 -0.5524 -0.3219  0.7612
11993TIP3    H157394   1.359   2.575  16.166 -0.3860 -1.2921  0.9052
11993TIP3    H257395   1.475   2.672  16.163 -0.9316 -0.5974  1.8869
11994TIP3   OH257396   3.283   2.393  15.230 -0.1786 -0.2955 -0.4266
11994TIP3    H157397   3.308   2.484  15.246 -0.8416 -0.4870  2.0109
11994TIP3    H257398   3.363   2.350  15.201  0.6298  0.6136  0.4423
11995TIP3   OH257399   1.016   4.077   4.620 -0.9251  0.5999  0.0158
11995TIP3    H157400   0.980   4.157   4.582 -0.8305 -0.0271 -1.3959
11995TIP3    H257401   1.096   4.060   4.570  0.9450  1.5240  2.5703
11996TIP3   OH257402   2.159   6.105   1.986  0.0516 -0.0172 -0.5573
11996TIP3    H157403   2.100   6.058   1.927 -0.9758 -0.1349  0.5368
11996TIP3    H257404   2.211   6.037   2.027 -0.6008 -0.1056  0.1304
11997TIP3   OH257405   0.824   1.667   6.214  0.1602  0.0823 -0.6247
11997TIP3    H157406   0.868   1.675   6.299 -0.5743 -1.6445 -0.0451
11997TIP3    H257407   0.893   1.674   6.149  1.0141 -0.6117  0.2030
11998TIP3   OH257408   6.786   1.721  14.857 -0.7057  0.2790 -0.2479
11998TIP3    H157409   6.782   1.744  14.764 -0.1208 -0.6152 -0.5119
11998TIP3    H257410   6.851   1.781  14.894 -0.7797  0.4941 -0.4673
11999TIP3   OH257411   5.998   1.217  14.881 -0.4356 -0.3702 -0.6156
11999TIP3    H157412   5.958   1.160  14.815  0.6966 -3.0518  0.9453
11999TIP3    H257413   5.976   1.177  14.965 -0.2621  1.9508  0.5781
12000TIP3   OH257414   2.682   4.858   0.185 -0.0016 -0.1696  0.2812
12000TIP3    H157415   2.676   4.786   0.122  1.1590 -0.7183  0.8011
12000TIP3    H257416   2.656   4.819   0.268 -0.4124  0.2817  0.3672
12001TIP3   OH257417   6.269   1.207  11.325  0.0012 -0.0020  0.3058
12001TIP3    H157418   6.236   1.135  11.379  0.5957 -1.0375 -0.6975
12001TIP3    H257419   6.334   1.166  11.268  1.2911  1.5825  0.6196
12002TIP3   OH257420   1.535   0.545   3.336 -0.8125  0.3819 -0.2743
12002TIP3    H157421   1.541   0.598   3.256  0.0036 -0.4190 -0.7637
12002TIP3    H257422   1.624   0.543   3.370 -0.4825 -1.9738 -1.1457
12003TIP3   OH257423   4.693   1.059   3.261 -0.2613  0.0538 -0.2734
12003TIP3    H157424   4.772   1.052   3.315 -0.8151  0.1440  0.5431
12003TIP3    H257425   4.625   1.089   3.321 -0.7762  0.5749 -1.1130
12004TIP3   OH257426   5.673   2.242   4.714 -0.2443  0.0006  0.3494
12004TIP3    H157427   5.658   2.153   4.682 -1.9672 -0.6465  2.8779
12004TIP3    H257428   5.746   2.234   4.775  0.2659  0.5177 -0.1813
12005TIP3   OH257429   3.780   1.432  12.593  0.2806  0.4928 -0.2317
12005TIP3    H157430   3.744   1.520  12.602 -0.9450  0.0651 -0.7374
12005TIP3    H257431   3.834   1.419  12.671 -0.3828  1.3060  0.3669
12006TIP3   OH257432   2.511   4.807   1.187 -0.1416  0.4037 -0.5115
12006TIP3    H157433   2.536   4.843   1.102 -0.0694  0.3982 -0.4928
12006TIP3    H257434   2.453   4.872   1.224 -0.0328  0.4885 -0.4900
12007TIP3   OH257435   3.083   2.393   6.098  0.0773 -0.8463  0.4799
12007TIP3    H157436   3.072   2.298   6.095  0.8873 -0.9237 -0.4997
12007TIP3    H257437   2.999   2.426   6.128  0.0522 -1.9232  1.6670
12008TIP3   OH257438   6.329   6.452  11.413  0.1532  0.0300 -0.3739
12008TIP3    H157439   6.364   6.373  11.371  0.1614  0.1620 -0.6147
12008TIP3    H257440   6.234   6.438  11.413  0.2496 -0.7139  1.0433
12009TIP3   OH257441   5.851   3.864  12.653  0.3209 -0.2934 -0.3334
12009TIP3    H157442   5.921   3.801  12.671 -0.5926 -1.0822  0.5030
12009TIP3    H257443   5.828   3.900  12.739  0.7345  1.1017 -0.7858
12010TIP3   OH257444   5.697   5.215   1.670 -0.3133  0.0164  0.3025
12010TIP3    H157445   5.658   5.130   1.689 -1.4983  0.4851  0.0094
12010TIP3    H257446   5.720   5.250   1.756 -0.7260 -0.1802  0.4936
12011TIP3   OH257447   5.480   1.775   1.465 -0.0029 -1.0347 -0.1403
12011TIP3    H157448   5.503   1.682   1.468  0.9972 -0.8921 -2.1907
12011TIP3    H257449   5.388   1.777   1.440  0.2884 -1.4624 -1.2665
12012TIP3   OH257450   2.505   1.752   0.615  0.5391  0.5690  0.0243
12012TIP3    H157451   2.433   1.813   0.605 -0.2637 -0.2473  0.7224
12012TIP3    H257452   2.547   1.750   0.529 -2.7522 -2.0168 -1.6417
12013TIP3   OH257453   2.792   0.384  14.208  0.0868  0.1101 -0.0463
12013TIP3    H157454   2.847   0.366  14.132  0.3026  0.2733  0.0717
12013TIP3    H257455   2.812   0.314  14.269  0.9389  0.7420  0.4170
12014TIP3   OH257456   3.806   4.958   3.145  0.3887  0.0244  0.1600
12014TIP3    H157457   3.827   4.928   3.057 -1.0048 -0.6010  0.0335
12014TIP3    H257458   3.786   4.879   3.194  0.9608  0.3858  0.9965
12015TIP3   OH257459   0.673   0.254   0.984  0.7006  0.3834 -0.3357
12015TIP3    H157460   0.598   0.216   1.030  1.5271  0.2670  0.9413
12015TIP3    H257461   0.642   0.268   0.895 -0.4114 -0.9408 -0.1670
12016TIP3   OH257462   1.767   6.690  12.262  0.2707  0.3147 -0.3565
12016TIP3    H157463   1.792   6.771  12.218 -0.2506  0.7572  0.1563
12016TIP3    H257464   1.726   6.718  12.344 -0.6971 -0.4373 -0.5722
12017TIP3   OH257465   5.950   6.218   2.355 -0.0668  0.5854  0.0287
12017TIP3    H157466   6.038   6.238   2.324 -1.5361  0.5240 -4.5317
12017TIP3    H257467   5.903   6.302   2.348 -0.9772  0.1000  0.2170
12018TIP3   OH257468   5.928   6.453   4.234  0.5775  0.0202 -0.0656
12018TIP3    H157469   6.005   6.419   4.188 -0.0691 -1.1038 -0.3275
12018TIP3    H257470   5.855   6.438   4.175  0.2818  2.0647 -0.2680
12019TIP3   OH257471   2.756   5.088  16.509 -0.0603 -0.5962  0.8558
12019TIP3    H157472   2.729   5.174  16.541 -0.9764 -0.7391  0.4761
12019TIP3    H257473   2.675   5.047  16.478  0.9336 -0.0442 -2.6416
12020TIP3   OH257474   0.840   6.643   4.170  0.2267  0.0723 -0.0588
12020TIP3    H157475   0.883   6.715   4.216 -0.1219  2.0408 -2.6757
12020TIP3    H257476   0.906   6.574   4.168  2.0224  1.7302 -0.8205
12021TIP3   OH257477   2.367   2.399   4.062  0.1055  0.4880 -0.1892
12021TIP3    H157478   2.379   2.441   3.977  0.1802  0.4779 -0.1837
12021TIP3    H257479   2.373   2.471   4.125 -0.1129  0.5192 -0.2025
12022TIP3   OH257480   2.271   3.209  11.110  0.1688 -0.0072  0.4843
12022TIP3    H157481   2.327   3.145  11.066  0.3445  1.3035 -1.2388
12022TIP3    H257482   2.187   3.164  11.120  0.8756 -1.2238  1.1713
12023TIP3   OH257483   6.756   6.237   5.699  0.1691 -0.1527 -0.6383
12023TIP3    H157484   6.714   6.323   5.695 -1.9914 -1.0949  0.4707
12023TIP3    H257485   6.846   6.252   5.670 -0.3743  2.3324 -1.1524
12024TIP3   OH257486   3.696   2.891   5.847 -0.1265 -0.2941  0.5605
12024TIP3    H157487   3.685   2.969   5.901 -0.9005 -0.1384  0.1993
12024TIP3    H257488   3.679   2.922   5.758 -3.7201 -1.4966  0.7328
12025TIP3   OH257489   3.289   1.950   1.763 -0.2642 -0.1190  0.1209
12025TIP3    H157490   3.306   2.014   1.694  0.6222 -0.1777  0.2778
12025TIP3    H257491   3.194   1.953   1.776 -0.2507  1.0274 -0.0022
12026TIP3   OH257492   0.826   2.239  15.752 -0.4313 -0.2430 -0.2062
12026TIP3    H157493   0.886   2.209  15.820 -0.6334 -1.4985 -0.5656
12026TIP3    H257494   0.867   2.211  15.670 -1.7859 -1.6482 -0.4285
12027TIP3   OH257495   5.188   2.300  12.915  0.0638  0.3023  0.3130
12027TIP3    H157496   5.158   2.380  12.871  0.7152  0.3902  0.0138
12027TIP3    H257497   5.283   2.311  12.920  0.1243 -0.3319  0.5212
12028TIP3   OH257498   5.947   6.742   1.103  0.0971  0.1891  0.1549
12028TIP3    H157499   5.982   6.653   1.112 -0.5908 -0.2509 -1.3464
12028TIP3    H257500   5.952   6.760   1.009 -2.6494  0.5578  0.0527
12029TIP3   OH257501   3.917   6.784  13.552 -0.1657 -0.2299  0.0837
12029TIP3    H157502   3.875   6.740  13.478  1.0916  1.4509 -1.7099
12029TIP3    H257503   3.993   6.730  13.572  0.5877  0.3420 -1.1756
12030TIP3   OH257504   5.487   4.118  11.164  0.4224  0.1099  0.0379
12030TIP3    H157505   5.553   4.185  11.182  1.1394 -1.0586  1.8700
12030TIP3    H257506   5.440   4.107  11.247  0.0167 -1.3351 -0.3651
12031TIP3   OH257507   1.058   4.523   0.535 -0.1214 -0.1041 -0.5768
12031TIP3    H157508   1.016   4.528   0.449 -0.0666 -0.3434 -0.6198
12031TIP3    H257509   1.131   4.462   0.521 -0.7044 -0.9191 -0.1190
12032TIP3   OH257510   2.780   6.553   6.202 -0.2272 -0.5386 -0.3348
12032TIP3    H157511   2.843   6.570   6.272  0.5595 -0.2501 -1.0962
12032TIP3    H257512   2.820   6.591   6.124 -0.4448 -2.0445 -1.2165
12033TIP3   OH257513   2.668   3.862   2.818  0.0670 -0.1911 -0.7335
12033TIP3    H157514   2.752   3.820   2.796  0.4885  0.5131 -0.4679
12033TIP3    H257515   2.652   3.924   2.747  1.2800  1.8677  0.7317
12034TIP3   OH257516   2.583   2.411  13.357  0.6471 -0.2878  0.3124
12034TIP3    H157517   2.604   2.393  13.448 -0.6100  1.0056  0.8789
12034TIP3    H257518   2.565   2.505  13.354 -1.0609 -0.6192 -0.9003
12035TIP3   OH257519   5.913   4.608  16.949 -0.1584  0.7053 -0.2113
12035TIP3    H157520   5.908   4.685  17.006 -1.0291  0.3292  0.2358
12035TIP3    H257521   5.975   4.550  16.992 -1.9005 -0.2026  1.1389
12036TIP3   OH257522   5.579   5.155  15.037  0.4205  0.2014  0.3361
12036TIP3    H157523   5.537   5.096  14.974  0.0638 -0.6716  1.3713
12036TIP3    H257524   5.538   5.133  15.121  0.4049  1.8162  0.7685
12037TIP3   OH257525   2.659   3.564  16.896  0.2803  0.0251  0.2604
12037TIP3    H157526   2.686   3.656  16.900  2.9129 -0.5662 -2.1358
12037TIP3    H257527   2.738   3.515  16.921 -0.6828 -1.6258  0.1260
12038TIP3   OH257528   4.210   6.213  11.891 -0.8419  0.1539 -0.2002
12038TIP3    H157529   4.230   6.121  11.877  0.4920  0.2521  0.9726
12038TIP3    H257530   4.134   6.230  11.836 -2.4123 -2.1699  1.2144
12039TIP3   OH257531   2.839   2.544   3.435  0.2582  0.6205  0.5753
12039TIP3    H157532   2.908   2.496   3.481 -1.2278 -1.0478  1.1391
12039TIP3    H257533   2.773   2.562   3.502  0.6889  3.3236  0.3186
12040TIP3   OH257534   4.143   1.774  15.482 -0.2356 -0.1701 -0.3430
12040TIP3    H157535   4.088   1.743  15.553  1.2346  0.7589  1.2397
12040TIP3    H257536   4.183   1.854  15.515  1.8735 -0.6778 -1.5339
12041TIP3   OH257537   5.888   2.455   0.466 -0.0271  0.1130 -0.0649
12041TIP3    H157538   5.826   2.434   0.535 -2.3704 -2.8813 -2.9231
12041TIP3    H257539   5.924   2.371   0.439  3.5942  1.5650 -0.0775
12042TIP3   OH257540   6.160   1.832  12.205  0.0987  0.8173  0.6865
12042TIP3    H157541   6.169   1.817  12.300 -0.6225 -0.7523  0.5281
12042TIP3    H257542   6.084   1.779  12.180  0.3498  1.1397 -0.7945
12043TIP3   OH257543   4.092   6.730   1.518  0.6005 -0.1854  0.9382
12043TIP3    H157544   4.154   6.768   1.456 -1.2139  0.6361 -0.4539
12043TIP3    H257545   4.035   6.675   1.464  0.4267 -1.3258  2.2568
12044TIP3   OH257546   4.140   5.684   3.304  0.0706  0.0325 -0.4878
12044TIP3    H157547   4.168   5.669   3.214  0.1035  1.7701 -0.7727
12044TIP3    H257548   4.194   5.757   3.335 -0.1438 -0.3562  0.8504
12045TIP3   OH257549   4.179   4.350   1.534 -0.2433  0.1519  0.7528
12045TIP3    H157550   4.267   4.343   1.571  0.6094  0.4773 -1.2098
12045TIP3    H257551   4.186   4.414   1.464 -2.3588  1.2117  1.4363
12046TIP3   OH257552   6.342   4.318  11.051 -0.0493  0.0084 -0.0560
12046TIP3    H157553   6.407   4.388  11.059 -0.2363  0.3301 -1.3114
12046TIP3    H257554   6.354   4.265  11.130  0.6428  0.9878  0.5026
12047TIP3   OH257555   4.563   2.917   0.866 -0.1710  0.0165 -0.1618
12047TIP3    H157556   4.563   2.932   0.961 -2.0083  1.7861 -0.3897
12047TIP3    H257557   4.517   2.834   0.855  0.9614 -0.7231  0.5340
12048TIP3   OH257558   0.511   2.978  11.744  0.3133  0.4368 -0.1872
12048TIP3    H157559   0.468   2.955  11.826  1.3772  0.0169  0.2574
12048TIP3    H257560   0.474   3.063  11.720 -0.7182  0.1049  0.2166
12049TIP3   OH257561   1.554   4.729  12.274 -0.1338 -0.2346 -0.2208
12049TIP3    H157562   1.593   4.773  12.350 -0.5122  0.7260 -0.5723
12049TIP3    H257563   1.515   4.649  12.310  1.1750 -0.6631  0.3180
12050TIP3   OH257564   0.428   2.368   3.787 -0.5078  0.5121  0.0524
12050TIP3    H157565   0.517   2.333   3.791 -0.7843 -0.0519  1.4479
12050TIP3    H257566   0.373   2.291   3.772 -0.6206  1.0840 -2.8098
12051TIP3   OH257567   0.062   1.895   3.088 -0.4338 -0.9119 -0.7018
12051TIP3    H157568   0.145   1.853   3.066  0.0743 -0.0655 -0.4086
12051TIP3    H257569   0.078   1.988   3.075 -1.1278 -0.6880  0.0236
12052TIP3   OH257570   6.651   1.706   2.433  0.0989 -0.0490  0.5840
12052TIP3    H157571   6.638   1.642   2.503 -0.8576  0.2629  0.6956
12052TIP3    H257572   6.732   1.678   2.390 -1.0367 -2.1760 -0.2677
12053TIP3   OH257573   4.090   6.166  11.116 -0.1481  0.3193  0.1850
12053TIP3    H157574   4.047   6.101  11.061  0.7809  0.4494 -0.6976
12053TIP3    H257575   4.162   6.200  11.063 -0.8635  2.3602  0.4803
12054TIP3   OH257576   4.244   2.644   5.053 -0.1293  0.4295 -0.8649
12054TIP3    H157577   4.210   2.560   5.023 -1.3301  0.1725  1.1208
12054TIP3    H257578   4.187   2.709   5.012 -1.1724  0.1187  0.0419
12055TIP3   OH257579   3.079   4.984  11.194 -0.1798  0.1593  0.0190
12055TIP3    H157580   3.048   5.058  11.142 -3.4411 -0.9264  0.3110
12055TIP3    H257581   3.089   4.912  11.131  1.1671  0.3124  0.0395
12056TIP3   OH257582   5.908   2.385   2.289 -0.3648  0.8584 -0.1676
12056TIP3    H157583   5.876   2.329   2.218  0.1762 -1.3359  1.2694
12056TIP3    H257584   5.987   2.425   2.254  1.0908 -1.8609 -0.1029
12057TIP3   OH257585   3.896   2.332   3.504  0.5484  0.6833 -0.1798
12057TIP3    H157586   3.860   2.262   3.557  0.8361  0.6835  0.0179
12057TIP3    H257587   3.982   2.350   3.543  0.9281  0.4162 -0.8771
12058TIP3   OH257588   2.313   4.787  14.218  0.7489 -0.2358  0.6070
12058TIP3    H157589   2.297   4.705  14.171  0.9631  1.3013 -2.2525
12058TIP3    H257590   2.406   4.803  14.207  0.1112  2.1168 -1.8657
12059TIP3   OH257591   5.511   4.174   0.808  0.0358 -0.0022 -0.2085
12059TIP3    H157592   5.470   4.229   0.874  2.5425  0.5713  0.9061
12059TIP3    H257593   5.537   4.234   0.738 -0.2783 -0.2494 -0.5421
12060TIP3   OH257594   3.978   3.232   4.413  0.3992 -0.1016 -0.3997
12060TIP3    H157595   4.029   3.193   4.342 -1.1856 -0.9813 -1.0872
12060TIP3    H257596   3.898   3.261   4.370 -0.4554 -0.4122  0.9869
12061TIP3   OH257597   1.654   2.232   1.974  0.2503  0.3396  0.1796
12061TIP3    H157598   1.644   2.327   1.983  1.1320  0.4977 -0.3452
12061TIP3    H257599   1.590   2.207   1.907  2.4294  1.1368 -2.2979
12062TIP3   OH257600   5.171   2.954   6.702  0.1350 -0.5819 -0.3687
12062TIP3    H157601   5.127   2.869   6.707  1.7021 -1.3872 -0.1262
12062TIP3    H257602   5.264   2.933   6.693  0.5520  1.1057 -0.1923
12063TIP3   OH257603   4.514   6.088  10.535 -0.0348  0.0125  0.1736
12063TIP3    H157604   4.481   6.175  10.514 -1.6514 -0.8088 -0.7089
12063TIP3    H257605   4.459   6.027  10.486  0.8518 -1.5459  1.0346
12064TIP3   OH257606   5.658   6.622   0.205 -0.0359 -0.5807  0.0975
12064TIP3    H157607   5.593   6.692   0.195  1.7469  1.2685  0.9492
12064TIP3    H257608   5.742   6.667   0.201  1.1758 -2.7565  0.2977
12065TIP3   OH257609   1.611   1.450   3.935  0.1025 -0.5345  0.3192
12065TIP3    H157610   1.644   1.539   3.947 -0.0356 -0.0071 -2.7947
12065TIP3    H257611   1.516   1.461   3.926 -0.5140 -1.5431  4.4046
12066TIP3   OH257612   2.513   6.422  16.757  1.1439 -0.0580  0.2340
12066TIP3    H157613   2.439   6.463  16.802  0.0992  0.0923 -1.5758
12066TIP3    H257614   2.571   6.495  16.735  0.0769  0.2994 -1.5221
12067TIP3   OH257615   1.811   0.948  14.669  0.4354 -0.3672  0.1949
12067TIP3    H157616   1.874   0.879  14.689  1.8571  0.5622 -1.0156
12067TIP3    H257617   1.798   0.942  14.574  0.3470  0.8508  0.1216
12068TIP3   OH257618   0.217   3.338   0.594 -0.0217 -0.0985  0.2103
12068TIP3    H157619   0.242   3.245   0.589  0.2100  0.0559 -2.6736
12068TIP3    H257620   0.285   3.383   0.544  0.8579  1.8718  3.1204
12069TIP3   OH257621   1.406   4.935   1.614 -0.1295 -0.5070 -0.9411
12069TIP3    H157622   1.314   4.960   1.608 -0.1339  0.6111  2.5806
12069TIP3    H257623   1.405   4.845   1.646  0.0027 -0.6150 -1.2378
12070TIP3   OH257624   3.395   2.083   6.085 -0.0183 -0.0347 -0.2516
12070TIP3    H157625   3.451   2.035   6.146 -0.4931 -1.6170 -1.0572
12070TIP3    H257626   3.381   2.023   6.012 -1.4362  0.9612 -0.8182
12071TIP3   OH257627   3.664   0.834   1.304  0.3859  0.0784  0.3560
12071TIP3    H157628   3.726   0.842   1.376  1.3263  1.2289 -0.5655
12071TIP3    H257629   3.607   0.761   1.329  0.8942  0.2680  2.1048
12072TIP3   OH257630   4.332   1.478  11.189  0.3525  0.1457  0.6086
12072TIP3    H157631   4.409   1.534  11.197  0.4763 -0.1237  1.3874
12072TIP3    H257632   4.306   1.484  11.097  1.0697  0.5452  0.4351
12073TIP3   OH257633   3.558   2.250  15.231 -0.1600 -0.1059  0.1521
12073TIP3    H157634   3.653   2.258  15.223 -0.2314  0.4274 -0.2574
12073TIP3    H257635   3.544   2.206  15.315  0.4462 -0.2052  0.2047
12074TIP3   OH257636   3.425   2.460   4.185  0.8843 -0.1394 -0.7129
12074TIP3    H157637   3.376   2.495   4.111 -1.0844  0.1195  0.6687
12074TIP3    H257638   3.456   2.374   4.156 -0.7570 -0.4888 -1.4654
12075TIP3   OH257639   0.934   3.199  11.921 -0.1187  0.3546  0.3372
12075TIP3    H157640   0.897   3.281  11.955 -0.4861  0.0531  0.6685
12075TIP3    H257641   0.910   3.133  11.986 -1.0818 -0.2840 -0.6401
12076TIP3   OH257642   5.727   3.477  14.353 -0.1397 -0.6439  0.3175
12076TIP3    H157643   5.701   3.416  14.422  1.8977  0.8901  2.5084
12076TIP3    H257644   5.680   3.557  14.372 -3.8953 -1.8193 -3.3657
12077TIP3   OH257645   4.764   3.304  16.075  0.2184  0.1497 -0.4178
12077TIP3    H157646   4.794   3.225  16.120 -1.0374 -0.6283 -0.9186
12077TIP3    H257647   4.704   3.346  16.137 -1.2451 -0.7437 -1.1893
12078TIP3   OH257648   4.369   6.588   0.868 -0.0134  0.7492 -0.2743
12078TIP3    H157649   4.463   6.579   0.885 -0.2093 -0.1975  0.4040
12078TIP3    H257650   4.350   6.517   0.806 -0.7531 -0.7772  1.6308
12079TIP3   OH257651   5.564   3.111   4.823  0.6359  0.9087 -0.4004
12079TIP3    H157652   5.628   3.048   4.792  1.8227  1.8204  0.1568
12079TIP3    H257653   5.480   3.067   4.813  1.5217 -1.1965  0.9855
12080TIP3   OH257654   0.801   0.332   0.270  0.3621 -0.5072  0.1562
12080TIP3    H157655   0.789   0.239   0.253  0.1657 -0.2891 -0.9498
12080TIP3    H257656   0.896   0.343   0.275  0.5179 -0.2744 -2.7308
12081TIP3   OH257657   4.644   5.844   0.780  0.0851  0.5199 -0.6582
12081TIP3    H157658   4.552   5.832   0.805 -0.3748  0.5774 -2.2366
12081TIP3    H257659   4.685   5.883   0.857 -1.0561 -0.1468  0.3164
12082TIP3   OH257660   5.951   5.641  12.181 -0.2275 -0.8368 -0.1361
12082TIP3    H157661   5.933   5.679  12.267 -0.3257  2.9523 -1.7594
12082TIP3    H257662   6.041   5.665  12.162 -1.0315  0.6206 -2.1977
12083TIP3   OH257663   0.092   5.974   4.241  0.0514  0.0809 -0.4322
12083TIP3    H157664   0.021   6.001   4.183 -0.3680  0.1854  0.1226
12083TIP3    H257665   0.063   6.000   4.328  0.3854 -0.6743 -0.0940
12084TIP3   OH257666   5.941   6.396   1.748 -0.5800 -0.6713 -0.2331
12084TIP3    H157667   5.919   6.359   1.834 -0.5410  0.3017  0.2029
12084TIP3    H257668   5.912   6.487   1.753  1.7190  0.0981 -0.3314
12085TIP3   OH257669   1.027   4.404   3.738 -0.0566  0.4556  0.2245
12085TIP3    H157670   1.036   4.497   3.717  0.2020  0.3209 -0.2734
12085TIP3    H257671   0.936   4.395   3.769 -0.4700  0.6575 -0.8884
12086TIP3   OH257672   4.989   1.397   1.451 -0.3239 -0.4651  0.7931
12086TIP3    H157673   5.058   1.367   1.392 -0.6513 -0.6827  0.5148
12086TIP3    H257674   5.023   1.477   1.490 -0.3197 -0.0378 -0.0894
12087TIP3   OH257675   3.908   5.929   4.326 -0.0224  0.5485  0.2996
12087TIP3    H157676   4.000   5.904   4.323 -0.5540 -1.3174 -2.1592
12087TIP3    H257677   3.900   6.000   4.262 -0.0747  1.5585  1.4088
12088TIP3   OH257678   0.230   3.974   0.317  0.2460  0.2663  0.7477
12088TIP3    H157679   0.189   3.934   0.241 -0.6789  0.3328  1.1973
12088TIP3    H257680   0.156   3.999   0.373  0.8914  0.7565  1.3871
12089TIP3   OH257681   6.061   3.321   3.952  0.2954  0.3458  0.1387
12089TIP3    H157682   5.994   3.300   3.887 -1.4528 -0.2205  2.0495
12089TIP3    H257683   6.038   3.409   3.981 -0.5708 -0.4255  1.8829
12090TIP3   OH257684   3.481   6.558  12.541 -0.6157 -0.3481  0.0788
12090TIP3    H157685   3.391   6.530  12.554 -0.7915  0.1505 -0.0314
12090TIP3    H257686   3.488   6.640  12.590 -1.3848  1.7273 -3.1105
12091TIP3   OH257687   4.103   1.045   1.794 -0.2487 -0.1205  1.1513
12091TIP3    H157688   4.075   1.038   1.885 -1.3851 -1.1808  0.7362
12091TIP3    H257689   4.021   1.054   1.745  0.4105  1.6267  0.3319
12092TIP3   OH257690   3.780   4.885   6.403 -0.1742  0.0804 -0.7775
12092TIP3    H157691   3.697   4.896   6.449  0.7260  2.1716  0.4309
12092TIP3    H257692   3.830   4.825   6.458  1.3002  3.3899  1.6559
12093TIP3   OH257693   4.869   5.146   2.034 -0.3520 -0.2357  0.2437
12093TIP3    H157694   4.900   5.108   2.117 -0.8720 -2.8671 -0.7184
12093TIP3    H257695   4.946   5.190   1.998  1.1907 -3.0766 -0.0753
12094TIP3   OH257696   5.006   5.545   3.423  0.1764 -0.5316  0.1000
12094TIP3    H157697   4.931   5.498   3.458 -0.9096  0.8549 -0.3513
12094TIP3    H257698   5.029   5.498   3.343 -0.4642 -0.7181  0.0237
12095TIP3   OH257699   6.494   3.224  12.293 -0.1456 -0.0181 -0.1666
12095TIP3    H157700   6.557   3.179  12.237  1.9493  0.6039  1.6027
12095TIP3    H257701   6.477   3.162  12.364  0.2877  0.7188  0.5871
12096TIP3   OH257702   0.505   1.051   1.970  0.1879 -0.3949  0.0811
12096TIP3    H157703   0.457   0.986   1.918  0.3357 -0.0928 -0.4305
12096TIP3    H257704   0.583   1.004   2.000 -1.1089 -1.3481  2.1409
12097TIP3   OH257705   0.667   3.129  12.482  0.0893  0.2779  0.9253
12097TIP3    H157706   0.615   3.086  12.550  0.2125 -0.4464  0.5672
12097TIP3    H257707   0.705   3.205  12.526 -0.7988  0.4800  1.3409
12098TIP3   OH257708   3.309   5.659   5.431 -1.1048  0.3258  0.8022
12098TIP3    H157709   3.359   5.740   5.443  0.0581 -0.1610 -0.6645
12098TIP3    H257710   3.300   5.650   5.336  0.1904 -2.0975  0.8755
12099TIP3   OH257711   3.179   3.594  13.313 -0.0302 -0.7443  0.1108
12099TIP3    H157712   3.186   3.690  13.314  1.5186 -0.8319 -1.0908
12099TIP3    H257713   3.086   3.577  13.328 -0.7133  1.0087 -1.8468
12100TIP3   OH257714   6.487   0.025  13.751 -0.4703  0.5890  0.4334
12100TIP3    H157715   6.547   0.075  13.806  1.0814 -1.4038  0.6257
12100TIP3    H257716   6.443   0.091  13.696  3.3475  1.9693 -1.1220
12101TIP3   OH257717   2.430   2.572  16.402  0.0813  0.8371  0.6241
12101TIP3    H157718   2.440   2.663  16.431 -1.4814  0.7838  1.3839
12101TIP3    H257719   2.519   2.539  16.397  0.7617  2.8121 -0.9892
12102TIP3   OH257720   0.701   1.653  12.720 -0.1006  0.6372 -0.1941
12102TIP3    H157721   0.744   1.710  12.784  0.1853  0.7706 -0.5038
12102TIP3    H257722   0.773   1.612  12.672 -0.2918 -0.8226  0.7488
12103TIP3   OH257723   0.643   5.702   2.771  0.1937  0.1278 -0.8020
12103TIP3    H157724   0.712   5.648   2.733 -1.3501 -1.9579 -0.7673
12103TIP3    H257725   0.562   5.662   2.740 -1.0210  2.7812 -1.1980
12104TIP3   OH257726   6.045   6.023  10.749 -0.2587 -0.3522 -0.0640
12104TIP3    H157727   6.071   5.953  10.689 -1.1593  0.2616 -1.1952
12104TIP3    H257728   5.981   6.075  10.700  0.5897  1.4295  0.6621
12105TIP3   OH257729   2.882   0.795  16.859 -0.1506  0.0748  0.6048
12105TIP3    H157730   2.965   0.785  16.907  0.2529 -0.7075 -0.2377
12105TIP3    H257731   2.822   0.834  16.923  1.2173  1.8680  0.8524
12106TIP3   OH257732   6.164   0.330   3.831  0.7251 -0.6391 -0.4232
12106TIP3    H157733   6.143   0.423   3.827 -1.8043 -1.1398  0.4531
12106TIP3    H257734   6.181   0.305   3.740 -4.1468 -0.5041 -1.4824
12107TIP3   OH257735   6.293   4.861   1.941 -0.0499  0.4992  0.0486
12107TIP3    H157736   6.378   4.861   1.987  0.4949  0.0278 -0.9388
12107TIP3    H257737   6.279   4.770   1.918 -0.7587  0.6026  0.0794
12108TIP3   OH257738   6.217   5.314   1.101  0.3697 -0.0202 -0.0659
12108TIP3    H157739   6.175   5.254   1.162 -0.8339  1.0085  0.1494
12108TIP3    H257740   6.180   5.292   1.016  2.1393 -1.5379 -0.4683
12109TIP3   OH257741   2.821   2.323   3.769 -0.0698  0.2571 -0.6508
12109TIP3    H157742   2.743   2.270   3.752  0.0212  0.6101 -2.2938
12109TIP3    H257743   2.799   2.410   3.735  0.5786  0.6937  0.0339
12110TIP3   OH257744   0.690   6.248  10.249 -0.3213  0.1388 -0.3697
12110TIP3    H157745   0.657   6.169  10.292 -2.7378 -0.1016 -2.6041
12110TIP3    H257746   0.680   6.317  10.316 -0.2130 -1.0033  0.8496
12111TIP3   OH257747   2.053   6.612  12.740 -0.3969 -0.3425  0.2740
12111TIP3    H157748   2.099   6.528  12.740  0.3196  0.0060  3.1546
12111TIP3    H257749   1.971   6.594  12.694 -0.5189 -2.7885  1.3579
12112TIP3   OH257750   4.398   1.060   4.153  0.2000 -0.2732 -0.0145
12112TIP3    H157751   4.414   1.084   4.245  1.6412  2.4305 -0.9080
12112TIP3    H257752   4.386   1.144   4.109 -0.9510 -1.5704 -2.2411
12113TIP3   OH257753   3.459   6.142   1.774  0.1165 -0.5629  0.3386
12113TIP3    H157754   3.400   6.135   1.849  0.1415 -1.3521  0.2879
12113TIP3    H257755   3.460   6.054   1.736  1.9865 -0.7786  0.8458
12114TIP3   OH257756   5.301   0.133  14.170 -0.4984  0.5967  0.3439
12114TIP3    H157757   5.260   0.219  14.180 -0.9921  0.4418 -0.3018
12114TIP3    H257758   5.354   0.141  14.091  0.9526  0.8765  1.3137
12115TIP3   OH257759   2.278   1.044  15.971 -0.2278 -0.1206 -0.3057
12115TIP3    H157760   2.369   1.068  15.990 -0.5577  0.5155  0.5017
12115TIP3    H257761   2.257   0.978  16.036  0.0030 -1.0950 -1.2011
12116TIP3   OH257762   4.686   4.621   2.790  0.2270 -0.0829 -0.3379
12116TIP3    H157763   4.685   4.693   2.727  1.0505 -0.0649 -0.3324
12116TIP3    H257764   4.600   4.581   2.781  0.2410  0.0749 -1.3016
12117TIP3   OH257765   1.672   2.359  12.464  0.4040  0.3492 -0.0514
12117TIP3    H157766   1.648   2.437  12.514 -2.7488 -1.1480  0.8949
12117TIP3    H257767   1.720   2.304  12.526 -0.5432 -0.0226  0.3637
12118TIP3   OH257768   1.731   4.111  16.718 -0.4570  0.2337 -0.1338
12118TIP3    H157769   1.719   4.066  16.802  0.9542 -2.3120 -1.2469
12118TIP3    H257770   1.825   4.103  16.701 -0.5551  1.7294 -1.4326
12119TIP3   OH257771   6.094   3.833   3.386  0.3773 -0.1921  0.2090
12119TIP3    H157772   6.072   3.871   3.471 -2.1809  1.2512 -1.0395
12119TIP3    H257773   6.071   3.740   3.395  0.2793 -0.0829  1.1410
12120TIP3   OH257774   0.076   5.106   5.051  0.2563 -0.6574 -0.1986
12120TIP3    H157775   0.057   5.016   5.028  2.3817 -1.0685 -0.4866
12120TIP3    H257776   0.071   5.109   5.147  0.4857 -1.1515 -0.1738
12121TIP3   OH257777   3.501   6.527  11.859  0.0527 -0.2487 -0.4288
12121TIP3    H157778   3.457   6.446  11.834 -0.2708 -0.3601  0.4701
12121TIP3    H257779   3.483   6.536  11.953  0.4166  0.6588 -0.4393
12122TIP3   OH257780   6.139   1.504   1.750  0.0354  0.0581 -0.6137
12122TIP3    H157781   6.233   1.499   1.764  0.1558  0.9382 -1.0783
12122TIP3    H257782   6.123   1.594   1.720 -0.9307 -0.1156 -0.6574
12123TIP3   OH257783   1.482   0.044   2.621  0.0616 -0.1509  0.0541
12123TIP3    H157784   1.537   0.097   2.680  0.5402 -0.1928 -0.3523
12123TIP3    H257785   1.430  -0.011   2.680 -0.7515  1.0792  0.4910
12124TIP3   OH257786   6.307   6.460   4.061  0.6927 -0.3375 -0.2568
12124TIP3    H157787   6.258   6.541   4.073  1.4080  0.3242 -1.6250
12124TIP3    H257788   6.371   6.481   3.993  1.8816 -1.6182  0.4358
12125TIP3   OH257789   4.800   3.962  16.961  0.1436 -0.3103  0.0079
12125TIP3    H157790   4.777   3.939  16.871 -1.9505 -0.2218  0.4756
12125TIP3    H257791   4.758   3.893  17.014 -0.7530  0.9954  1.0294
12126TIP3   OH257792   0.654   3.886  15.800  0.3627 -0.2081 -0.1422
12126TIP3    H157793   0.736   3.897  15.846 -0.3395  1.3500  0.7719
12126TIP3    H257794   0.631   3.794  15.814  1.0196 -0.1868  1.1641
12127TIP3   OH257795   4.140   4.908  16.424 -0.0432  0.3279  0.7264
12127TIP3    H157796   4.049   4.882  16.407 -0.1401 -0.1990  2.0043
12127TIP3    H257797   4.148   4.993  16.382 -1.9730  1.6753  2.9576
12128TIP3   OH257798   2.983   5.295   6.225 -0.1580  0.3806  0.5594
12128TIP3    H157799   3.057   5.355   6.215  0.2582 -0.3269 -0.7933
12128TIP3    H257800   2.972   5.285   6.319  1.3105  0.7022  0.7713
12129TIP3   OH257801   6.247   6.602  16.318  0.2207 -0.6796  0.3790
12129TIP3    H157802   6.265   6.563  16.233 -1.3074 -1.0292  0.1884
12129TIP3    H257803   6.295   6.685  16.318  0.0327 -0.5627 -0.9137
12130TIP3   OH257804   0.787   0.292   4.350 -0.1171  0.0397 -0.0939
12130TIP3    H157805   0.840   0.216   4.324  1.5422  1.1560 -0.0380
12130TIP3    H257806   0.782   0.346   4.272  1.0783  1.2164  0.6235
12131TIP3   OH257807   0.164   6.741  16.924  0.2531  0.1585 -0.3516
12131TIP3    H157808   0.130   6.669  16.871  0.8187 -1.1825  1.0746
12131TIP3    H257809   0.110   6.740  17.003  0.4706  1.1087 -0.1881
12132TIP3   OH257810   5.793   3.717   0.810  0.5833 -0.6444  0.0659
12132TIP3    H157811   5.837   3.740   0.728 -0.7601  1.2952 -0.1516
12132TIP3    H257812   5.854   3.745   0.878 -0.2782  2.1026 -0.2291
12133TIP3   OH257813   2.896   0.983   1.444  0.1965 -0.0196  0.1682
12133TIP3    H157814   2.868   1.069   1.415 -0.9660 -0.4347  0.0015
12133TIP3    H257815   2.840   0.922   1.396  0.4036 -0.8291  0.9231
12134TIP3   OH257816   0.736   5.297   3.316  0.2424  0.0789  0.6222
12134TIP3    H157817   0.716   5.358   3.245  1.7477  1.3976  1.3001
12134TIP3    H257818   0.772   5.220   3.271 -1.4617 -0.2321 -0.2227
12135TIP3   OH257819   6.776   4.610   0.985 -0.4547 -0.7685 -0.7399
12135TIP3    H157820   6.750   4.633   1.074  3.7607 -0.1806  0.4704
12135TIP3    H257821   6.747   4.520   0.973 -0.3933 -1.0973  1.5324
12136TIP3   OH257822   1.978   4.453   5.688 -0.2741  0.1533 -0.5763
12136TIP3    H157823   2.057   4.451   5.634 -0.0925  2.8240 -0.4875
12136TIP3    H257824   1.922   4.519   5.647 -2.0801 -1.0020 -0.0739
12137TIP3   OH257825   3.630   6.781  12.006 -1.0153  0.1049 -0.3249
12137TIP3    H157826   3.675   6.838  12.069 -0.5132 -0.0421 -0.5455
12137TIP3    H257827   3.672   6.799  11.922  0.0162 -1.4802 -0.1771
12138TIP3   OH257828   2.949   5.435   3.135 -0.0833 -0.3168 -0.7751
12138TIP3    H157829   2.878   5.461   3.076 -1.1257  2.2352  1.4782
12138TIP3    H257830   3.009   5.509   3.134 -0.1342 -0.2107  1.3438
12139TIP3   OH257831   0.577   5.602  13.543 -0.4921 -0.0870  0.6145
12139TIP3    H157832   0.495   5.554  13.540 -0.8338  0.5810 -1.3159
12139TIP3    H257833   0.641   5.538  13.575 -1.6284 -0.7572  1.6027
12140TIP3   OH257834   0.337   3.824   4.583 -0.2051 -0.4836  0.4858
12140TIP3    H157835   0.274   3.768   4.540 -0.1775 -1.0562  1.1717
12140TIP3    H257836   0.420   3.806   4.539 -0.8364  1.6443 -1.6694
12141TIP3   OH257837   0.313   3.522  12.035 -0.2185 -0.0066 -0.1455
12141TIP3    H157838   0.236   3.505  11.979  0.0557  3.2388 -1.6229
12141TIP3    H257839   0.382   3.468  11.996 -0.8524 -0.2686 -0.9533
12142TIP3   OH257840   0.471   4.326  11.202  1.0840  0.1604 -0.1313
12142TIP3    H157841   0.547   4.290  11.157  1.9053 -0.1025  1.4521
12142TIP3    H257842   0.442   4.256  11.260 -0.9054 -0.0628 -1.3182
12143TIP3   OH257843   1.036   3.454   2.684  0.4421 -0.0897  0.1739
12143TIP3    H157844   0.981   3.510   2.630  0.4701  0.6020  0.8480
12143TIP3    H257845   1.123   3.459   2.643  0.5168  0.6184  0.4118
12144TIP3   OH257846   6.322   2.668   4.552 -0.2177 -0.0199  0.2357
12144TIP3    H157847   6.369   2.643   4.473 -0.4103 -0.5922  0.2934
12144TIP3    H257848   6.382   2.647   4.624  0.3169  1.3576  0.2011
12145TIP3   OH257849   2.880   0.452  13.404 -0.0945 -0.1635  0.0769
12145TIP3    H157850   2.807   0.407  13.360  0.2866 -0.6594 -0.0516
12145TIP3    H257851   2.938   0.478  13.332  0.6117 -1.1178  0.2860
12146TIP3   OH257852   1.612   5.926  14.016  0.7223  0.6232  0.0348
12146TIP3    H157853   1.575   5.979  13.945  0.7306 -0.6639 -0.9363
12146TIP3    H257854   1.698   5.965  14.032  0.2673  1.6209  0.1231
12147TIP3   OH257855   5.607   1.950  14.306  0.1131 -0.8300  0.3570
12147TIP3    H157856   5.604   1.890  14.232 -1.2841 -2.5256  1.7480
12147TIP3    H257857   5.529   1.929  14.357 -1.9419  3.9827 -0.4735
12148TIP3   OH257858   3.121   3.268  14.816 -0.2195  0.1111 -0.0627
12148TIP3    H157859   3.173   3.192  14.790 -1.4237 -0.4240 -1.0077
12148TIP3    H257860   3.150   3.339  14.758 -0.1693 -0.0397 -0.2216
12149TIP3   OH257861   6.177   4.885   4.792 -0.1356 -0.6910 -0.4496
12149TIP3    H157862   6.239   4.817   4.819 -1.2462 -1.5845 -0.0813
12149TIP3    H257863   6.209   4.916   4.707  2.0259  0.4065  0.7344
12150TIP3   OH257864   5.059   1.405  11.706  0.4875 -0.0020  0.3988
12150TIP3    H157865   5.102   1.485  11.735  0.1777 -0.4943  2.2546
12150TIP3    H257866   5.130   1.353  11.667  1.0526  0.3864  0.8888
12151TIP3   OH257867   6.523   6.619  12.300  0.7673  0.0307  0.2348
12151TIP3    H157868   6.482   6.684  12.243  0.0384  0.0421  0.7631
12151TIP3    H257869   6.616   6.642  12.300  0.7706  0.0764 -0.8862
12152TIP3   OH257870   4.965   1.575   5.223  0.1148  0.3444 -0.0380
12152TIP3    H157871   4.883   1.616   5.197 -0.3980 -0.2262  0.6490
12152TIP3    H257872   5.033   1.628   5.181 -0.6105  0.6635 -0.8203
12153TIP3   OH257873   1.417   0.549   5.169  0.2299  0.0903  0.2177
12153TIP3    H157874   1.333   0.520   5.206 -0.0412 -0.3901 -0.7569
12153TIP3    H257875   1.483   0.506   5.222 -0.1307  0.8434  1.3024
12154TIP3   OH257876   5.555   2.941  13.765 -0.0058  0.1638 -0.3048
12154TIP3    H157877   5.502   2.882  13.819 -0.8336  0.7681 -0.4525
12154TIP3    H257878   5.568   3.018  13.820 -0.8302  0.7703 -0.9489
12155TIP3   OH257879   2.197   0.819   2.976  0.6957 -0.3488 -0.2324
12155TIP3    H157880   2.220   0.887   3.039 -1.8990  1.5257 -1.2050
12155TIP3    H257881   2.229   0.854   2.892  1.0875 -1.2561 -0.4626
12156TIP3   OH257882   2.142   2.992  10.493 -0.0217 -0.3008  0.8419
12156TIP3    H157883   2.111   3.028  10.576 -1.6437 -1.3871  0.7262
12156TIP3    H257884   2.130   3.064  10.431  0.8693  0.3997  1.4715
12157TIP3   OH257885   4.746   0.079  13.871  0.7529 -0.1362  0.2257
12157TIP3    H157886   4.695   0.004  13.841  1.5181 -0.3629 -0.5112
12157TIP3    H257887   4.755   0.066  13.966  1.0284 -1.0547  0.0738
12158TIP3   OH257888   5.768   3.147  14.448  0.1470 -0.0676  0.1013
12158TIP3    H157889   5.802   3.217  14.503  0.4855  0.1986 -0.4385
12158TIP3    H257890   5.846   3.108  14.408 -0.2080  1.0083 -1.6935
12159TIP3   OH257891   1.374   0.357  13.331  0.4577  0.5062  0.2945
12159TIP3    H157892   1.420   0.313  13.401  1.0758  0.3329 -0.2178
12159TIP3    H257893   1.425   0.338  13.252  1.8652  3.7482  0.3326
12160TIP3   OH257894   3.282   1.592  11.678 -0.0272  0.6330 -0.0607
12160TIP3    H157895   3.336   1.653  11.627 -0.1808 -0.8605 -2.0965
12160TIP3    H257896   3.328   1.508  11.671  0.7451  0.7055  3.6084
12161TIP3   OH257897   5.973   4.547  12.691 -0.2904  0.0552 -0.3236
12161TIP3    H157898   6.046   4.510  12.641  0.0983  0.6600 -0.2019
12161TIP3    H257899   5.983   4.641  12.682  0.6603  0.2258  2.1708
12162TIP3   OH257900   4.270   2.599  16.297  0.0920  0.7488  0.1883
12162TIP3    H157901   4.211   2.529  16.323  1.0986  0.8495  2.8738
12162TIP3    H257902   4.357   2.569  16.324  0.9283  1.7634 -1.2897
12163TIP3   OH257903   4.284   1.879   6.485 -0.2457 -0.0844  0.2882
12163TIP3    H157904   4.301   1.804   6.429 -0.4035 -0.3562  0.6031
12163TIP3    H257905   4.268   1.951   6.424 -0.9362 -0.4963 -0.0282
12164TIP3   OH257906   6.276   5.676   6.462 -0.0341  0.5782 -0.3612
12164TIP3    H157907   6.334   5.611   6.502 -2.2987 -0.6827  1.0265
12164TIP3    H257908   6.285   5.661   6.368  0.9272 -0.4690 -0.1188
12165TIP3   OH257909   4.199   4.544   5.203  0.1628 -0.3833 -0.5759
12165TIP3    H157910   4.170   4.489   5.275  0.1694  0.3498 -0.0051
12165TIP3    H257911   4.179   4.494   5.124 -3.0040  0.2182 -0.2376
12166TIP3   OH257912   4.968   2.067   1.718 -0.0036  0.0670  0.4650
12166TIP3    H157913   5.055   2.075   1.680 -0.8762  0.8435 -1.4109
12166TIP3    H257914   4.946   1.974   1.710  0.4090 -0.0231  0.3970
12167TIP3   OH257915   3.429   6.404  16.748 -0.1008 -0.6105 -0.0320
12167TIP3    H157916   3.520   6.378  16.736 -0.1027 -0.5235 -0.2524
12167TIP3    H257917   3.432   6.474  16.813 -0.0909 -1.1236  0.5191
12168TIP3   OH257918   3.492   2.789  12.141  0.1197  0.2052  0.3399
12168TIP3    H157919   3.542   2.865  12.113 -0.1851  0.0888 -0.5094
12168TIP3    H257920   3.473   2.740  12.061 -1.9159  0.5758  0.5593
12169TIP3   OH257921   6.549   2.933   3.701  0.1071  0.0902 -0.0660
12169TIP3    H157922   6.502   2.849   3.704  1.2419 -0.5254  0.8158
12169TIP3    H257923   6.539   2.969   3.789  0.7552  0.2517 -0.0562
12170TIP3   OH257924   4.995   1.737   0.538  0.4111  0.2297  0.0250
12170TIP3    H157925   4.962   1.796   0.606 -1.5013 -1.1797  0.3725
12170TIP3    H257926   4.997   1.791   0.458  1.7670  1.6283  0.9790
12171TIP3   OH257927   3.023   1.977  15.512 -0.4543 -0.0896  0.2430
12171TIP3    H157928   2.947   1.973  15.571 -1.2061  0.9475 -0.6331
12171TIP3    H257929   2.986   1.961  15.425  0.4068  0.0254 -0.1404
12172TIP3   OH257930   1.958   6.244   5.813 -0.4995 -0.6497  0.0699
12172TIP3    H157931   1.993   6.225   5.726 -0.3644 -1.2339  0.2465
12172TIP3    H257932   2.014   6.314   5.847 -0.5683 -0.4032 -0.3207
12173TIP3   OH257933   3.618   5.060   1.784 -0.5068  0.1206 -0.7846
12173TIP3    H157934   3.596   4.967   1.783 -0.0023 -0.0064 -0.3229
12173TIP3    H257935   3.660   5.074   1.869 -1.3778  0.9578 -0.4769
12174TIP3   OH257936   4.255   3.131  15.088 -0.0682 -0.2089  0.5688
12174TIP3    H157937   4.225   3.043  15.065  1.2711 -0.4997 -0.1135
12174TIP3    H257938   4.214   3.188  15.023 -0.1303 -0.4581  0.3892
12175TIP3   OH257939   3.178   1.576  14.520 -0.6077  0.1385  0.1850
12175TIP3    H157940   3.096   1.569  14.570 -2.2028  0.5974 -2.2548
12175TIP3    H257941   3.247   1.556  14.583 -2.6414 -0.7554  2.1913
12176TIP3   OH257942   2.216   1.267   3.186 -0.6077 -0.3847 -0.4316
12176TIP3    H157943   2.253   1.191   3.140  0.9509 -0.4673  0.9045
12176TIP3    H257944   2.152   1.303   3.124  0.5871 -1.1770 -2.1994
12177TIP3   OH257945   3.962   3.964   2.645  0.1692  0.3894  0.0833
12177TIP3    H157946   4.002   3.973   2.558  0.2065  3.0183  0.3229
12177TIP3    H257947   3.874   3.930   2.628 -0.0312  1.4394 -1.0477
12178TIP3   OH257948   5.899   0.665  12.063  0.1671 -0.2252 -0.3092
12178TIP3    H157949   5.938   0.585  12.100 -1.1840 -0.3127  0.9841
12178TIP3    H257950   5.964   0.733  12.078  1.6828 -1.2399 -2.1693
12179TIP3   OH257951   3.531   5.260  13.650  0.1539  0.9816  0.0464
12179TIP3    H157952   3.622   5.273  13.678 -0.0470  2.5998  0.0123
12179TIP3    H257953   3.488   5.221  13.725  1.1236 -0.8909 -0.3255
12180TIP3   OH257954   3.069   5.237   1.422  0.4171 -0.0401  0.1536
12180TIP3    H157955   3.070   5.183   1.343 -0.7404  1.0972 -0.6606
12180TIP3    H257956   3.080   5.175   1.494  0.0501 -1.2580 -0.8221
12181TIP3   OH257957   1.091   0.995  11.438  0.3348  0.6974 -0.3291
12181TIP3    H157958   1.023   1.034  11.493  0.6005 -0.4900  0.8532
12181TIP3    H257959   1.166   0.984  11.496  1.2754  1.2448 -1.4268
12182TIP3   OH257960   4.583   1.588  11.125 -0.2503 -0.0989  0.6574
12182TIP3    H157961   4.678   1.589  11.135 -0.0103  0.1221 -1.4625
12182TIP3    H257962   4.562   1.673  11.087 -1.2032 -0.4522  0.3812
12183TIP3   OH257963   2.942   3.867   4.049 -0.4504 -0.5579 -0.0866
12183TIP3    H157964   3.009   3.815   4.094  0.0551  1.7942  1.9602
12183TIP3    H257965   2.909   3.927   4.115 -2.3992  0.4329 -1.8925
12184TIP3   OH257966   1.165   1.802  14.221 -0.0917  0.8588 -0.4322
12184TIP3    H157967   1.250   1.838  14.194  0.2902  1.9916  2.1365
12184TIP3    H257968   1.117   1.877  14.256 -1.6224 -0.0332 -0.6024
12185TIP3   OH257969   1.508   4.141   4.654 -0.4563  0.2587  0.1662
12185TIP3    H157970   1.583   4.083   4.638 -1.7362 -1.1149 -0.9402
12185TIP3    H257971   1.497   4.189   4.572 -0.7777  0.4723  0.3349
12186TIP3   OH257972   1.496   3.660   0.816 -0.9094  0.1346  0.6157
12186TIP3    H157973   1.411   3.616   0.812 -1.6349  1.4353  1.3960
12186TIP3    H257974   1.549   3.606   0.874 -1.6157 -0.0347  1.1134
12187TIP3   OH257975   3.916   6.194   0.591  0.0487 -0.4376  0.0940
12187TIP3    H157976   3.982   6.236   0.646  0.2707 -2.5873  1.5032
12187TIP3    H257977   3.958   6.188   0.505  0.3463  1.3444  0.0842
12188TIP3   OH257978   3.540   6.139  15.973  0.1917  0.2212 -0.5150
12188TIP3    H157979   3.581   6.226  15.971 -0.3714  0.5607  1.4020
12188TIP3    H257980   3.561   6.105  16.060 -2.7001 -0.0403  0.1367
12189TIP3   OH257981   5.013   3.719   2.406  0.2226 -0.4041 -0.0647
12189TIP3    H157982   4.923   3.720   2.374  0.3632 -1.1733 -0.5145
12189TIP3    H257983   5.036   3.811   2.417 -1.1670 -0.2458  1.6222
12190TIP3   OH257984   5.548   0.870   0.409 -0.3415 -0.0403  0.1732
12190TIP3    H157985   5.530   0.785   0.368 -1.3591  0.9316 -1.4686
12190TIP3    H257986   5.461   0.907   0.426  0.0632  1.6581 -1.2941
12191TIP3   OH257987   2.183   6.396  16.157  0.3771 -0.0978  0.2820
12191TIP3    H157988   2.256   6.428  16.209  0.5395  0.0004 -0.0048
12191TIP3    H257989   2.125   6.353  16.220 -1.0098  2.7931  1.0545
12192TIP3   OH257990   5.733   4.084  10.669 -0.2797  0.3657 -0.7450
12192TIP3    H157991   5.813   4.126  10.701 -1.0475  0.6801  0.7929
12192TIP3    H257992   5.680   4.072  10.747 -2.3987  1.5609 -1.9761
12193TIP3   OH257993   1.265   0.097   0.782  0.2165  0.0549  0.1798
12193TIP3    H157994   1.187   0.042   0.776 -0.4655  0.8557  1.3893
12193TIP3    H257995   1.273   0.136   0.695 -2.2873  2.0002  0.7500
12194TIP3   OH257996   6.156   0.112  16.456 -0.0762 -0.3358  0.3062
12194TIP3    H157997   6.117   0.183  16.508 -0.7450 -0.0524 -0.5476
12194TIP3    H257998   6.104   0.035  16.478 -0.3644 -0.2145  0.0584
12195TIP3   OH257999   5.681   6.328  11.602 -0.1268  0.2612  0.0062
12195TIP3    H158000   5.602   6.380  11.613 -1.0431 -1.2672  0.8002
12195TIP3    H258001   5.753   6.390  11.615 -1.1911  1.5469 -0.1979
12196TIP3   OH258002   5.918   6.072  15.911 -0.1046 -0.0669 -0.3911
12196TIP3    H158003   5.983   6.141  15.924 -0.7118  0.4499 -0.0656
12196TIP3    H258004   5.879   6.058  15.997 -0.7594 -0.0362 -0.6751
12197TIP3   OH258005   3.085   5.052   6.106  0.6638  0.0688  0.4244
12197TIP3    H158006   3.021   5.109   6.149  2.3352  2.8385 -0.6110
12197TIP3    H258007   3.032   4.986   6.062 -1.4587  1.5620  0.6318
12198TIP3   OH258008   3.481   5.879  16.397  0.2139  0.1565  0.0145
12198TIP3    H158009   3.498   5.955  16.453 -0.7158 -0.1115  0.6601
12198TIP3    H258010   3.440   5.815  16.454  1.9945 -1.2747 -0.2525
12199TIP3   OH258011   4.794   2.252   2.345  0.0230  0.1420  0.0657
12199TIP3    H158012   4.726   2.192   2.315 -0.2811  0.0193  0.9889
12199TIP3    H258013   4.760   2.290   2.426  0.6123  0.8564 -0.0042
12200TIP3   OH258014   6.698   3.728   2.259 -0.2017 -0.5038 -0.0661
12200TIP3    H158015   6.780   3.750   2.214 -0.8138  0.6481 -0.6009
12200TIP3    H258016   6.630   3.739   2.194 -0.8450 -1.1008  0.4896
12201TIP3   OH258017   2.875   2.172   2.347  0.3028 -0.2983  0.7758
12201TIP3    H158018   2.875   2.119   2.268 -1.4221 -1.9791  1.8653
12201TIP3    H258019   2.930   2.248   2.325  1.9915 -2.0156 -1.1243
12202TIP3   OH258020   1.667   4.654   4.300  0.0797  0.1773  0.3753
12202TIP3    H158021   1.574   4.632   4.312 -0.5723  0.8908 -2.9933
12202TIP3    H258022   1.700   4.587   4.241  1.0492  1.4469 -0.5310
12203TIP3   OH258023   1.715   3.407   2.300  0.5336  0.0188 -0.1131
12203TIP3    H158024   1.747   3.497   2.298  1.5756 -0.3420  0.0282
12203TIP3    H258025   1.728   3.375   2.210 -0.1076  0.0996 -0.2369
12204TIP3   OH258026   0.780   6.313  15.157  0.3401  0.1332  0.4702
12204TIP3    H158027   0.694   6.322  15.198 -1.1393  0.2761 -2.5355
12204TIP3    H258028   0.810   6.402  15.141 -0.2515  0.0723 -1.0490
12205TIP3   OH258029   5.226   2.844  14.018 -0.0148  0.2606  0.1813
12205TIP3    H158030   5.145   2.877  14.056  0.7629  2.3760  0.0701
12205TIP3    H258031   5.288   2.845  14.091  0.3089  0.1036 -0.0924
12206TIP3   OH258032   4.923   4.182   4.349 -0.5501  0.0330  0.2219
12206TIP3    H158033   4.981   4.120   4.393 -2.6428 -0.3503  2.5805
12206TIP3    H258034   4.935   4.264   4.396  0.3656  0.8044 -1.3052
12207TIP3   OH258035   1.453   0.479   4.910  0.1796 -0.3561 -0.1988
12207TIP3    H158036   1.449   0.492   5.004  3.4870  2.6001 -0.3512
12207TIP3    H258037   1.535   0.431   4.895  0.1175 -0.0659 -1.6045
12208TIP3   OH258038   2.864   4.128  16.696  0.4808  0.6427  0.1013
12208TIP3    H158039   2.782   4.097  16.735  0.6170  2.8456  2.2760
12208TIP3    H258040   2.930   4.067  16.728 -0.3950 -1.6657 -2.3716
12209TIP3   OH258041   0.186   4.596  14.322 -0.0480  0.4330 -0.2638
12209TIP3    H158042   0.094   4.571  14.319  0.2814 -0.7095 -1.4315
12209TIP3    H258043   0.217   4.564  14.407 -0.0971 -1.5636 -0.9587
12210TIP3   OH258044   5.122   3.871  13.761 -0.6010  0.0675 -0.0692
12210TIP3    H158045   5.151   3.896  13.849  0.3428 -0.2635 -0.2901
12210TIP3    H258046   5.093   3.780  13.770  0.9910 -0.4937 -0.4372
12211TIP3   OH258047   5.930   2.467   6.531  0.4723  0.0227  0.2772
12211TIP3    H158048   5.849   2.420   6.554  0.7126 -0.1753  0.7284
12211TIP3    H258049   6.000   2.408   6.558  0.7695 -0.2272 -0.9883
12212TIP3   OH258050   2.300   3.593   5.782  0.3565 -0.1988  0.1970
12212TIP3    H158051   2.273   3.649   5.708  2.1772 -0.0841 -0.3981
12212TIP3    H258052   2.217   3.563   5.820 -0.6201  0.3996 -1.3916
12213TIP3   OH258053   4.291   0.299   2.407 -0.2281  0.2352  0.1225
12213TIP3    H158054   4.346   0.221   2.402  1.8070  1.6466 -0.2572
12213TIP3    H258055   4.261   0.313   2.317  0.1196  0.3905  0.0309
12214TIP3   OH258056   4.862   0.402  16.691  0.9330 -0.7640  0.4751
12214TIP3    H158057   4.895   0.484  16.655  1.1004  0.3160  2.9538
12214TIP3    H258058   4.786   0.381  16.637  1.6261  0.3549 -0.9630
12215TIP3   OH258059   0.866   5.623   2.011 -0.1207  0.4198 -0.1104
12215TIP3    H158060   0.778   5.639   2.047  0.1305  3.0972 -0.5821
12215TIP3    H258061   0.896   5.709   1.983  2.0287 -0.7329 -1.4431
12216TIP3   OH258062   1.582   5.760   4.348  0.0109 -0.2279  0.2688
12216TIP3    H158063   1.654   5.819   4.323 -0.0255 -0.4059 -0.2443
12216TIP3    H258064   1.548   5.798   4.429 -0.7658  1.1132 -0.6692
12217TIP3   OH258065   5.725   1.481  12.330  0.2620 -0.0368 -0.0910
12217TIP3    H158066   5.636   1.512  12.312  0.2599  0.5901  0.9752
12217TIP3    H258067   5.771   1.490  12.247 -0.3317  0.7973 -0.3322
12218TIP3   OH258068   3.271   1.409   1.132 -0.2472  0.3934  0.6202
12218TIP3    H158069   3.243   1.318   1.134  1.9413 -0.2973  1.1309
12218TIP3    H258070   3.286   1.428   1.039  0.8730 -0.2930  0.6474
12219TIP3   OH258071   5.888   4.663  15.547  0.1319  0.1486  0.0018
12219TIP3    H158072   5.854   4.751  15.562 -0.1675 -0.0274  0.3521
12219TIP3    H258073   5.904   4.659  15.452  1.9751  1.2430  0.2356
12220TIP3   OH258074   1.853   6.233  13.608  0.2711  0.0970 -0.9001
12220TIP3    H158075   1.912   6.305  13.584  0.8881 -0.3146 -0.6477
12220TIP3    H258076   1.765   6.266  13.591  0.4544  1.5181  0.7207
12221TIP3   OH258077   2.827   2.088   2.630 -0.1550  0.3833 -0.3958
12221TIP3    H158078   2.862   2.091   2.541  0.8143 -0.9644 -0.0787
12221TIP3    H258079   2.740   2.126   2.623 -0.5208 -0.6976 -2.1439
12222TIP3   OH258080   1.945   1.563   2.339  0.1839 -0.3289 -0.0112
12222TIP3    H158081   1.992   1.482   2.354  1.7861  0.7851  1.1990
12222TIP3    H258082   1.886   1.571   2.414 -1.7616 -1.5660 -1.3671
12223TIP3   OH258083   1.664   4.566  14.420 -0.2984  0.0725 -0.0486
12223TIP3    H158084   1.663   4.518  14.338 -0.9366  0.5580 -0.3266
12223TIP3    H258085   1.602   4.519  14.476 -0.0959 -0.0743  0.0551
12224TIP3   OH258086   5.049   2.317  11.511 -0.7658 -0.1281  0.1383
12224TIP3    H158087   4.964   2.278  11.531  0.1985 -2.0018  0.6473
12224TIP3    H258088   5.060   2.303  11.417  0.7089 -3.4647  0.7417
12225TIP3   OH258089   6.236   6.371   2.560 -0.0873 -0.7171 -0.1092
12225TIP3    H158090   6.236   6.342   2.469 -0.3400 -2.7055  0.5154
12225TIP3    H258091   6.326   6.399   2.576  0.5421 -2.5823 -0.2771
12226TIP3   OH258092   0.804   1.771  14.118  0.3709 -0.0049  0.5247
12226TIP3    H158093   0.781   1.753  14.209  0.0504 -0.1740  0.4102
12226TIP3    H258094   0.875   1.709  14.099  2.3487  1.9160  1.5074
12227TIP3   OH258095   5.305   1.575  15.415 -0.2633 -0.1018 -0.8505
12227TIP3    H158096   5.252   1.611  15.344  1.0465 -0.2306 -1.9167
12227TIP3    H258097   5.244   1.568  15.489 -1.2912  1.3608 -1.5314
12228TIP3   OH258098   0.282   3.790  15.974 -0.1514 -0.0649  0.8175
12228TIP3    H158099   0.339   3.862  15.946 -1.0077  0.7488  1.1837
12228TIP3    H258100   0.260   3.809  16.065 -1.2312 -0.2331  0.6031
12229TIP3   OH258101   1.831   1.917  10.602  0.1115  0.4554  0.5572
12229TIP3    H158102   1.801   1.931  10.513 -2.6720 -0.8586  1.2112
12229TIP3    H258103   1.890   1.990  10.620 -0.1664  1.3389 -1.9687
12230TIP3   OH258104   5.425   0.354   0.770 -0.2471 -1.0218  0.5146
12230TIP3    H158105   5.403   0.311   0.688  0.7778 -2.4853  0.9869
12230TIP3    H258106   5.517   0.378   0.761 -0.1599 -1.0896  1.1944
12231TIP3   OH258107   2.416   2.074   1.695  0.5731  0.0315  0.3892
12231TIP3    H158108   2.342   2.102   1.749  1.1882 -0.4010  1.4779
12231TIP3    H258109   2.389   1.991   1.657  0.6896 -0.3598  1.1661
12232TIP3   OH258110   3.939   3.584   1.120 -0.1029  0.1646  0.3925
12232TIP3    H158111   4.015   3.638   1.139 -0.7480  0.9183  0.9030
12232TIP3    H258112   3.915   3.546   1.205  0.1557 -0.6881  0.0979
12233TIP3   OH258113   2.397   1.461  13.925  0.5027  0.4272 -0.3901
12233TIP3    H158114   2.419   1.489  13.836 -0.0740 -2.0628 -1.3500
12233TIP3    H258115   2.467   1.401  13.950  0.1767  0.4094  0.4980
12234TIP3   OH258116   4.481   1.645   2.381 -0.1621 -0.3868 -0.4004
12234TIP3    H158117   4.398   1.619   2.421 -0.9409  0.6814 -1.2900
12234TIP3    H258118   4.457   1.674   2.293  0.9501  1.2900 -0.1765
12235TIP3   OH258119   5.167   3.865  11.482 -0.1930 -0.1186  0.5155
12235TIP3    H158120   5.137   3.906  11.563  0.7544  0.4685  0.5727
12235TIP3    H258121   5.087   3.834  11.440 -0.7936  0.5572  1.1473
12236TIP3   OH258122   6.362   3.916   3.886  0.0415 -0.2235 -0.3415
12236TIP3    H158123   6.418   3.844   3.914  0.0916  0.0052  0.1384
12236TIP3    H258124   6.274   3.889   3.912  0.2292  0.5068  1.0768
12237TIP3   OH258125   5.166   6.708   2.698 -0.0477  0.2231 -0.4361
12237TIP3    H158126   5.183   6.680   2.788 -0.3520  1.3828 -0.0169
12237TIP3    H258127   5.235   6.771   2.679  2.0329 -2.4883 -2.1974
12238TIP3   OH258128   0.934   2.896   4.981  0.3386 -0.2458 -0.2971
12238TIP3    H158129   0.984   2.978   4.969  0.9622 -0.2282  2.1682
12238TIP3    H258130   0.843   2.924   4.986  0.4838  0.2173 -0.2057
12239TIP3   OH258131   4.639   4.097   4.262 -0.1189  0.0438 -0.3011
12239TIP3    H158132   4.646   4.188   4.291  2.3308  0.2989 -1.5121
12239TIP3    H258133   4.714   4.053   4.303  0.0203 -0.8908 -1.5228
12240TIP3   OH258134   3.824   3.089   4.598  0.0376 -0.0555  0.7161
12240TIP3    H158135   3.884   3.133   4.538  0.2788 -0.7364  0.4579
12240TIP3    H258136   3.854   2.998   4.599 -0.3073 -0.1620  1.4382
12241TIP3   OH258137   2.838   2.096   5.239 -0.4355 -0.2663 -0.1781
12241TIP3    H158138   2.791   2.118   5.158  0.3451  1.0800 -0.2875
12241TIP3    H258139   2.917   2.052   5.209 -1.5839 -2.5327  0.0056
12242TIP3   OH258140   6.021   4.809  12.634 -0.0298  0.1860 -0.3068
12242TIP3    H158141   6.049   4.854  12.714 -1.1902  0.0466  0.1997
12242TIP3    H258142   6.003   4.879  12.572 -1.4300  0.4417  0.3473
12243TIP3   OH258143   2.899   6.181  14.765 -0.8885 -0.1032 -0.6564
12243TIP3    H158144   2.816   6.135  14.775 -1.7545  1.5089 -0.2824
12243TIP3    H258145   2.910   6.230  14.846  0.8210 -0.9092 -0.3848
12244TIP3   OH258146   4.878   0.275   0.978  0.3806 -0.7227 -0.1835
12244TIP3    H158147   4.952   0.260   0.920  1.2394 -0.5965  0.8544
12244TIP3    H258148   4.904   0.233   1.061  1.5705  3.7542  1.8582
12245TIP3   OH258149   2.639   6.345   4.365  0.3185 -0.4176  0.0743
12245TIP3    H158150   2.582   6.361   4.291  1.7176  0.2454 -0.8924
12245TIP3    H258151   2.697   6.274   4.336  1.3833  0.3794  0.2194
12246TIP3   OH258152   5.138   3.962   2.497  0.3236 -0.1079 -0.4942
12246TIP3    H158153   5.218   3.991   2.452 -0.0326 -1.1796 -1.8648
12246TIP3    H258154   5.077   4.035   2.486 -0.2459 -0.9222 -3.0744
12247TIP3   OH258155   0.158   0.847  11.303  0.8308  0.4947 -0.1500
12247TIP3    H158156   0.174   0.905  11.229  0.3450  1.2237  0.3118
12247TIP3    H258157   0.202   0.889  11.377  3.2044 -1.3303 -0.4438
12248TIP3   OH258158   1.554   2.420   6.488  0.8100 -0.4905 -0.1111
12248TIP3    H158159   1.557   2.472   6.408  1.2259  0.0055  0.2252
12248TIP3    H258160   1.461   2.412   6.508  0.8049  1.6590  0.8259
12249TIP3   OH258161   0.160   1.976  11.193 -0.0727 -0.2831  0.0722
12249TIP3    H158162   0.188   1.915  11.125 -1.6527 -1.8748  0.7954
12249TIP3    H258163   0.069   1.997  11.170  0.3158  1.5284  0.0576
12250TIP3   OH258164   1.719   5.679  11.851 -0.0179  0.2414  0.1358
12250TIP3    H158165   1.632   5.713  11.873 -0.1639  0.3164 -0.5490
12250TIP3    H258166   1.773   5.701  11.927 -0.4250  0.8233  0.2621
12251TIP3   OH258167   3.676   2.994  12.916  0.1377 -0.2113  0.5643
12251TIP3    H158168   3.634   2.908  12.902 -0.8809  0.5544 -1.3009
12251TIP3    H258169   3.604   3.051  12.943  0.3889  0.5569 -0.3397
12252TIP3   OH258170   3.978   5.107   3.416  0.5170 -0.0441 -0.0018
12252TIP3    H158171   3.936   5.146   3.339 -1.3039 -0.5091  0.7297
12252TIP3    H258172   3.910   5.105   3.483  1.4268 -1.7230  0.9195
12253TIP3   OH258173   4.939   2.339   6.496  0.4303 -0.2628  0.0472
12253TIP3    H158174   4.856   2.340   6.447  0.3916 -2.1945  0.0368
12253TIP3    H258175   4.998   2.393   6.444 -0.9205  1.4456  0.2508
12254TIP3   OH258176   4.487   1.132   2.392 -0.3845 -0.1510  0.3193
12254TIP3    H158177   4.448   1.058   2.345  0.1889 -1.8805  2.4957
12254TIP3    H258178   4.581   1.121   2.380 -0.3559  1.2308 -0.8002
12255TIP3   OH258179   3.740   2.578   5.788 -0.1702  0.5697 -0.3052
12255TIP3    H158180   3.721   2.528   5.868  0.2445  1.5389  0.4125
12255TIP3    H258181   3.832   2.604   5.798  0.4164 -0.8102 -1.9376
12256TIP3   OH258182   5.630   4.753   3.079 -0.0538  0.5932 -0.0967
12256TIP3    H158183   5.541   4.761   3.043 -0.0097 -1.9753 -0.8792
12256TIP3    H258184   5.681   4.816   3.029 -1.2930  1.5843 -0.1442
12257TIP3   OH258185   0.055   3.932   1.054  0.2946  0.0585  0.0085
12257TIP3    H158186   0.041   3.930   0.960  0.5031 -1.4960  0.0082
12257TIP3    H258187   0.149   3.943   1.064  0.4210 -1.0803  0.0431
12258TIP3   OH258188   4.984   5.524   2.851 -0.1505 -0.6378  0.2215
12258TIP3    H158189   5.001   5.546   2.943 -0.0651 -0.3077  0.1293
12258TIP3    H258190   5.063   5.551   2.805 -0.0855 -1.0531  0.0872
12259TIP3   OH258191   5.866   2.339   4.412  0.3470 -0.0611  0.2247
12259TIP3    H158192   5.841   2.249   4.435  1.5755 -0.0986  1.4731
12259TIP3    H258193   5.955   2.348   4.444 -0.5643  2.3600  2.2068
12260TIP3   OH258194   4.430   5.461   6.096  0.1573  0.0038  0.0837
12260TIP3    H158195   4.522   5.484   6.109  0.0373 -0.0657  1.1492
12260TIP3    H258196   4.394   5.459   6.185 -1.0452  0.7424 -0.3773
12261TIP3   OH258197   0.412   4.428  12.083 -0.2782 -0.5052 -0.2117
12261TIP3    H158198   0.329   4.432  12.130 -2.0788  0.3792 -3.2854
12261TIP3    H258199   0.446   4.517  12.086 -0.6510 -0.3284 -0.9395
12262TIP3   OH258200   5.203   4.232  14.348 -1.2700  0.2410  0.5377
12262TIP3    H158201   5.246   4.303  14.397 -0.7696 -0.7200  1.5002
12262TIP3    H258202   5.226   4.153  14.396 -1.3184 -0.6498 -0.8905
12263TIP3   OH258203   0.683   0.554  10.941 -0.1068  0.0032 -0.3637
12263TIP3    H158204   0.661   0.639  10.904 -0.8870 -0.8432 -1.9011
12263TIP3    H258205   0.775   0.540  10.918 -0.2681 -0.0128 -1.0033
12264TIP3   OH258206   0.376   2.616   2.486 -0.1213  0.7340  0.0757
12264TIP3    H158207   0.301   2.675   2.474  0.7133  1.8609  0.3316
12264TIP3    H258208   0.432   2.661   2.549  1.1554  0.2646 -0.7158
12265TIP3   OH258209   1.582   6.102  14.419 -0.4547  0.0129  0.5557
12265TIP3    H158210   1.528   6.042  14.367  0.6740 -0.9006  0.4179
12265TIP3    H258211   1.654   6.125  14.360  0.5166 -0.5590  1.5099
12266TIP3   OH258212   0.584   0.746   1.795  0.1898  0.8300  0.2075
12266TIP3    H158213   0.634   0.687   1.852 -0.8675 -1.8184 -1.4983
12266TIP3    H258214   0.508   0.694   1.768 -0.6312  2.8998 -1.6007
12267TIP3   OH258215   3.461   2.743  16.631  0.4651 -0.0136  0.4976
12267TIP3    H158216   3.467   2.684  16.557 -2.2377 -0.3184  0.4630
12267TIP3    H258217   3.487   2.690  16.707 -0.9077 -0.9722  0.3235
12268TIP3   OH258218   5.563   0.033   2.170 -0.4103 -0.0769 -0.4447
12268TIP3    H158219   5.494   0.070   2.225 -1.6204 -1.5399 -0.9186
12268TIP3    H258220   5.642   0.037   2.224 -0.3930  3.4686 -0.6368
12269TIP3   OH258221   5.884   5.522   5.631  0.2770  0.0691  0.6289
12269TIP3    H158222   5.914   5.576   5.558 -0.8591  1.2590  1.0313
12269TIP3    H258223   5.839   5.448   5.590  1.0669 -0.1245  0.1020
12270TIP3   OH258224   0.401   1.364  14.641 -0.0335  0.1725  0.5956
12270TIP3    H158225   0.316   1.384  14.679 -0.5882 -0.4023 -0.3270
12270TIP3    H258226   0.404   1.415  14.560  1.1880  1.4841  1.4364
12271TIP3   OH258227   2.682   0.596  14.353 -0.2096 -0.4311 -0.1531
12271TIP3    H158228   2.620   0.547  14.407  1.3747 -1.6160  0.6478
12271TIP3    H258229   2.713   0.532  14.289  0.5625  0.0093 -0.2246
12272TIP3   OH258230   2.268   4.978  13.689 -0.2126 -0.1779  0.8170
12272TIP3    H158231   2.211   4.960  13.764  0.0455 -1.3063  0.7440
12272TIP3    H258232   2.352   4.938  13.712 -0.3568 -1.2003 -0.3913
12273TIP3   OH258233   6.327   0.661   0.798  0.4874  0.2069  0.3086
12273TIP3    H158234   6.235   0.666   0.775  0.7463  0.5220 -0.6979
12273TIP3    H258235   6.329   0.665   0.893 -0.5443  0.0129  0.3411
12274TIP3   OH258236   1.337   0.411  14.343 -0.1150 -0.1869  0.3186
12274TIP3    H158237   1.262   0.459  14.377  0.0461 -0.3992  1.0000
12274TIP3    H258238   1.305   0.322  14.328 -0.4365  0.1583 -1.0285
12275TIP3   OH258239   6.746   2.007  14.362 -0.3922  0.5262  0.1252
12275TIP3    H158240   6.757   1.952  14.284 -1.1532 -0.1211  0.4771
12275TIP3    H258241   6.652   2.024  14.367 -0.1788  1.7332  0.1072
12276TIP3   OH258242   2.196   0.424  15.937  0.1701 -0.3032 -0.0211
12276TIP3    H158243   2.192   0.483  15.862 -1.4375 -0.8585 -0.3944
12276TIP3    H258244   2.284   0.437  15.974 -0.0734  2.1296 -0.2231
12277TIP3   OH258245   4.923   4.437   2.399 -0.3004  0.2720 -0.0847
12277TIP3    H158246   4.985   4.507   2.379  1.7337 -1.6404 -0.7247
12277TIP3    H258247   4.918   4.436   2.494 -0.1309  1.0982 -0.0614
12278TIP3   OH258248   0.283   3.605   6.229  0.0467 -0.1865  0.2713
12278TIP3    H158249   0.231   3.568   6.300  0.7536 -0.0670  0.8554
12278TIP3    H258250   0.221   3.659   6.179 -0.3269  0.1691  1.1110
12279TIP3   OH258251   1.050   3.061   3.666 -0.0380  0.1014 -0.3668
12279TIP3    H158252   1.123   3.024   3.617 -0.2087  1.2759 -1.5324
12279TIP3    H258253   0.996   3.104   3.599 -1.0075  0.5036  0.6704
12280TIP3   OH258254   1.156   3.371   3.457  0.2127 -0.0073 -0.0793
12280TIP3    H158255   1.241   3.329   3.448  0.1735  0.2624 -1.8783
12280TIP3    H258256   1.094   3.308   3.421  0.1745  1.5681 -2.9213
12281TIP3   OH258257   6.146   6.573   2.905  0.3460 -0.4339  0.1309
12281TIP3    H158258   6.119   6.581   2.996  1.8888 -3.5438  0.9122
12281TIP3    H258259   6.086   6.509   2.867  1.8290 -1.6897 -0.1253
12282TIP3   OH258260   6.140   0.674  12.260 -0.2301 -0.0869  0.2637
12282TIP3    H158261   6.146   0.625  12.343  0.8315 -0.1546  0.1553
12282TIP3    H258262   6.229   0.673  12.226 -0.2042  1.9181  0.2492
12283TIP3   OH258263   2.645   4.169   2.286 -0.0297 -0.0531  0.5820
12283TIP3    H158264   2.636   4.076   2.264 -0.7015 -0.4792  2.5583
12283TIP3    H258265   2.653   4.213   2.201  2.1993 -2.1012 -0.3073
12284TIP3   OH258266   1.812   4.571  11.710  0.1073  0.0507  0.0706
12284TIP3    H158267   1.720   4.594  11.725 -0.3571 -2.4654  1.5641
12284TIP3    H258268   1.850   4.570  11.798  1.0179 -0.9479 -0.3255
12285TIP3   OH258269   3.131   0.727   2.973  0.3551  0.1696  0.0204
12285TIP3    H158270   3.123   0.639   3.010 -2.5414  0.4701  0.2447
12285TIP3    H258271   3.061   0.777   3.015  0.5546  1.9860 -1.7259
12286TIP3   OH258272   0.840   5.106  14.767 -0.1739 -0.1750 -0.2923
12286TIP3    H158273   0.806   5.101  14.856  0.9712 -1.0680  0.1050
12286TIP3    H258274   0.834   5.016  14.734  1.9912 -0.4180 -0.1234
12287TIP3   OH258275   1.736   0.852   2.322 -0.8259 -0.0596 -0.4873
12287TIP3    H158276   1.777   0.804   2.250  0.9296  0.2276  0.2915
12287TIP3    H258277   1.796   0.840   2.396 -1.7540  1.0527  0.4651
12288TIP3   OH258278   1.843   1.783   5.745 -0.1558 -0.2416 -0.5604
12288TIP3    H158279   1.753   1.763   5.773  0.1803  0.2196  0.9018
12288TIP3    H258280   1.870   1.706   5.695 -0.9014 -0.9776  0.1371
12289TIP3   OH258281   5.041   4.153  13.963  0.5079 -0.1196  0.0173
12289TIP3    H158282   4.959   4.190  13.932 -0.2686 -2.0634 -0.3571
12289TIP3    H258283   5.098   4.151  13.886  0.5264  0.2026  0.0215
12290TIP3   OH258284   2.445   3.573   4.851 -0.1283 -0.5857  0.1976
12290TIP3    H158285   2.514   3.593   4.914  0.9317 -0.9604 -0.8307
12290TIP3    H258286   2.387   3.649   4.853  2.9399  1.9572 -2.4672
12291TIP3   OH258287   5.199   1.814   3.407  0.2743 -0.6296  0.0268
12291TIP3    H158288   5.273   1.807   3.467  1.0434  0.4003 -0.7629
12291TIP3    H258289   5.216   1.750   3.339 -0.3503 -1.4593  0.6443
12292TIP3   OH258290   5.443   4.079  16.274  0.2171 -0.3450 -0.2194
12292TIP3    H158291   5.353   4.049  16.277  0.3635 -0.6185  1.7177
12292TIP3    H258292   5.495   4.001  16.291  0.9299 -0.5336 -2.8963
12293TIP3   OH258293   0.864   0.959   0.198 -0.0965 -0.1951  0.2039
12293TIP3    H158294   0.854   0.898   0.126 -4.5488  1.8065 -1.0278
12293TIP3    H258295   0.815   0.920   0.270 -2.9000  1.7460 -0.5668
12294TIP3   OH258296   0.470   0.850   0.841  0.1428  0.0379  0.9238
12294TIP3    H158297   0.552   0.851   0.792  0.2403 -0.6889  1.0695
12294TIP3    H258298   0.486   0.791   0.914 -0.8373 -0.9201  0.3794
12295TIP3   OH258299   6.223   1.527   2.894  0.2300 -0.0789  0.4594
12295TIP3    H158300   6.269   1.604   2.861 -0.4361 -0.3201 -1.0739
12295TIP3    H258301   6.205   1.547   2.986 -1.2852  2.2406 -0.3093
12296TIP3   OH258302   1.965   0.727  16.901  0.4667 -0.6302 -0.1385
12296TIP3    H158303   2.026   0.779  16.849 -0.3456  2.5601  1.9189
12296TIP3    H258304   2.019   0.684  16.967  0.7738  0.3908  0.2818
12297TIP3   OH258305   1.944   5.587  14.003 -0.4306 -0.1706  0.1344
12297TIP3    H158306   1.992   5.669  13.996 -1.1645  0.0973 -2.0271
12297TIP3    H258307   1.853   5.611  13.989 -0.8001 -1.1795  0.7523
12298TIP3   OH258308   2.012   1.026  17.110  0.2824 -0.0754  0.2285
12298TIP3    H158309   2.032   0.933  17.106  2.2031  0.3877 -1.0726
12298TIP3    H258310   2.047   1.054  17.195  0.3900 -0.3591  0.2799
12299TIP3   OH258311   2.642   4.732   6.639  0.3500  0.4342 -0.8988
12299TIP3    H158312   2.582   4.685   6.697  0.4375  0.3909 -0.8440
12299TIP3    H258313   2.727   4.726   6.683  0.1566  1.5638 -0.3574
12300TIP3   OH258314   5.686   5.972  11.810 -0.4542  0.3580  0.1576
12300TIP3    H158315   5.617   6.039  11.803  0.3456  1.1498 -0.2942
12300TIP3    H258316   5.702   5.963  11.904 -0.7993  0.5512  0.2367
12301TIP3   OH258317   1.004   0.463  15.227 -0.6129 -0.4208  0.3181
12301TIP3    H158318   1.000   0.398  15.298 -1.2921  0.9843  1.6007
12301TIP3    H258319   0.913   0.481  15.205 -0.4658  0.8094  0.6496
12302TIP3   OH258320   4.241   4.864  11.356 -0.3318  0.3765 -0.0482
12302TIP3    H158321   4.264   4.778  11.322  1.3339  0.7085  0.1595
12302TIP3    H258322   4.146   4.865  11.359 -0.3610 -1.4185 -0.1282
12303TIP3   OH258323   0.522   4.648  17.207 -0.5330  0.1248 -0.2552
12303TIP3    H158324   0.428   4.636  17.201 -0.3959 -1.4036  0.3814
12303TIP3    H258325   0.557   4.610  17.126 -0.3911 -0.1600 -0.0599
12304TIP3   OH258326   6.005   0.862  14.719  0.0339 -0.0140  0.4249
12304TIP3    H158327   6.033   0.777  14.685  2.5606  0.6918  0.6354
12304TIP3    H258328   6.083   0.918  14.712 -1.2518  1.9582  1.3600
12305TIP3   OH258329   4.063   2.387  11.553 -0.0259  0.2395  0.6810
12305TIP3    H158330   3.976   2.423  11.534  0.0169  0.0432  0.1004
12305TIP3    H258331   4.111   2.397  11.471  0.6367  0.7271  1.1224
12306TIP3   OH258332   4.725   4.467  12.541 -0.2171  0.4028 -0.4250
12306TIP3    H158333   4.810   4.460  12.498  0.9968 -0.0765  1.9544
12306TIP3    H258334   4.720   4.557  12.572 -0.3950  0.3253 -0.2233
12307TIP3   OH258335   6.066   0.709   0.577 -0.0421  0.1793 -0.1114
12307TIP3    H158336   5.999   0.732   0.513 -0.9443  0.4921  0.9170
12307TIP3    H258337   6.023   0.721   0.662  0.2814 -2.7818  0.5297
12308TIP3   OH258338   6.449   3.397   0.172  0.2111 -0.4252 -0.3227
12308TIP3    H158339   6.411   3.339   0.105  0.2399  0.9246 -1.5147
12308TIP3    H258340   6.374   3.447   0.205  0.2750 -0.7642  0.3606
12309TIP3   OH258341   5.242   4.536  12.902 -0.6861 -0.1438  0.5548
12309TIP3    H158342   5.260   4.442  12.895 -2.3839 -0.5214  1.1235
12309TIP3    H258343   5.228   4.564  12.812  3.0040  0.2498  0.0239
12310TIP3   OH258344   6.315   2.790   5.169 -0.0801 -0.1760  0.2825
12310TIP3    H158345   6.410   2.777   5.165  0.3076  2.4752 -0.0209
12310TIP3    H258346   6.291   2.821   5.082 -1.0805  0.0618  0.6339
12311TIP3   OH258347   4.952   3.542  16.890  0.6970  0.5860  0.6848
12311TIP3    H158348   4.948   3.511  16.800 -0.5881  1.2537  0.5003
12311TIP3    H258349   4.902   3.478  16.940  3.0667 -0.8672  1.2603
12312TIP3   OH258350   2.557   1.627   2.914 -0.6462 -0.8780 -0.5054
12312TIP3    H158351   2.546   1.570   2.838 -1.2072  0.3258 -1.3551
12312TIP3    H258352   2.572   1.714   2.877  1.8429 -0.7243  0.7598
12313TIP3   OH258353   2.565   1.076  16.357  0.0310 -0.1715 -0.0448
12313TIP3    H158354   2.470   1.076  16.369 -0.2961  3.0688 -2.1187
12313TIP3    H258355   2.601   1.070  16.446 -2.1090 -0.4484  0.8254
12314TIP3   OH258356   2.839   1.262   4.891 -0.1288 -0.6083 -0.4631
12314TIP3    H158357   2.845   1.278   4.986 -0.2096 -0.1469 -0.5352
12314TIP3    H258358   2.915   1.206   4.872 -0.3788 -1.0947 -0.0433
12315TIP3   OH258359   2.484   0.996  17.017 -0.6128  0.3029  0.7092
12315TIP3    H158360   2.497   0.984  16.923  4.2792  0.3538  1.2759
12315TIP3    H258361   2.457   1.087  17.026  0.5446  0.7904 -0.5415
12316TIP3   OH258362   2.163   1.040  12.864  0.4235 -0.0558 -0.3249
12316TIP3    H158363   2.076   1.005  12.844  0.3337 -1.0738  1.7857
12316TIP3    H258364   2.149   1.099  12.938  1.5295 -0.2554  0.0441
12317TIP3   OH258365   2.977   4.456   2.986  0.3602 -0.0886  0.6849
12317TIP3    H158366   2.973   4.507   2.905 -0.3233 -0.0044  0.7733
12317TIP3    H258367   3.069   4.430   2.993  0.2046 -1.0028 -0.6697
12318TIP3   OH258368   4.589   6.768  15.067  0.6000 -0.3994  0.7276
12318TIP3    H158369   4.496   6.772  15.045  0.7290  1.7586  0.3973
12318TIP3    H258370   4.613   6.676  15.055 -1.4152 -0.9282  0.5390
12319TIP3   OH258371   4.906   1.487   0.519  0.1499 -0.4631 -0.2742
12319TIP3    H158372   4.839   1.477   0.451 -0.3502 -0.6731  0.2403
12319TIP3    H258373   4.926   1.580   0.519  0.5172 -0.5386 -1.0509
12320TIP3   OH258374   2.184   3.843   1.623  0.1063  0.2601  0.3093
12320TIP3    H158375   2.230   3.846   1.539  0.7840 -0.3950  0.6522
12320TIP3    H258376   2.179   3.934   1.650 -1.9361  0.7072 -1.4025
12321TIP3   OH258377   3.375   1.479  13.075  0.2483 -0.0109 -0.1643
12321TIP3    H158378   3.325   1.439  13.005 -0.1167 -0.2870  0.2518
12321TIP3    H258379   3.463   1.444  13.065 -0.0884 -0.9761  0.2436
12322TIP3   OH258380   1.003   5.330  11.975 -0.0087  0.0523  0.2304
12322TIP3    H158381   1.000   5.245  11.930 -0.3479 -0.4855  1.2518
12322TIP3    H258382   0.967   5.392  11.911  0.8674 -0.4565 -0.7671
12323TIP3   OH258383   4.127   3.016   3.511  0.7545 -0.0708  0.5648
12323TIP3    H158384   4.102   2.980   3.426 -0.0876  2.2228 -0.2075
12323TIP3    H258385   4.139   2.940   3.567  0.4535 -1.5869 -1.3776
12324TIP3   OH258386   1.840   6.365  13.934  0.3369  0.4817 -0.0810
12324TIP3    H158387   1.921   6.377  13.885  1.4623  0.7536  1.8006
12324TIP3    H258388   1.860   6.298  13.999 -0.0255  2.5972  2.3070
12325TIP3   OH258389   3.906   4.186  14.216 -0.4141 -0.0788 -0.1895
12325TIP3    H158390   3.932   4.116  14.275 -0.7090 -0.2825 -0.2985
12325TIP3    H258391   3.836   4.232  14.262 -0.3367  0.0372 -0.1889
12326TIP3   OH258392   5.391   6.609   2.424  0.2999 -0.7395 -0.3241
12326TIP3    H158393   5.305   6.645   2.403 -0.4302 -2.3192 -0.1752
12326TIP3    H258394   5.449   6.685   2.431 -1.4110  0.4788  1.0984
12327TIP3   OH258395   3.055   4.960   2.662 -0.6303  0.0481 -0.0725
12327TIP3    H158396   2.992   5.004   2.719 -1.8548 -1.7473 -0.0145
12327TIP3    H258397   3.015   4.965   2.575 -1.0378 -1.4313  0.0295
12328TIP3   OH258398   1.626   0.238   3.537 -0.5705 -0.5663  0.1427
12328TIP3    H158399   1.554   0.238   3.474  0.0779 -0.3279 -0.6096
12328TIP3    H258400   1.691   0.297   3.499 -0.6273  0.4601  1.5647
12329TIP3   OH258401   2.826   4.216   2.771  0.4068 -0.2712 -0.2227
12329TIP3    H158402   2.877   4.135   2.768  1.7404  0.5504  0.1399
12329TIP3    H258403   2.883   4.282   2.732  0.5506  1.1450  2.2923
12330TIP3   OH258404   5.793   4.543  12.141  0.1097 -0.2981  0.1178
12330TIP3    H158405   5.711   4.583  12.112 -0.8419 -0.2760  2.6769
12330TIP3    H258406   5.766   4.473  12.200  1.9137 -0.7084  0.4923
12331TIP3   OH258407   2.582   6.145  12.825 -0.0572  0.5234  0.0993
12331TIP3    H158408   2.645   6.075  12.810 -0.5639  0.0680  0.0565
12331TIP3    H258409   2.606   6.181  12.911  0.3720  0.4789 -0.0006
12332TIP3   OH258410   1.324   5.573   0.188 -0.6742 -0.2409 -0.2821
12332TIP3    H158411   1.377   5.515   0.133  0.9733  1.6904 -0.7974
12332TIP3    H258412   1.346   5.548   0.278  0.9688  0.3283 -0.4885
12333TIP3   OH258413   0.314   3.971   2.737  0.4318 -0.1131  0.4292
12333TIP3    H158414   0.309   3.916   2.658 -0.4498 -0.3709  0.6627
12333TIP3    H258415   0.242   3.940   2.792 -0.4675  1.7003  0.3008
12334TIP3   OH258416   0.797   4.134  12.427 -0.3189 -0.4323 -0.7865
12334TIP3    H158417   0.712   4.106  12.394 -0.8762 -0.3372  0.5580
12334TIP3    H258418   0.796   4.230  12.418 -0.4368 -0.4137 -0.5764
12335TIP3   OH258419   6.290   6.286  13.077  0.3100  0.0617  0.6907
12335TIP3    H158420   6.207   6.274  13.124 -0.2843  1.1135 -0.0914
12335TIP3    H258421   6.276   6.363  13.022  0.5305 -1.9380 -2.2577
12336TIP3   OH258422   1.626   4.744  16.983 -0.2479 -0.1364 -0.3413
12336TIP3    H158423   1.544   4.733  17.032 -1.0675 -0.9798 -1.8553
12336TIP3    H258424   1.658   4.830  17.009 -0.6796 -0.5432  1.6352
12337TIP3   OH258425   1.580   6.447  16.470  0.7074 -0.1386 -0.3965
12337TIP3    H158426   1.645   6.419  16.534  0.5107 -1.4840 -0.7497
12337TIP3    H258427   1.511   6.489  16.521  0.1376 -1.9908  0.3889
12338TIP3   OH258428   1.124   0.669  16.277  0.4359  0.2895  1.0277
12338TIP3    H158429   1.191   0.642  16.215 -1.4708  0.9460 -1.3967
12338TIP3    H258430   1.132   0.764  16.283 -0.3409  0.3783  0.6654
12339TIP3   OH258431   1.761   2.538   4.736 -0.7425 -0.5568 -0.1407
12339TIP3    H158432   1.756   2.633   4.747 -1.4192 -0.6349  0.2129
12339TIP3    H258433   1.841   2.513   4.782 -2.1904 -0.5583  2.4578
12340TIP3   OH258434   2.793   6.162   4.218  0.5117  0.0282 -0.3284
12340TIP3    H158435   2.874   6.141   4.264  0.0844  0.2093  0.5042
12340TIP3    H258436   2.777   6.086   4.162  2.4613  0.9244 -2.2288
12341TIP3   OH258437   1.517   6.586   2.034 -0.4747 -0.1900  0.4941
12341TIP3    H158438   1.499   6.508   2.087 -0.9222  0.5087  1.3836
12341TIP3    H258439   1.611   6.603   2.047  0.1807 -1.9439 -1.5827
12342TIP3   OH258440   1.630   0.133  16.230 -0.5253 -0.3944 -0.3027
12342TIP3    H158441   1.709   0.083  16.252 -1.1473 -2.2618 -2.0816
12342TIP3    H258442   1.619   0.194  16.302  1.1976 -1.7598  1.1617
12343TIP3   OH258443   2.232   3.036   3.140  0.2443  0.1762  0.8910
12343TIP3    H158444   2.247   3.008   3.049 -0.0331  0.1385  0.8580
12343TIP3    H258445   2.254   3.129   3.140  0.0716  0.2173  0.7436
12344TIP3   OH258446   1.939   0.761   2.137 -0.1054  0.4641 -0.0956
12344TIP3    H158447   2.021   0.751   2.089  0.0550  0.9354  0.0676
12344TIP3    H258448   1.927   0.678   2.183 -0.6871 -0.2777 -1.5876
12345TIP3   OH258449   2.872   5.697   0.125  0.0818 -0.1254 -0.3310
12345TIP3    H158450   2.872   5.609   0.163 -0.5027 -0.1556 -0.3889
12345TIP3    H258451   2.930   5.691   0.049 -2.0627 -1.1802 -1.9286
12346TIP3   OH258452   2.526   4.023  15.874 -0.5606  0.7558 -0.7020
12346TIP3    H158453   2.542   4.116  15.856  0.9085  0.7014  0.1868
12346TIP3    H258454   2.514   3.983  15.788 -0.5558  1.6562 -1.1263
12347TIP3   OH258455   1.447   5.249  12.666 -0.0579  0.0023 -0.3796
12347TIP3    H158456   1.460   5.247  12.571  0.8260  1.1640 -0.2922
12347TIP3    H258457   1.506   5.181  12.700 -0.5754 -0.5998 -0.6771
12348TIP3   OH258458   1.908   2.073  12.418 -0.2878 -0.1104  0.1200
12348TIP3    H158459   1.983   2.132  12.419 -0.1453 -0.2879  0.1458
12348TIP3    H258460   1.892   2.052  12.510  0.3841 -1.0057  0.0445
12349TIP3   OH258461   1.489   4.007   5.702  0.5018 -0.0134  0.5416
12349TIP3    H158462   1.427   3.935   5.715 -0.0593  0.3700  0.0174
12349TIP3    H258463   1.563   3.984   5.758  0.2166 -0.8634  0.5929
12350TIP3   OH258464   1.174   5.088  12.516  0.0558 -0.5499 -0.1168
12350TIP3    H158465   1.138   5.073  12.428  0.1160  1.4899 -0.5377
12350TIP3    H258466   1.133   5.170  12.544 -1.1278 -1.9428  2.4189
12351TIP3   OH258467   0.564   6.503  15.767 -0.0629  0.4894 -0.1971
12351TIP3    H158468   0.526   6.570  15.710  0.6334  0.5734 -0.5723
12351TIP3    H258469   0.645   6.542  15.798  0.5047 -0.2940 -0.6670
12352TIP3   OH258470   6.592   2.445   3.344 -0.2854 -0.2139  0.0895
12352TIP3    H158471   6.636   2.364   3.317  0.0622  0.3013 -0.8921
12352TIP3    H258472   6.571   2.490   3.262 -0.3722  0.7561  0.6366
12353TIP3   OH258473   0.840   2.834  11.763  0.1425 -0.3117  0.0007
12353TIP3    H158474   0.807   2.879  11.841 -2.1176  0.0687 -1.1506
12353TIP3    H258475   0.787   2.754  11.757 -0.4224  0.1795 -1.7206
12354TIP3   OH258476   1.836   0.927   2.882  0.5593 -0.0944 -0.2049
12354TIP3    H158477   1.870   0.950   2.796 -0.1213 -1.6780 -0.9241
12354TIP3    H258478   1.903   0.957   2.943  2.0835 -0.8988 -1.4313
12355TIP3   OH258479   0.606   2.267   1.573 -0.0482 -0.1827  0.0722
12355TIP3    H158480   0.601   2.340   1.634  0.4877  0.0048 -0.1003
12355TIP3    H258481   0.633   2.192   1.627 -0.3449 -0.1948  0.2032
12356TIP3   OH258482   4.378   2.408  10.686  0.4580 -0.0322  0.1250
12356TIP3    H158483   4.413   2.375  10.604  0.8613  0.1459  0.2213
12356TIP3    H258484   4.372   2.502  10.674 -0.8849 -0.1584 -0.2247
12357TIP3   OH258485   6.344   4.299   1.042 -0.0731  0.4297 -0.8374
12357TIP3    H158486   6.388   4.362   1.099  0.0884 -1.5626  1.3277
12357TIP3    H258487   6.255   4.332   1.034  0.6229  2.1675 -1.6815
12358TIP3   OH258488   0.943   6.783   3.010  0.0192  0.3188  0.2561
12358TIP3    H158489   1.035   6.804   3.022 -0.2737  1.3777  0.7356
12358TIP3    H258490   0.934   6.695   3.046  1.2899 -0.7148 -1.8825
12359TIP3   OH258491   1.263   2.615  11.769  0.6906  0.9134 -0.2075
12359TIP3    H158492   1.321   2.595  11.696 -1.0417 -4.1591 -0.3759
12359TIP3    H258493   1.177   2.629  11.729  0.5104  2.1556  0.5699
12360TIP3   OH258494   3.398   5.006  13.704 -0.5495 -0.3872 -0.2384
12360TIP3    H158495   3.338   5.050  13.645 -1.1588 -0.7420  0.1142
12360TIP3    H258496   3.473   4.981  13.649 -0.6122  0.2777 -0.6184
12361TIP3   OH258497   4.975   6.008  13.840 -0.0345 -0.2028  0.4261
12361TIP3    H158498   4.993   5.919  13.872 -0.0368 -0.3570  0.0047
12361TIP3    H258499   4.911   6.043  13.901 -1.8342 -1.3504 -0.7556
12362TIP3   OH258500   3.570   1.296  15.830 -0.2378  0.5554  0.2490
12362TIP3    H158501   3.514   1.270  15.903 -0.7597  0.3854 -0.2106
12362TIP3    H258502   3.526   1.260  15.752  0.0846  1.1132 -0.1883
12363TIP3   OH258503   0.230   5.933  15.246  0.1938  0.4902 -0.2878
12363TIP3    H158504   0.192   5.979  15.321 -0.6186 -2.5707  1.2668
12363TIP3    H258505   0.310   5.893  15.280 -0.1162 -0.8201 -1.0414
12364TIP3   OH258506   2.318   5.359   0.689 -0.2716 -0.4429  0.4188
12364TIP3    H158507   2.262   5.313   0.626 -0.5450  0.0091  0.3299
12364TIP3    H258508   2.327   5.298   0.762  0.8742 -1.3876 -0.4813
12365TIP3   OH258509   3.728   6.741   1.150  0.0204 -0.4878 -0.3719
12365TIP3    H158510   3.808   6.759   1.101 -0.2492  1.5388 -0.0744
12365TIP3    H258511   3.758   6.728   1.240  0.0033  0.2971 -0.2557
12366TIP3   OH258512   4.262   1.015  16.164  0.3854 -0.0700  0.0180
12366TIP3    H158513   4.245   1.109  16.168  2.5528  0.4880 -2.1799
12366TIP3    H258514   4.254   0.993  16.071  2.6413 -1.4777  0.1134
12367TIP3   OH258515   6.333   0.399   1.982 -0.5199  0.1138 -0.1275
12367TIP3    H158516   6.349   0.450   1.903 -0.4296  0.0446 -0.1541
12367TIP3    H258517   6.321   0.465   2.051  1.7797  0.1540  0.2604
12368TIP3   OH258518   5.913   3.336  13.087 -0.8329  0.1620  0.3305
12368TIP3    H158519   5.931   3.312  13.178 -1.4307  1.3395  0.7750
12368TIP3    H258520   5.987   3.302  13.038  0.1000  0.5560  1.4367
12369TIP3   OH258521   1.762   4.439   0.378  0.5102 -0.0996  0.2403
12369TIP3    H158522   1.845   4.408   0.417  0.5348 -0.0154  0.2567
12369TIP3    H258523   1.695   4.409   0.439  0.5927  0.4833  0.6233
12370TIP3   OH258524   3.051   5.389   1.808  0.9694  0.5816  0.1525
12370TIP3    H158525   3.029   5.316   1.749 -0.1647  0.5886  0.5526
12370TIP3    H258526   3.135   5.365   1.845  1.6423  0.5085 -1.3747
12371TIP3   OH258527   3.952   1.156  11.686  0.1150 -0.4073 -0.7784
12371TIP3    H158528   3.991   1.225  11.739 -0.0912  1.1298 -2.5707
12371TIP3    H258529   4.002   1.077  11.707  1.4059  0.6321  0.0950
12372TIP3   OH258530   0.055   5.064   5.514 -0.5157  0.3027 -0.4477
12372TIP3    H158531  -0.003   5.140   5.522 -0.4247  0.5026 -1.5615
12372TIP3    H258532   0.006   4.992   5.553 -0.4382  1.0192  0.9916
12373TIP3   OH258533   4.964   5.415  10.344  0.6787 -0.2312  0.3278
12373TIP3    H158534   4.985   5.505  10.372  1.0931 -0.4212  0.6402
12373TIP3    H258535   4.908   5.381  10.413 -0.4714  0.1888 -0.3854
12374TIP3   OH258536   3.332   3.602   3.304  0.1005  0.4136 -0.1926
12374TIP3    H158537   3.313   3.689   3.340  1.7546  0.1303  1.4518
12374TIP3    H258538   3.271   3.544   3.351 -0.5764  0.5921 -0.8427
12375TIP3   OH258539   2.292   5.398  10.728  0.2866 -0.3388 -0.3220
12375TIP3    H158540   2.327   5.477  10.687 -2.2167  0.6870 -0.5487
12375TIP3    H258541   2.267   5.341  10.655 -1.5787  0.3274 -0.2274
12376TIP3   OH258542   4.426   5.448  12.113  0.5871 -0.0190  0.2526
12376TIP3    H158543   4.404   5.357  12.136  2.2270 -0.8252 -1.2880
12376TIP3    H258544   4.344   5.496  12.126 -0.4965 -1.8436  0.3661
12377TIP3   OH258545   6.394   6.167   0.978  0.5088 -0.3345  0.0599
12377TIP3    H158546   6.349   6.224   1.040 -0.2367  0.5374 -1.2562
12377TIP3    H258547   6.478   6.146   1.020  1.0857  2.2716  0.2875
12378TIP3   OH258548   2.563   2.794   2.996 -0.0586 -0.0451  0.0618
12378TIP3    H158549   2.537   2.706   2.968  0.3210 -0.2824  0.4346
12378TIP3    H258550   2.658   2.790   3.003  0.0465  0.6958 -0.8888
12379TIP3   OH258551   2.566   4.586  16.581  0.3517  0.0435 -0.4287
12379TIP3    H158552   2.580   4.646  16.654  1.2153  0.3870 -0.8724
12379TIP3    H258553   2.484   4.615  16.542 -0.2065 -0.2564  0.5151
12380TIP3   OH258554   3.249   3.514   5.153 -0.3740  0.2027 -0.1682
12380TIP3    H158555   3.233   3.586   5.215 -0.8852  1.2893 -1.5464
12380TIP3    H258556   3.218   3.436   5.199 -1.3640  1.0841  0.6953
12381TIP3   OH258557   0.637   2.637  16.292 -0.5345  0.5169 -0.0215
12381TIP3    H158558   0.586   2.590  16.358 -0.8947  1.5072  0.4159
12381TIP3    H258559   0.692   2.569  16.252  2.0760  0.4190  3.5042
12382TIP3   OH258560   5.287   2.591  16.640  0.0801 -0.9454  0.3935
12382TIP3    H158561   5.347   2.520  16.616  2.2610  1.2682 -1.0559
12382TIP3    H258562   5.200   2.558  16.617  1.1406 -2.7825 -1.1775
12383TIP3   OH258563   1.058   3.337   1.570 -0.2977  0.2735  0.3918
12383TIP3    H158564   1.005   3.258   1.574  0.5571 -0.2191  3.5460
12383TIP3    H258565   1.021   3.394   1.638  1.7446  0.8448  1.0545
12384TIP3   OH258566   4.449   0.884   2.990 -0.3429 -0.1291  0.1867
12384TIP3    H158567   4.384   0.830   3.035 -0.4136  0.7612  1.1823
12384TIP3    H258568   4.529   0.873   3.041  0.8601 -2.7530 -2.1370
12385TIP3   OH258569   0.223   3.331   3.930  0.0482 -0.1640  0.0054
12385TIP3    H158570   0.297   3.389   3.915  0.2677 -1.0421 -2.4318
12385TIP3    H258571   0.258   3.243   3.919 -1.1084 -0.6288 -0.0478
12386TIP3   OH258572   3.556   3.585  13.942 -0.6941 -0.3084 -0.3859
12386TIP3    H158573   3.651   3.576  13.941 -0.3583  2.5168  1.1105
12386TIP3    H258574   3.528   3.533  14.018 -0.3120 -0.9047 -0.6527
12387TIP3   OH258575   6.570   4.549  11.132 -0.5884  0.4636 -0.4003
12387TIP3    H158576   6.521   4.596  11.064  0.9915 -0.5008 -2.2542
12387TIP3    H258577   6.659   4.585  11.126 -0.2384 -0.2264  0.5968
12388TIP3   OH258578   4.668   1.955   1.846  0.2654 -0.3936 -0.3027
12388TIP3    H158579   4.603   1.960   1.915  0.4616 -0.8544 -0.0874
12388TIP3    H258580   4.752   1.964   1.891  0.3699 -0.0694 -0.5501
12389TIP3   OH258581   2.631   1.057   3.620  0.5114 -0.4331  0.0361
12389TIP3    H158582   2.702   1.120   3.609 -1.1660  2.0152  2.4314
12389TIP3    H258583   2.643   1.022   3.709 -1.0694 -0.2405  0.3440
12390TIP3   OH258584   5.113   1.799  13.378  0.1321 -0.6567  0.6905
12390TIP3    H158585   5.073   1.886  13.376 -1.9253 -1.5362  2.4221
12390TIP3    H258586   5.205   1.815  13.353 -0.4193  1.8625  0.1066
12391TIP3   OH258587   2.762   4.753   2.446 -0.1658 -0.2216 -0.1049
12391TIP3    H158588   2.760   4.682   2.382 -1.7155  0.3487 -0.6898
12391TIP3    H258589   2.723   4.715   2.525  0.4192 -0.4798  0.0655
12392TIP3   OH258590   6.310   6.408   1.479 -1.0666  0.2731  0.0837
12392TIP3    H158591   6.262   6.346   1.534 -1.7264  0.7041 -0.0100
12392TIP3    H258592   6.370   6.452   1.539 -0.1050 -0.9282  0.0375
12393TIP3   OH258593   1.965   2.051   4.275  0.2508 -0.1223 -0.0043
12393TIP3    H158594   2.028   2.114   4.308  0.1381  0.4872 -0.9171
12393TIP3    H258595   1.920   2.097   4.204  0.6802 -1.4741 -1.1798
12394TIP3   OH258596   1.924   6.625   5.293  0.3500  0.3773 -0.0571
12394TIP3    H158597   1.861   6.651   5.360  0.9097  1.2620  0.1415
12394TIP3    H258598   1.977   6.557   5.335  2.3727  2.7352  1.3361
12395TIP3   OH258599   0.404   0.813  14.883  0.1338 -0.5711 -0.0953
12395TIP3    H158600   0.490   0.791  14.846 -0.6905  0.9700 -3.0729
12395TIP3    H258601   0.366   0.728  14.906  1.6314 -1.4153 -0.6446
12396TIP3   OH258602   2.227   0.382   4.189 -0.0043  0.2120 -0.3111
12396TIP3    H158603   2.167   0.438   4.239 -0.9524 -1.4803  0.4946
12396TIP3    H258604   2.195   0.293   4.205  2.1277 -0.6380 -0.7082
12397TIP3   OH258605   0.443   1.792   1.719 -0.2580 -0.1370 -0.2172
12397TIP3    H158606   0.409   1.848   1.789  0.0755 -0.6595  0.3650
12397TIP3    H258607   0.500   1.730   1.764  0.3299 -0.1722 -1.0131
12398TIP3   OH258608   0.953   0.222   0.510 -0.0068 -0.1082 -0.1689
12398TIP3    H158609   0.988   0.276   0.439 -0.6127 -0.2234 -0.5561
12398TIP3    H258610   0.952   0.281   0.586  0.2530  0.1360 -0.3517
12399TIP3   OH258611   5.536   0.872   0.993  0.7298  0.4098 -0.2180
12399TIP3    H158612   5.461   0.925   1.020 -0.4689 -0.9399 -0.8062
12399TIP3    H258613   5.538   0.800   1.057  0.6802 -0.3118 -1.0261
12400TIP3   OH258614   1.499   6.072  12.321  0.0410  0.7167  0.0382
12400TIP3    H158615   1.440   6.009  12.362  0.3481  0.2688 -0.2032
12400TIP3    H258616   1.454   6.156  12.329  0.6506  0.8552  2.4038
12401TIP3   OH258617   6.547   1.795   4.595  0.5860 -0.2935  0.0627
12401TIP3    H158618   6.609   1.727   4.620  0.3456 -0.2797  0.6947
12401TIP3    H258619   6.566   1.812   4.502  1.5604 -0.2532  0.2605
12402TIP3   OH258620   1.391   2.136   4.696 -0.3993 -0.3809 -0.1080
12402TIP3    H158621   1.459   2.203   4.687  1.3050 -1.9421  0.9112
12402TIP3    H258622   1.324   2.178   4.749  0.2906  0.7908 -0.1359
12403TIP3   OH258623   5.912   6.286   2.015 -0.1654  0.1582  0.2530
12403TIP3    H158624   5.874   6.199   2.002 -1.7084  0.7709  0.5804
12403TIP3    H258625   6.006   6.271   2.020 -0.2932 -1.3024 -1.3569
12404TIP3   OH258626   5.119   2.350   2.730 -0.1275 -0.1556 -0.1515
12404TIP3    H158627   5.191   2.375   2.787 -1.6501  2.9583  0.5142
12404TIP3    H258628   5.081   2.272   2.771  1.0777 -0.1193  1.0490
12405TIP3   OH258629   5.630   1.253  10.539 -0.1309 -0.2298  0.2329
12405TIP3    H158630   5.676   1.334  10.562 -0.9653  0.0394  0.9663
12405TIP3    H258631   5.664   1.189  10.602  0.6095 -0.4881 -0.4170
12406TIP3   OH258632   6.726   3.462  14.286  0.3375 -0.3965  0.5161
12406TIP3    H158633   6.722   3.552  14.318  1.4734 -0.3278  0.4919
12406TIP3    H258634   6.777   3.468  14.205  1.1414 -1.1813  0.9523
12407TIP3   OH258635   5.225   3.465  12.651 -0.1281  0.1483  0.0852
12407TIP3    H158636   5.263   3.553  12.647 -1.1696  0.5755 -0.8028
12407TIP3    H258637   5.133   3.480  12.672 -0.4349 -0.6913 -0.6174
12408TIP3   OH258638   0.708   2.326   2.227 -0.3109  0.2950 -0.1051
12408TIP3    H158639   0.774   2.271   2.268 -1.0426 -0.9000 -0.5083
12408TIP3    H258640   0.635   2.326   2.289 -1.5478 -1.7760 -1.5141
12409TIP3   OH258641   6.100   6.072   3.344 -0.4240  0.9080  0.3126
12409TIP3    H158642   6.037   6.010   3.308  0.5065  0.4031 -0.4575
12409TIP3    H258643   6.118   6.133   3.272 -0.0887  1.0918  0.5481
12410TIP3   OH258644   3.519   0.982   4.325  0.1324 -0.3982  0.1680
12410TIP3    H158645   3.495   1.074   4.330  0.4331 -0.3357  0.4238
12410TIP3    H258646   3.601   0.980   4.276 -0.5964 -0.6498 -1.0574
12411TIP3   OH258647   0.028   6.046   4.500 -0.2715  0.1392 -0.6268
12411TIP3    H158648   0.070   6.029   4.585 -1.5621 -0.4240 -0.0921
12411TIP3    H258649   0.033   6.141   4.489  0.4524  0.1552 -0.2190
12412TIP3   OH258650   1.158   3.920  11.665  0.2546  0.1974 -0.4590
12412TIP3    H158651   1.248   3.894  11.687  0.5185  0.3183 -1.3549
12412TIP3    H258652   1.131   3.976  11.737  1.4632  1.3959 -0.9011
12413TIP3   OH258653   5.685   5.940  13.868 -0.8891 -0.2044  0.3655
12413TIP3    H158654   5.649   5.906  13.950 -1.1408 -0.5169  0.1275
12413TIP3    H258655   5.650   5.882  13.800  0.5192 -0.8372  0.1816
12414TIP3   OH258656   0.102   4.039   1.651  0.1273 -0.7509  0.9419
12414TIP3    H158657   0.132   4.057   1.562  0.5324 -2.3226  0.7649
12414TIP3    H258658   0.073   4.125   1.683 -0.6403 -0.2774 -0.9281
12415TIP3   OH258659   1.711   3.584   6.617  0.1598  0.4256  0.3310
12415TIP3    H158660   1.786   3.640   6.637  0.3499  0.7822 -1.3292
12415TIP3    H258661   1.732   3.500   6.657  2.0386  0.1352 -1.2514
12416TIP3   OH258662   2.659   6.501  13.029  0.1894  0.0776  0.2289
12416TIP3    H158663   2.715   6.493  12.952 -0.5119 -1.4110 -0.1415
12416TIP3    H258664   2.640   6.411  13.054 -1.6148  0.5594  0.6513
12417TIP3   OH258665   5.862   6.074   3.522  0.4123 -0.4771 -0.5435
12417TIP3    H158666   5.783   6.095   3.573  1.0025 -0.8024  0.5131
12417TIP3    H258667   5.865   6.141   3.454 -1.8747 -1.6143 -1.8386
12418TIP3   OH258668   3.224   2.016  16.242 -0.6373  0.2697 -0.4834
12418TIP3    H158669   3.272   1.934  16.257  0.7258  0.9803 -0.9653
12418TIP3    H258670   3.194   2.010  16.151 -1.1954 -0.0182 -0.2884
12419TIP3   OH258671   0.718   6.283   3.051  0.1406 -0.3718  0.3960
12419TIP3    H158672   0.770   6.285   3.132  1.7010 -1.8760 -0.5259
12419TIP3    H258673   0.676   6.198   3.052  1.5578 -1.1254 -1.1843
12420TIP3   OH258674   2.271   2.599  12.971  0.0646  0.3739  0.2080
12420TIP3    H158675   2.296   2.507  12.982 -2.5030 -0.3611  0.2506
12420TIP3    H258676   2.258   2.631  13.060 -3.1472 -0.4575  0.0909
12421TIP3   OH258677   2.212   0.676   6.373  0.5258 -0.1769  0.3046
12421TIP3    H158678   2.307   0.667   6.362  0.7091 -2.0352  2.8189
12421TIP3    H258679   2.201   0.715   6.460 -0.9868  2.6685 -1.1127
12422TIP3   OH258680   5.612   2.057  14.865  0.1679 -0.1157  0.7362
12422TIP3    H158681   5.630   2.047  14.772  0.2461 -0.5330  0.7931
12422TIP3    H258682   5.590   1.968  14.894 -2.5937  0.4571  0.5226
12423TIP3   OH258683   1.380   0.576   4.276 -1.0509  0.0742  0.1869
12423TIP3    H158684   1.377   0.577   4.181  1.9365 -1.0261  0.0230
12423TIP3    H258685   1.331   0.498   4.301 -0.5554 -0.4722 -0.5307
12424TIP3   OH258686   3.649   6.754   0.762 -0.3339  0.1595 -0.4651
12424TIP3    H158687   3.595   6.756   0.841 -0.1100  0.8432 -0.3278
12424TIP3    H258688   3.644   6.663   0.731 -0.5023 -0.0839  0.2788
12425TIP3   OH258689   0.092   3.845   2.085 -0.4038  0.1471  0.1757
12425TIP3    H158690   0.139   3.868   2.005  1.1587 -1.9148  0.4600
12425TIP3    H258691   0.131   3.900   2.153  0.1025 -0.0115  0.0126
12426TIP3   OH258692   0.438   2.320  12.605 -0.3650 -0.5610 -0.6969
12426TIP3    H158693   0.459   2.305  12.698  1.5893  1.2594 -0.8141
12426TIP3    H258694   0.392   2.403  12.604 -0.2545 -0.5096 -1.3810
12427TIP3   OH258695   1.831   5.362   2.230 -0.1371  0.1810 -0.6198
12427TIP3    H158696   1.804   5.271   2.222 -0.0709  0.0269  0.7976
12427TIP3    H258697   1.749   5.411   2.230 -0.1812  0.1110 -1.2010
12428TIP3   OH258698   0.067   3.280   5.507  0.1802  0.1232  0.3799
12428TIP3    H158699   0.029   3.200   5.542 -0.1608  0.9397  1.9199
12428TIP3    H258700   0.080   3.262   5.414 -0.8081 -1.3608  0.5181
12429TIP3   OH258701   4.830   6.352   3.906  0.3592 -0.3818  0.0141
12429TIP3    H158702   4.787   6.312   3.982 -1.2019 -0.6569 -1.0042
12429TIP3    H258703   4.762   6.404   3.865  1.5297  0.7297 -0.5239
12430TIP3   OH258704   4.209   5.980  15.377 -0.0316  0.5055 -0.0568
12430TIP3    H158705   4.244   5.909  15.323  0.4495  0.5670  0.1653
12430TIP3    H258706   4.131   5.943  15.418 -0.6863  0.6246 -1.1884
12431TIP3   OH258707   3.190   4.709   1.429  0.1898 -0.1898  0.2895
12431TIP3    H158708   3.242   4.771   1.479  1.1357 -0.3691 -0.4545
12431TIP3    H258709   3.240   4.627   1.432 -0.7291 -0.7477  0.7221
12432TIP3   OH258710   5.781   6.584   5.757  0.3691 -0.1522 -0.4713
12432TIP3    H158711   5.771   6.662   5.812 -1.3358 -0.9176  0.3357
12432TIP3    H258712   5.868   6.550   5.781  0.9401  1.2427 -0.5147
12433TIP3   OH258713   5.528   2.834  16.933 -0.0253  0.3376 -0.0167
12433TIP3    H158714   5.435   2.818  16.943 -0.3044  0.4506 -2.2069
12433TIP3    H258715   5.565   2.749  16.910  0.0164  0.7805 -1.6320
12434TIP3   OH258716   6.610   5.408   2.300  0.1665  0.3746 -0.0785
12434TIP3    H158717   6.535   5.434   2.354 -0.1448 -0.0017 -0.3309
12434TIP3    H258718   6.576   5.405   2.211  0.5643  0.5190 -0.2363
12435TIP3   OH258719   1.941   3.820  15.931  0.3690 -0.8835 -0.1023
12435TIP3    H158720   1.917   3.752  15.867  0.3652  0.2264 -1.2847
12435TIP3    H258721   2.016   3.864  15.893  0.6639 -0.5203  0.8879
12436TIP3   OH258722   3.318   1.948   1.329  0.6347  0.3817  0.1230
12436TIP3    H158723   3.290   1.872   1.380 -1.0459  1.1657  0.4248
12436TIP3    H258724   3.369   2.001   1.391 -3.0696  2.3276  1.7332
12437TIP3   OH258725   1.482   5.019   2.991  0.6927 -0.5859 -0.3024
12437TIP3    H158726   1.455   5.006   3.082  0.4182  0.6668 -0.1962
12437TIP3    H258727   1.410   4.982   2.939  0.3878 -0.4178 -0.0024
12438TIP3   OH258728   5.179   5.336  12.042 -0.4034 -0.2563  0.4071
12438TIP3    H158729   5.121   5.327  12.117 -0.0465  0.7672  0.8280
12438TIP3    H258730   5.125   5.315  11.966 -1.2609  0.4467  0.8134
12439TIP3   OH258731   6.515   3.456  14.679  0.5737 -0.0857  0.1092
12439TIP3    H158732   6.571   3.421  14.749  1.0744  1.2423  0.4087
12439TIP3    H258733   6.448   3.390  14.666  1.6805 -1.2867  0.4105
12440TIP3   OH258734   3.748   3.392   1.754 -0.3932 -0.1860  0.0157
12440TIP3    H158735   3.746   3.434   1.669 -0.2635  0.8962  0.5402
12440TIP3    H258736   3.812   3.441   1.805 -2.0426  0.5829  1.4394
12441TIP3   OH258737   4.821   2.725  14.159  0.0887 -0.1823  0.2985
12441TIP3    H158738   4.755   2.690  14.219 -0.1337 -0.1533  0.0706
12441TIP3    H258739   4.868   2.648  14.128 -1.5827 -0.4561 -1.6065
12442TIP3   OH258740   2.482   3.195   5.052  0.1823  0.0230  0.1366
12442TIP3    H158741   2.539   3.135   5.100 -0.6661 -1.2047 -0.3517
12442TIP3    H258742   2.526   3.209   4.968  1.1279  1.3075  0.8258
12443TIP3   OH258743   0.319   5.075   1.257 -0.6230  0.1675 -0.1490
12443TIP3    H158744   0.366   5.053   1.338 -0.5986 -1.0597 -0.4823
12443TIP3    H258745   0.252   5.137   1.285  0.4316  1.0184  0.5345
12444TIP3   OH258746   0.180   0.785   4.192  0.1002  0.2840  0.1990
12444TIP3    H158747   0.233   0.711   4.161  2.1539  0.9715  1.9053
12444TIP3    H258748   0.192   0.784   4.287 -2.7120  0.7044  0.5837
12445TIP3   OH258749   5.476   4.087  10.530 -0.2096 -0.2244  0.3244
12445TIP3    H158750   5.569   4.077  10.552 -0.3664 -1.4211  0.4718
12445TIP3    H258751   5.470   4.174  10.490  0.7338  0.4349  1.5868
12446TIP3   OH258752   2.282   5.125   4.800  0.0185  0.4938 -0.0275
12446TIP3    H158753   2.214   5.058   4.794  0.3496  0.3614 -3.7002
12446TIP3    H258754   2.254   5.182   4.871 -1.9275 -1.7244  1.0286
12447TIP3   OH258755   5.369   6.343   4.296  0.4204 -0.3328  0.0876
12447TIP3    H158756   5.296   6.327   4.237 -0.1076 -0.3296  0.7414
12447TIP3    H258757   5.446   6.341   4.239 -0.2012  0.9728 -0.8074
12448TIP3   OH258758   4.860   5.361  11.089 -0.4564  0.3403 -0.2214
12448TIP3    H158759   4.881   5.316  11.171 -1.8137 -0.7253 -0.4558
12448TIP3    H258760   4.809   5.298  11.039 -2.7746  2.2638 -0.3791
12449TIP3   OH258761   0.205   1.379   0.140 -0.4005 -0.0663  0.0233
12449TIP3    H158762   0.114   1.405   0.156 -0.3295 -0.8664  1.8027
12449TIP3    H258763   0.229   1.426   0.060 -2.6606 -0.5209 -0.9752
12450TIP3   OH258764   3.576   4.121  13.120  0.2063  0.0026 -0.1200
12450TIP3    H158765   3.518   4.187  13.157 -1.7776 -1.2583 -0.9084
12450TIP3    H258766   3.573   4.137  13.026  0.3188 -0.7144 -0.2500
12451TIP3   OH258767   1.509   5.539  15.220 -0.7469  0.0976 -0.6385
12451TIP3    H158768   1.505   5.545  15.316  0.2566  0.8759 -0.6412
12451TIP3    H258769   1.425   5.575  15.190 -1.0143 -0.0398 -0.0601
12452TIP3   OH258770   5.897   4.080   0.170 -0.4285 -0.2223  0.5687
12452TIP3    H158771   5.833   4.088   0.100  0.3264 -1.0683 -0.2340
12452TIP3    H258772   5.862   4.133   0.242 -1.8537 -0.4206  0.0251
12453TIP3   OH258773   4.525   4.947   1.747 -0.4596  0.1919  0.6362
12453TIP3    H158774   4.526   4.932   1.652 -2.4362 -0.0088  0.6333
12453TIP3    H258775   4.614   4.976   1.767  0.4214 -1.2571 -1.0274
12454TIP3   OH258776   5.488   5.990   3.296  0.3620 -0.5481  0.3447
12454TIP3    H158777   5.457   6.077   3.269  0.6564  0.1954  2.3527
12454TIP3    H258778   5.435   5.929   3.245 -1.3205  0.7826  0.4550
12455TIP3   OH258779   2.860   1.537   3.866  0.3977  0.9093 -0.1192
12455TIP3    H158780   2.838   1.580   3.948  1.4962  0.6808  0.3008
12455TIP3    H258781   2.784   1.483   3.845 -0.9918  3.0390 -0.6516
12456TIP3   OH258782   3.081   2.336  12.022  0.0860  0.2454  0.4532
12456TIP3    H158783   3.076   2.335  11.926  0.7942  0.4067  0.4043
12456TIP3    H258784   3.082   2.244  12.047 -0.8353  0.2028  0.3555
12457TIP3   OH258785   3.283   1.747   0.558  0.4445  0.0630  0.0597
12457TIP3    H158786   3.355   1.686   0.541  0.2593 -0.7022  1.8879
12457TIP3    H258787   3.325   1.826   0.591  0.6141  0.5742 -1.3541
12458TIP3   OH258788   1.602   5.032   2.168  0.0160  0.1611 -0.1490
12458TIP3    H158789   1.529   5.050   2.109 -1.9044  2.6403  2.8639
12458TIP3    H258790   1.679   5.065   2.122 -1.2417  0.7886 -1.8255
12459TIP3   OH258791   5.293   4.524  16.181 -0.0851  0.4369 -0.0370
12459TIP3    H158792   5.270   4.596  16.240 -1.1979  1.0622 -1.2049
12459TIP3    H258793   5.372   4.554  16.136  0.4616  0.1824  0.7494
12460TIP3   OH258794   3.531   0.287  16.498  0.2095 -1.0599 -0.0783
12460TIP3    H158795   3.541   0.382  16.501 -2.7738 -0.6895 -0.9381
12460TIP3    H258796   3.510   0.262  16.588  0.5799 -0.8566  0.0647
12461TIP3   OH258797   5.498   4.087  12.609 -0.2946  0.6227 -0.1665
12461TIP3    H158798   5.431   4.039  12.659 -0.0697 -0.7657 -1.1735
12461TIP3    H258799   5.547   4.136  12.676  1.6428 -3.1844  1.3837
12462TIP3   OH258800   2.739   5.565   1.503  0.1854  0.0621  0.3313
12462TIP3    H158801   2.774   5.485   1.540 -4.0510 -1.3155  1.6629
12462TIP3    H258802   2.705   5.614   1.578  0.0443  1.7357 -0.7748
12463TIP3   OH258803   2.809   6.780  12.718 -0.4947 -0.4619 -0.5924
12463TIP3    H158804   2.763   6.761  12.636  0.4463 -0.8757 -1.0329
12463TIP3    H258805   2.875   6.711  12.724  0.1056  0.1682  0.0030
12464TIP3   OH258806   0.234   6.331   4.336 -0.0859  0.1358 -0.1741
12464TIP3    H158807   0.232   6.409   4.390  1.2169 -0.6468  1.0485
12464TIP3    H258808   0.145   6.297   4.337 -0.0327  0.0453  1.6322
12465TIP3   OH258809   4.210   4.395   0.847  0.3329  0.2534 -0.3669
12465TIP3    H158810   4.276   4.458   0.818  0.3204 -0.1112 -1.1963
12465TIP3    H258811   4.175   4.358   0.766 -0.7891  0.3341  0.0681
12466TIP3   OH258812   0.581   5.985  11.024 -0.4871 -0.2874 -0.0733
12466TIP3    H158813   0.611   5.930  11.097  1.3119  0.3008 -0.3543
12466TIP3    H258814   0.562   6.070  11.064  0.0889 -0.0914 -0.2109
12467TIP3   OH258815   2.495   5.871  10.506 -0.4616  0.5874 -0.2260
12467TIP3    H158816   2.409   5.852  10.469 -0.0953  2.1670 -1.9734
12467TIP3    H258817   2.479   5.939  10.572 -0.8722 -0.9309  1.2622
12468TIP3   OH258818   1.210   6.571  11.514  0.0924 -0.6265  0.1820
12468TIP3    H158819   1.123   6.538  11.488  0.2847 -0.8390 -0.1900
12468TIP3    H258820   1.243   6.504  11.575  0.1831 -0.7715 -0.0242
12469TIP3   OH258821   2.284   2.519   5.355  0.1529 -0.7450 -0.1626
12469TIP3    H158822   2.286   2.551   5.446 -1.9379  0.4141 -0.4820
12469TIP3    H258823   2.197   2.479   5.346  0.4779 -1.1632 -1.5510
12470TIP3   OH258824   4.207   3.678   1.093 -0.6370 -0.8314 -0.8019
12470TIP3    H158825   4.262   3.681   1.171 -1.7142 -2.4511  0.0550
12470TIP3    H258826   4.267   3.652   1.023  0.4388  1.1057 -0.6368
12471TIP3   OH258827   1.364   0.111  15.514 -0.0171  0.3968  0.1179
12471TIP3    H158828   1.451   0.110  15.554 -0.5621 -1.9226  1.3626
12471TIP3    H258829   1.378   0.088  15.423  0.6243 -0.5690  0.4577
12472TIP3   OH258830   0.054   2.377   6.458  0.1274 -0.3601  0.1917
12472TIP3    H158831  -0.029   2.406   6.420  0.1265 -0.3481  0.2039
12472TIP3    H258832   0.119   2.437   6.421  0.3652 -1.3952 -1.1307
12473TIP3   OH258833   3.094   1.078  12.478 -0.5580  0.1717 -0.0221
12473TIP3    H158834   3.090   1.129  12.558  0.7982  2.6618 -1.4659
12473TIP3    H258835   3.003   1.053  12.460 -0.9405  0.1211  1.9189
12474TIP3   OH258836   2.230   3.759  16.361  0.3025  0.1774 -0.3689
12474TIP3    H158837   2.208   3.837  16.411 -0.9058 -0.6012  0.3277
12474TIP3    H258838   2.320   3.738  16.388  0.7326  1.4716 -0.7698
12475TIP3   OH258839   3.018   0.291  11.763 -0.1336 -0.0391 -0.0082
12475TIP3    H158840   2.948   0.242  11.804  0.2070 -0.3841  0.1636
12475TIP3    H258841   2.978   0.374  11.736 -0.3072  0.2754  1.2028
12476TIP3   OH258842   5.366   1.848  13.254 -0.3161 -0.3921  0.2806
12476TIP3    H158843   5.336   1.901  13.180  0.0478  1.0393  1.1563
12476TIP3    H258844   5.410   1.773  13.213 -0.7638  0.0111 -0.9590
12477TIP3   OH258845   3.588   6.766   1.611 -0.1610 -0.4900 -0.2391
12477TIP3    H158846   3.614   6.754   1.702 -1.4776  0.8166  0.3310
12477TIP3    H258847   3.653   6.826   1.574  0.2554 -0.8631 -0.1108
12478TIP3   OH258848   1.185   0.792   3.216 -0.2265  0.2113 -0.5143
12478TIP3    H158849   1.219   0.879   3.237 -1.5218  1.0541 -1.7715
12478TIP3    H258850   1.232   0.767   3.136 -0.2475  0.0170 -0.4652
12479TIP3   OH258851   3.565   4.089  11.333  0.2269 -0.0290  0.2137
12479TIP3    H158852   3.655   4.112  11.308  0.3541  0.0139  0.7189
12479TIP3    H258853   3.538   4.158  11.393 -0.3228  0.2307 -0.3255
12480TIP3   OH258854   0.297   6.212  13.267 -0.5086  0.0329  0.3534
12480TIP3    H158855   0.388   6.184  13.268 -0.4821  0.0350  2.8167
12480TIP3    H258856   0.267   6.196  13.178  1.4665 -1.3700 -0.0824
12481TIP3   OH258857   4.242   0.710  11.065 -0.1702  0.4449  0.0967
12481TIP3    H158858   4.210   0.796  11.040  1.2053  0.0532 -3.3023
12481TIP3    H258859   4.173   0.650  11.039 -0.0458  0.3039  0.0895
12482TIP3   OH258860   3.608   1.545   0.100  0.1329  0.2754  0.4728
12482TIP3    H158861   3.537   1.489   0.067  1.1613 -1.0550  0.4769
12482TIP3    H258862   3.568   1.631   0.110 -1.5298 -0.4996  0.6283
12483TIP3   OH258863   2.044   5.011  12.398 -0.1264  0.5131  0.1136
12483TIP3    H158864   2.006   5.098  12.409 -1.6624  0.0103 -1.0912
12483TIP3    H258865   2.047   4.976  12.487 -0.7056  1.3013  0.4556
12484TIP3   OH258866   5.588   5.495   3.432 -0.1199  0.0884  0.1787
12484TIP3    H158867   5.546   5.525   3.512 -1.5480 -0.1050 -0.4832
12484TIP3    H258868   5.667   5.450   3.462 -1.9220 -2.2397  1.6629
12485TIP3   OH258869   2.114   4.611   2.614  0.1087  0.3440  0.1002
12485TIP3    H158870   2.172   4.675   2.654  2.5600 -2.2012  0.8079
12485TIP3    H258871   2.109   4.539   2.677  0.1147 -1.6259 -2.0463
12486TIP3   OH258872   4.273   4.621  17.194 -0.0378 -0.1633 -0.5074
12486TIP3    H158873   4.327   4.602  17.117  1.2745  2.6816 -0.3689
12486TIP3    H258874   4.209   4.686  17.163  0.5129  1.0194  0.7743
12487TIP3   OH258875   5.003   3.220   4.643 -0.4452  0.3033 -0.4652
12487TIP3    H158876   4.944   3.191   4.712 -0.0221  0.0805 -0.2004
12487TIP3    H258877   4.969   3.178   4.564 -0.7218  0.2834 -0.3389
12488TIP3   OH258878   4.866   0.745  11.969 -0.1315 -0.3301 -0.2919
12488TIP3    H158879   4.842   0.665  11.923 -0.1221 -1.4956  1.6916
12488TIP3    H258880   4.791   0.803  11.954 -0.1638 -0.7043 -1.6898
12489TIP3   OH258881   4.398   5.571  14.474 -0.4945 -0.0055 -0.0634
12489TIP3    H158882   4.425   5.504  14.538 -1.0689  0.1429  0.3430
12489TIP3    H258883   4.469   5.635  14.475  0.3994 -0.9747 -0.9867
12490TIP3   OH258884   1.591   3.445  17.212  0.1097  0.1875 -0.0637
12490TIP3    H158885   1.662   3.429  17.274 -0.0364 -3.0606 -0.6511
12490TIP3    H258886   1.511   3.425  17.262 -0.2900  1.8010 -0.0290
12491TIP3   OH258887   3.943   4.746  14.570 -0.0925  0.1917 -0.3344
12491TIP3    H158888   3.867   4.737  14.512 -0.6161  0.0922  0.3665
12491TIP3    H258889   4.006   4.682  14.536 -1.0207 -1.0197  0.2012
12492TIP3   OH258890   0.809   3.759  13.610 -0.2276  0.6109 -0.9227
12492TIP3    H158891   0.819   3.669  13.640 -0.4957  0.8270 -0.1855
12492TIP3    H258892   0.898   3.796  13.615 -0.3981  0.8689  0.3230
12493TIP3   OH258893   0.637   4.764  13.685 -0.4012  0.2754  0.4338
12493TIP3    H158894   0.589   4.692  13.726  1.5710 -0.5549  1.2988
12493TIP3    H258895   0.677   4.725  13.607  0.1219  0.5986  0.5401
12494TIP3   OH258896   0.474   5.174  12.748  0.5042  0.5007 -0.4137
12494TIP3    H158897   0.504   5.219  12.670  1.1593  0.4687 -0.1827
12494TIP3    H258898   0.546   5.182  12.810  0.3315 -0.2114 -0.1115
12495TIP3   OH258899   1.034   0.567   0.905  0.3529 -0.3307 -0.4833
12495TIP3    H158900   0.962   0.624   0.931  0.4002 -0.5083  0.0558
12495TIP3    H258901   1.094   0.624   0.857  0.2518  0.0047 -0.2173
12496TIP3   OH258902   3.502   3.701   6.755 -0.3641  0.0095 -0.0296
12496TIP3    H158903   3.469   3.790   6.743  0.3094  0.8583  3.7731
12496TIP3    H258904   3.578   3.695   6.697 -1.6149  1.1814 -1.8281
12497TIP3   OH258905   4.712   4.326  17.204  0.1024 -0.2467 -0.0791
12497TIP3    H158906   4.687   4.343  17.113 -0.7474 -1.4391 -0.0741
12497TIP3    H258907   4.632   4.341  17.254 -0.9897 -5.0804 -0.1640
12498TIP3   OH258908   6.124   4.618   5.318 -0.1335  0.3455 -0.3882
12498TIP3    H158909   6.214   4.644   5.339  0.6795 -2.4844 -0.1929
12498TIP3    H258910   6.117   4.633   5.223  1.1159 -0.9813 -0.7102
12499TIP3   OH258911   4.022   2.817  11.102  0.2081 -0.3339 -0.4088
12499TIP3    H158912   3.987   2.770  11.178 -0.5172  0.0262 -0.5101
12499TIP3    H258913   4.073   2.889  11.140 -0.1871 -0.1306 -0.2540
12500TIP3   OH258914   0.592   2.320   2.784 -0.2628  0.0422  0.4045
12500TIP3    H158915   0.661   2.373   2.822  1.0673 -0.8102 -0.7739
12500TIP3    H258916   0.592   2.240   2.836  0.5304 -0.4950 -0.4089
12501TIP3   OH258917   5.360   5.386  12.459  0.3408 -0.1771 -0.3705
12501TIP3    H158918   5.429   5.356  12.400  1.1943  0.2762  0.3902
12501TIP3    H258919   5.355   5.318  12.527  1.1700  0.5781  0.4666
12502TIP3   OH258920   5.875   2.843   0.832 -0.2859 -0.4589  0.0570
12502TIP3    H158921   5.856   2.769   0.890 -2.3933  0.6772  0.8882
12502TIP3    H258922   5.790   2.886   0.820  0.4829  0.4982 -2.2732
12503TIP3   OH258923   5.129   2.803  15.671  0.2696 -0.1299 -0.4405
12503TIP3    H158924   5.044   2.780  15.634  0.0616  1.9504 -1.3398
12503TIP3    H258925   5.188   2.805  15.595  1.1311 -1.5884  0.1837
12504TIP3   OH258926   3.890   0.558  16.823  0.1755  0.3793  0.0948
12504TIP3    H158927   3.878   0.504  16.745 -1.4760  2.0480 -0.8439
12504TIP3    H258928   3.878   0.498  16.896 -0.0193 -0.8483 -0.9357
12505TIP3   OH258929   5.253   6.037   0.663 -0.4559  0.1546 -0.1996
12505TIP3    H158930   5.342   6.028   0.698 -1.0255  0.7678  1.4562
12505TIP3    H258931   5.211   5.954   0.685 -0.9766  0.7441  1.1071
12506TIP3   OH258932   1.067   0.129   1.160  0.1545  0.3501  0.3383
12506TIP3    H158933   1.056   0.048   1.211  0.2430  0.9113  1.2557
12506TIP3    H258934   1.064   0.100   1.069  2.8392 -1.0790  0.6240
12507TIP3   OH258935   4.582   4.076  13.297  0.5125 -0.2189 -0.2905
12507TIP3    H158936   4.642   4.036  13.360  0.2169 -0.2437 -0.0262
12507TIP3    H258937   4.501   4.027  13.305  0.5287 -0.3400 -0.8240
12508TIP3   OH258938   3.287   4.123   1.518  0.1848 -0.5440 -0.1925
12508TIP3    H158939   3.295   4.115   1.613  2.1243  0.7961 -0.1952
12508TIP3    H258940   3.376   4.107   1.485 -0.0798  0.7435 -1.6214
12509TIP3   OH258941   6.104   0.191   2.520  0.2051 -0.2712 -0.0033
12509TIP3    H158942   6.066   0.119   2.469 -0.1986 -0.9792  1.2821
12509TIP3    H258943   6.192   0.160   2.542  0.3427 -0.0081 -0.1826
12510TIP3   OH258944   6.675   1.112  13.420 -0.6064  0.2502 -0.3096
12510TIP3    H158945   6.761   1.143  13.389  0.2426  0.5162  2.2203
12510TIP3    H258946   6.696   1.048  13.489 -2.4337 -1.3880 -1.2330
12511TIP3   OH258947   4.710   3.747   0.819 -0.1480 -0.5791 -0.0132
12511TIP3    H158948   4.714   3.817   0.754 -1.8796 -1.8050 -1.4778
12511TIP3    H258949   4.648   3.779   0.885 -1.4311 -0.9740 -1.0079
12512TIP3   OH258950   5.335   6.612  11.497  0.7934  0.7806 -0.5969
12512TIP3    H158951   5.414   6.624  11.549  1.1559 -2.4561 -0.3004
12512TIP3    H258952   5.366   6.610  11.406  1.1797 -0.9519 -0.4558
12513TIP3   OH258953   5.928   5.122  12.732 -0.2520  0.0789 -0.4404
12513TIP3    H158954   5.968   5.058  12.791  0.1413  0.7787  0.0485
12513TIP3    H258955   5.962   5.206  12.761 -1.1318  0.5582 -0.8042
12514TIP3   OH258956   4.864   3.677  15.278 -0.0442 -0.2706  0.0686
12514TIP3    H158957   4.871   3.663  15.373 -0.4702  1.7352  0.4232
12514TIP3    H258958   4.954   3.690  15.249  0.3607 -3.3468 -0.2587
12515TIP3   OH258959   0.770   0.579   3.604  0.4302 -0.1241 -0.2696
12515TIP3    H158960   0.807   0.509   3.550 -1.1223 -0.9298 -0.3352
12515TIP3    H258961   0.675   0.570   3.593  0.1718  1.1928  0.7358
12516TIP3   OH258962   6.771   1.702  12.186  0.0782 -0.2589 -0.5899
12516TIP3    H158963   6.737   1.748  12.109  0.2520 -0.1939 -0.6277
12516TIP3    H258964   6.728   1.745  12.260  1.7587  1.3228 -0.4863
12517TIP3   OH258965   4.383   4.386  15.480 -0.1030 -0.3812  0.2920
12517TIP3    H158966   4.412   4.477  15.475 -1.6083  0.0556 -0.8653
12517TIP3    H258967   4.295   4.391  15.518  0.5918 -1.5411  2.1417
12518TIP3   OH258968   1.315   5.787  10.914 -0.1183 -0.2942  0.0979
12518TIP3    H158969   1.304   5.866  10.861 -2.3423  0.6471  1.8734
12518TIP3    H258970   1.409   5.783  10.931 -0.0674  2.5120  0.7109
12519TIP3   OH258971   1.560   3.729  16.290 -0.4372 -0.5343 -0.1052
12519TIP3    H158972   1.496   3.716  16.360  0.8332 -1.9943  0.8448
12519TIP3    H258973   1.605   3.810  16.313  1.7633 -2.3428  2.2901
12520TIP3   OH258974   5.188   0.441   3.369 -0.5316  0.4658  0.6346
12520TIP3    H158975   5.174   0.420   3.277  1.4963 -0.2347  0.4642
12520TIP3    H258976   5.119   0.393   3.415 -0.8724 -0.0838 -0.4267
12521TIP3   OH258977   5.305   4.704  13.732 -0.1413  0.2523 -0.3188
12521TIP3    H158978   5.396   4.710  13.702  0.1105 -0.8946  0.1944
12521TIP3    H258979   5.261   4.653  13.664 -0.5909  1.4973 -0.9699
12522TIP3   OH258980   5.308   0.377  12.400  0.3887  0.2808  0.0429
12522TIP3    H158981   5.327   0.447  12.463  0.8699 -1.4396  1.8290
12522TIP3    H258982   5.217   0.353  12.417  0.4161  0.0324 -0.1629
12523TIP3   OH258983   2.217   0.877  12.481 -0.3666  0.3165 -0.6045
12523TIP3    H158984   2.259   0.814  12.422 -0.3331  0.6978 -0.9908
12523TIP3    H258985   2.279   0.949  12.486 -0.5528  0.4615 -0.4216
12524TIP3   OH258986   1.254   5.760  10.602 -0.0015 -0.0268 -0.8435
12524TIP3    H158987   1.261   5.840  10.654 -2.7695  0.1350 -0.6645
12524TIP3    H258988   1.315   5.773  10.530  2.1518  0.7539  1.0275
12525TIP3   OH258989   0.840   0.129  14.922 -0.5115 -0.3482 -0.4227
12525TIP3    H158990   0.865   0.214  14.959 -1.2444  0.0615 -0.8455
12525TIP3    H258991   0.781   0.151  14.850  0.6915 -1.1348 -1.6766
12526TIP3   OH258992   5.849   0.816  14.937 -0.0926 -0.2421  0.3035
12526TIP3    H158993   5.911   0.838  15.007 -0.6590 -0.8946  1.0179
12526TIP3    H258994   5.886   0.856  14.859 -0.7515  2.6653  1.4383
12527TIP3   OH258995   4.810   2.937   2.189  0.1967 -0.6023 -0.4792
12527TIP3    H158996   4.836   2.927   2.281  0.0967 -0.6966 -0.4607
12527TIP3    H258997   4.869   3.004   2.154 -0.9212  0.7063  0.1181
12528TIP3   OH258998   0.306   4.382  11.821 -0.3059  0.1211 -0.6739
12528TIP3    H158999   0.315   4.393  11.915  3.0319 -0.2424 -0.9025
12528TIP3    H259000   0.357   4.453  11.783  0.9452 -1.5342 -2.1749
12529TIP3   OH259001   4.976   4.951   0.846  0.2838  0.1800  0.7985
12529TIP3    H159002   4.904   4.986   0.898 -0.2395  1.7311 -0.9193
12529TIP3    H259003   5.049   4.945   0.907  0.4971  4.6268  1.1241
12530TIP3   OH259004   6.474   6.716   2.161  0.6927 -0.3406  0.2483
12530TIP3    H159005   6.532   6.756   2.226  1.2334 -0.6129 -0.0644
12530TIP3    H259006   6.528   6.650   2.118  1.3552  2.0150 -2.7241
12531TIP3   OH259007   1.955   3.865  16.439 -0.2111 -0.3961 -0.2652
12531TIP3    H159008   1.859   3.868  16.431 -0.1335 -0.4706 -1.2418
12531TIP3    H259009   1.987   3.890  16.353  0.6591 -0.2361  0.1000
12532TIP3   OH259010   0.813   2.100  13.262 -0.3611 -0.4697 -0.1656
12532TIP3    H159011   0.785   2.013  13.233 -1.4309  0.0128 -0.5962
12532TIP3    H259012   0.897   2.114  13.217  0.4319 -1.7897  0.8834
12533TIP3   OH259013   5.487   4.776   4.137  0.7003 -0.3826 -0.0492
12533TIP3    H159014   5.455   4.865   4.149  0.8552 -0.1688 -1.2025
12533TIP3    H259015   5.550   4.763   4.208 -0.5582 -0.1587  1.1208
12534TIP3   OH259016   3.630   3.582   2.946 -0.5043  0.1779  0.1446
12534TIP3    H159017   3.582   3.547   3.021 -0.4429  0.5569  0.3620
12534TIP3    H259018   3.711   3.530   2.944 -0.8791 -0.3951 -0.1657
12535TIP3   OH259019   0.285   1.335   2.899  0.6578  0.5926  0.2596
12535TIP3    H159020   0.280   1.315   2.992 -2.5575  0.8097  0.2030
12535TIP3    H259021   0.294   1.249   2.857 -2.1589  0.0665  0.5993
12536TIP3   OH259022   4.691   1.138   1.682 -0.8186  0.1954  0.0247
12536TIP3    H159023   4.604   1.157   1.646  0.6372  2.4801 -2.4862
12536TIP3    H259024   4.731   1.079   1.618 -0.8043 -1.5724  1.6203
12537TIP3   OH259025   0.487   0.223  16.668 -0.4132 -0.3922  0.0203
12537TIP3    H159026   0.406   0.184  16.703 -0.1132 -1.9509 -0.9657
12537TIP3    H259027   0.546   0.226  16.744 -0.3523 -2.1433  0.0632
12538TIP3   OH259028   5.102   4.509   2.981 -0.5227 -0.2043  0.4759
12538TIP3    H159029   5.132   4.418   2.981 -1.2016 -0.4476 -1.2580
12538TIP3    H259030   5.166   4.556   3.034 -1.1949 -2.0168  2.9926
12539TIP3   OH259031   1.161   2.107   5.987 -0.4208 -0.2769  0.4118
12539TIP3    H159032   1.233   2.045   5.973  0.2764  0.7709 -0.8072
12539TIP3    H259033   1.102   2.063   6.049  1.6996 -0.8052  2.1113
12540TIP3   OH259034   5.853   4.328   3.326 -0.4676  0.6432 -0.4879
12540TIP3    H159035   5.892   4.261   3.270 -0.2343  0.1712  0.2308
12540TIP3    H259036   5.811   4.388   3.266 -1.5288 -0.6783 -1.0925
12541TIP3   OH259037   4.754   5.052  14.289  0.0107  0.2006 -0.7596
12541TIP3    H159038   4.827   4.991  14.279 -0.4168 -0.3337 -0.6913
12541TIP3    H259039   4.792   5.138  14.279  0.5208 -0.1090 -1.4751
12542TIP3   OH259040   6.679   5.492  13.825  0.4464 -0.7313  0.3934
12542TIP3    H159041   6.583   5.494  13.815  0.6155 -1.9501 -1.7996
12542TIP3    H259042   6.705   5.584  13.826 -0.7210 -0.3908  0.7576
12543TIP3   OH259043   0.068   0.541  12.080  0.1738 -0.6491 -0.3218
12543TIP3    H159044   0.160   0.559  12.100 -0.0843 -0.6927  0.9273
12543TIP3    H259045   0.022   0.621  12.105 -0.1855 -0.7959 -0.5166
12544TIP3   OH259046   5.511   1.592  15.935 -0.0368 -0.4764 -0.2469
12544TIP3    H159047   5.535   1.633  15.851  1.1562 -0.4524  0.1027
12544TIP3    H259048   5.537   1.501  15.925 -2.4336 -1.1142 -0.9152
12545TIP3   OH259049   0.441   5.826  10.496  0.0001 -0.4096 -0.4407
12545TIP3    H159050   0.527   5.785  10.495 -0.9681 -2.4810 -1.1046
12545TIP3    H259051   0.379   5.754  10.486 -1.7840  1.1449 -1.0381
12546TIP3   OH259052   5.580   0.829  14.328 -0.2363 -0.3145  0.3901
12546TIP3    H159053   5.574   0.908  14.275 -1.7983  0.5981  1.8787
12546TIP3    H259054   5.665   0.792  14.306  0.0890  1.2443 -1.0720
12547TIP3   OH259055   3.006   1.288   5.496 -0.8025 -0.3613  0.7192
12547TIP3    H159056   2.943   1.358   5.480 -0.3579  0.0299  0.6582
12547TIP3    H259057   3.091   1.329   5.478 -0.3191 -0.1078  3.4007
12548TIP3   OH259058   4.364   2.412  15.735 -0.1083  0.1101  0.3311
12548TIP3    H159059   4.275   2.403  15.768  0.0249 -1.2705  0.3592
12548TIP3    H259060   4.368   2.352  15.661  1.5200 -1.7735  1.8710
12549TIP3   OH259061   4.903   3.494   0.444  0.2473 -0.5651 -0.4740
12549TIP3    H159062   4.977   3.551   0.421 -0.2684 -0.1117 -0.9912
12549TIP3    H259063   4.827   3.553   0.446 -0.1989 -1.1443 -0.5096
12550TIP3   OH259064   1.729   3.794   1.682  0.4442 -0.3504  0.0168
12550TIP3    H159065   1.794   3.834   1.739  0.0681  0.0394  0.1732
12550TIP3    H259066   1.779   3.758   1.609  0.7675  0.4899 -0.1714
12551TIP3   OH259067   5.493   0.414  16.338 -0.0226 -0.1488 -0.4824
12551TIP3    H159068   5.464   0.505  16.339  1.9799  0.5372 -1.6717
12551TIP3    H259069   5.469   0.382  16.251  0.0568 -0.5090 -0.3734
12552TIP3   OH259070   5.042   0.287  14.784 -0.3142 -0.8751 -0.0044
12552TIP3    H159071   5.119   0.296  14.841 -1.2421  1.0965  1.0099
12552TIP3    H259072   4.984   0.227  14.832  0.1895 -1.6377 -0.3359
12553TIP3   OH259073   3.154   1.526  16.953  0.0324  0.1994  0.3524
12553TIP3    H159074   3.120   1.585  17.020  1.0499 -0.6245  1.6221
12553TIP3    H259075   3.113   1.442  16.972  0.6710 -0.1458  0.2276
12554TIP3   OH259076   6.046   1.582   4.724  0.0589  0.6526 -0.0326
12554TIP3    H159077   6.008   1.579   4.812 -0.2528  0.1530 -0.1772
12554TIP3    H259078   6.013   1.503   4.682 -1.2263  1.7963 -1.1940
12555TIP3   OH259079   4.455   4.655   1.009 -0.4023 -0.5484  0.0963
12555TIP3    H159080   4.465   4.589   0.940 -0.4058  0.7765 -1.2038
12555TIP3    H259081   4.544   4.683   1.029 -0.5223  0.6148 -0.9264
12556TIP3   OH259082   5.347   2.203  14.408  0.0497 -0.8239 -0.5724
12556TIP3    H159083   5.340   2.110  14.385 -1.2589 -1.1487  1.0203
12556TIP3    H259084   5.275   2.217  14.470 -1.6747  1.9914 -3.1021
12557TIP3   OH259085   3.434   3.824  14.863 -0.6456  0.2582 -0.5664
12557TIP3    H159086   3.488   3.861  14.933 -0.0278  0.2466 -1.0362
12557TIP3    H259087   3.468   3.736  14.851 -0.0740  0.6126 -1.5831
12558TIP3   OH259088   0.553   3.902   2.447 -0.4531 -0.0505 -0.3364
12558TIP3    H159089   0.539   3.920   2.355 -1.5320  0.5987 -0.0498
12558TIP3    H259090   0.643   3.871   2.452 -0.4911 -0.3734 -1.6425
12559TIP3   OH259091   6.334   0.846  13.904 -0.2350 -0.4206  0.0781
12559TIP3    H159092   6.283   0.786  13.957 -0.5682 -0.2853 -0.0889
12559TIP3    H259093   6.342   0.925  13.958 -0.4749 -0.3253 -0.0259
12560TIP3   OH259094   2.124   6.748   1.943 -0.4983 -0.0675  0.0941
12560TIP3    H159095   2.034   6.777   1.930 -0.5684 -1.5979 -3.1677
12560TIP3    H259096   2.177   6.824   1.917 -0.8006 -0.0758 -0.5485
12561TIP3   OH259097   2.930   0.414  14.581 -0.0530  0.3857  0.1676
12561TIP3    H159098   2.961   0.429  14.671 -1.2045 -0.4961  0.7332
12561TIP3    H259099   2.837   0.435  14.584  0.0100  0.8437 -0.9606
12562TIP3   OH259100   4.842   5.454   5.445 -0.1707  0.1431 -0.2395
12562TIP3    H159101   4.891   5.403   5.380  2.1527  1.5734  0.3415
12562TIP3    H259102   4.872   5.420   5.529  0.2431  1.4221  0.1317
12563TIP3   OH259103   5.333   1.098  16.950 -0.3454 -0.2165 -0.5445
12563TIP3    H159104   5.416   1.140  16.973 -0.4589 -0.4409  0.2956
12563TIP3    H259105   5.287   1.162  16.897 -0.2270  0.4517  0.1523
12564TIP3   OH259106   0.995   3.876  15.411 -0.0601  0.2251  0.2546
12564TIP3    H159107   1.005   3.958  15.363 -0.7935 -0.2560 -0.7526
12564TIP3    H259108   0.916   3.889  15.464 -1.2904 -0.4871 -1.3456
12565TIP3   OH259109   0.788   5.290   3.599  0.2498  0.5726  0.6660
12565TIP3    H159110   0.749   5.215   3.644  1.1442 -0.0626  0.3887
12565TIP3    H259111   0.758   5.282   3.509 -0.3924  1.0571  0.8356
12566TIP3   OH259112   0.006   2.503   1.746 -0.1843  0.6044 -0.7062
12566TIP3    H159113   0.084   2.457   1.778  1.0653  1.9769 -1.7233
12566TIP3    H259114  -0.050   2.512   1.824  0.0252 -1.6562 -0.2768
12567TIP3   OH259115   1.823   2.976   5.490 -0.3750  0.5779  0.0731
12567TIP3    H159116   1.855   2.924   5.416 -0.8774 -0.6088  0.6784
12567TIP3    H259117   1.753   2.923   5.528 -0.1393  1.2005  1.3936
12568TIP3   OH259118   3.881   6.582   2.368 -0.2467 -0.4108 -0.2946
12568TIP3    H159119   3.902   6.493   2.338  2.2243  0.2115 -0.5557
12568TIP3    H259120   3.871   6.633   2.287  2.3436  0.3836 -0.1605
12569TIP3   OH259121   4.412   5.955  11.106  0.2668 -0.5543 -0.2598
12569TIP3    H159122   4.372   6.027  11.155  0.2261 -0.5499 -0.2992
12569TIP3    H259123   4.442   5.996  11.025  1.5923 -0.2765  0.3673
12570TIP3   OH259124   0.284   5.393  16.815 -0.0598 -0.4211 -0.2187
12570TIP3    H159125   0.374   5.383  16.783 -0.3628 -1.8512 -0.6212
12570TIP3    H259126   0.294   5.408  16.909  0.5295 -1.9631 -0.0343
12571TIP3   OH259127   6.023   5.852  15.552  0.3534 -0.3762 -0.0470
12571TIP3    H159128   6.107   5.870  15.510  0.0951 -0.6796 -0.6882
12571TIP3    H259129   5.965   5.828  15.480 -1.1232  2.8194 -0.0154
12572TIP3   OH259130   5.246   2.725  13.254  0.8833 -1.4069  0.0459
12572TIP3    H159131   5.181   2.703  13.321 -0.1893 -0.0024 -0.5199
12572TIP3    H259132   5.276   2.640  13.221 -1.5224 -2.0710 -0.5024
12573TIP3   OH259133   5.888   5.680   0.137  0.4415 -0.3912  0.2081
12573TIP3    H159134   5.876   5.715   0.049 -0.6652  0.8366  0.8173
12573TIP3    H259135   5.872   5.586   0.129 -1.5999  0.0046 -0.5471
12574TIP3   OH259136   3.672   6.361   5.718 -0.2079  0.1523 -0.2696
12574TIP3    H159137   3.697   6.269   5.733  0.9543  0.3041 -1.1909
12574TIP3    H259138   3.628   6.360   5.633  0.1360  0.5087 -0.4513
12575TIP3   OH259139   6.358   0.147   4.732  0.0908  0.4703  0.8025
12575TIP3    H159140   6.352   0.214   4.801 -0.0770  1.0233  0.2493
12575TIP3    H259141   6.337   0.065   4.778 -1.5583  1.0266  1.1030
12576TIP3   OH259142   2.526   0.355  15.396 -0.3600 -0.0085  0.2055
12576TIP3    H159143   2.600   0.400  15.437 -0.4065 -0.9856  1.3866
12576TIP3    H259144   2.557   0.265  15.382 -1.6404 -0.6859  1.5972
12577TIP3   OH259145   4.736   2.325   2.605 -0.2443 -0.0947 -0.0552
12577TIP3    H159146   4.682   2.389   2.650 -0.6167 -1.6190  1.7478
12577TIP3    H259147   4.815   2.318   2.659 -0.4979 -1.6131  0.1445
12578TIP3   OH259148   1.418   3.034   2.235  0.5739 -0.4756  0.9810
12578TIP3    H159149   1.499   3.043   2.184  1.2531 -0.0012  2.1324
12578TIP3    H259150   1.353   3.083   2.185  1.3420  0.3520  0.7880
12579TIP3   OH259151   1.336   2.603  12.469 -0.6459 -0.1476 -0.6042
12579TIP3    H159152   1.277   2.535  12.435 -0.7844  0.3045 -1.2801
12579TIP3    H259153   1.418   2.589  12.420 -1.0156  0.8465 -1.5302
12580TIP3   OH259154   2.491   1.015   1.818 -0.1600  0.0180 -0.5115
12580TIP3    H159155   2.452   1.077   1.880  1.3719  1.5729 -1.0648
12580TIP3    H259156   2.555   0.967   1.870  0.3259  0.5420 -0.6206
12581TIP3   OH259157   5.479   0.544  11.814 -0.2401  0.1659  0.2031
12581TIP3    H159158   5.406   0.601  11.840  0.4774  0.6936  1.0546
12581TIP3    H259159   5.557   0.585  11.852  0.4773 -0.5267 -0.5078
12582TIP3   OH259160   1.211   4.082   5.542  0.1299 -1.1106 -0.2024
12582TIP3    H159161   1.150   4.010   5.527 -3.4194  1.6783  0.2501
12582TIP3    H259162   1.194   4.110   5.632  0.9375  0.7356 -0.5897
12583TIP3   OH259163   5.786   2.395  16.510 -0.3322 -0.7485 -0.7135
12583TIP3    H159164   5.719   2.390  16.442 -1.4026  3.3660 -0.0869
12583TIP3    H259165   5.864   2.358  16.470 -1.7066 -1.0770 -3.1615
12584TIP3   OH259166   1.611   4.610   1.664  0.5788  0.0684 -0.0473
12584TIP3    H159167   1.572   4.629   1.750 -0.2917 -0.0416 -0.4104
12584TIP3    H259168   1.548   4.551   1.622  1.6903 -1.0102 -0.2112
12585TIP3   OH259169   4.182   1.818   5.760 -0.5687 -0.1375 -0.3705
12585TIP3    H159170   4.091   1.830   5.735 -0.6169  0.2596  0.0067
12585TIP3    H259171   4.180   1.801   5.854 -0.3408 -1.1821 -0.5463
12586TIP3   OH259172   3.500   4.720  15.090 -0.3571  0.0370 -0.0294
12586TIP3    H159173   3.584   4.716  15.045 -1.9248 -0.1800 -3.0576
12586TIP3    H259174   3.517   4.774  15.167  3.1849 -2.3081  0.9545
12587TIP3   OH259175   3.611   6.614  13.141 -0.2743 -0.1532  0.1248
12587TIP3    H159176   3.637   6.698  13.103  0.3398  0.9041  2.7412
12587TIP3    H259177   3.537   6.586  13.087 -2.2410  3.4051  0.7484
12588TIP3   OH259178   3.599   2.816   4.767  0.4582 -0.1174 -0.8741
12588TIP3    H159179   3.612   2.737   4.818  1.6410 -0.1111 -1.1659
12588TIP3    H259180   3.666   2.813   4.699 -1.5078 -0.4681 -2.8565
12589TIP3   OH259181   5.219   5.064   2.908 -0.0559 -0.5072 -0.0806
12589TIP3    H159182   5.174   4.995   2.858  0.7803 -0.6028 -0.7254
12589TIP3    H259183   5.154   5.096   2.970  0.0205 -3.0083  1.3565
12590TIP3   OH259184   1.873   2.811  17.030 -0.8382 -0.7594 -0.2938
12590TIP3    H159185   1.821   2.832  16.953  0.9795  0.3651 -1.2495
12590TIP3    H259186   1.928   2.737  17.003 -1.9344 -1.9763  0.7216
12591TIP3   OH259187   3.150   2.031  16.642  0.1315 -0.1636 -0.1825
12591TIP3    H159188   3.175   2.065  16.556 -0.8014  0.3583 -0.2612
12591TIP3    H259189   3.093   1.957  16.622 -2.6851  1.8603 -0.0888
12592TIP3   OH259190   4.600   4.912  13.349 -0.3636 -0.5896  0.3458
12592TIP3    H159191   4.524   4.947  13.396 -1.0968 -0.6853 -0.7593
12592TIP3    H259192   4.620   4.977  13.282 -0.2704 -1.1646 -0.1979
12593TIP3   OH259193   4.545   3.544  12.213  0.7818  0.1491 -0.1528
12593TIP3    H159194   4.458   3.557  12.174  0.3778  1.6651  1.2025
12593TIP3    H259195   4.583   3.471  12.164 -1.1816 -0.3996 -0.8780
12594TIP3   OH259196   3.823   2.985   3.037 -0.2615  0.3604  0.2218
12594TIP3    H159197   3.797   3.077   3.036 -0.1656  0.3793 -1.8996
12594TIP3    H259198   3.913   2.987   3.071 -0.9245  0.8544  1.9793
12595TIP3   OH259199   1.386   2.998  16.077  0.0360 -0.4456 -0.5399
12595TIP3    H159200   1.458   2.953  16.122 -0.6458 -0.6392  0.3656
12595TIP3    H259201   1.416   3.088  16.068 -0.3701 -0.0725  1.5426
12596TIP3   OH259202   2.604   3.844  16.266  0.0103 -0.3029 -0.4754
12596TIP3    H159203   2.640   3.802  16.345 -0.4270  0.3377  0.0647
12596TIP3    H259204   2.599   3.937  16.288  1.3717  0.1136 -1.8206
12597TIP3   OH259205   3.352   3.371  16.416 -0.5178 -0.1720 -0.3003
12597TIP3    H159206   3.285   3.417  16.365 -0.0475  4.1480  2.7906
12597TIP3    H259207   3.307   3.292  16.448 -1.8506 -1.1594 -4.2715
12598TIP3   OH259208   2.460   3.926  15.632 -0.0037  0.2127  0.1298
12598TIP3    H159209   2.496   3.841  15.605  1.0659  1.1338 -1.4654
12598TIP3    H259210   2.376   3.932  15.587  0.2910  0.3443 -0.4057
12599TIP3   OH259211   1.894   5.232   3.789  0.6377  0.1746 -0.0340
12599TIP3    H159212   1.925   5.269   3.871  0.1766  0.2261  0.1160
12599TIP3    H259213   1.974   5.204   3.744  0.8942  0.2006  0.4018
12600TIP3   OH259214   6.283   0.141   5.290 -0.0147  0.4717 -0.4085
12600TIP3    H159215   6.340   0.099   5.354  1.7926  1.3075 -1.4312
12600TIP3    H259216   6.241   0.213   5.338  1.1910  0.9801 -0.0976
12601TIP3   OH259217   2.928   5.445  12.665 -0.1807  0.2115 -0.2837
12601TIP3    H159218   2.918   5.524  12.612 -2.4909  0.7381  0.8628
12601TIP3    H259219   2.939   5.374  12.602 -0.9991  1.0775 -1.4044
12602TIP3   OH259220   5.797   0.314   1.458 -0.2440  0.1473  0.5166
12602TIP3    H159221   5.847   0.391   1.430 -0.6860  1.0682  2.2038
12602TIP3    H259222   5.798   0.256   1.381  0.2159  1.7583 -0.7337
12603TIP3   OH259223   3.299   2.129   3.647  0.1827  0.1289 -0.5096
12603TIP3    H159224   3.223   2.071   3.649  0.8892 -0.8177 -0.8099
12603TIP3    H259225   3.293   2.173   3.562  0.0854 -0.1042 -0.6232
12604TIP3   OH259226   6.133   6.699   0.863 -0.0458 -0.3717  0.2378
12604TIP3    H159227   6.114   6.792   0.877 -0.5972 -0.4870  0.2995
12604TIP3    H259228   6.047   6.660   0.847  0.0346 -1.0765  1.4521
12605TIP3   OH259229   2.534   4.250  12.809 -0.0732  0.3697 -0.6049
12605TIP3    H159230   2.590   4.245  12.731  0.1740  1.2609 -0.4910
12605TIP3    H259231   2.561   4.176  12.863  0.1547  0.0843 -1.1038
12606TIP3   OH259232   6.525   0.452   0.083  0.6785  0.1910  0.5218
12606TIP3    H159233   6.580   0.405   0.020 -0.4214 -0.4317  0.0065
12606TIP3    H259234   6.451   0.484   0.031  0.2937  0.5654  1.2984
12607TIP3   OH259235   0.848   1.868  14.991 -0.0151 -0.5181  0.5290
12607TIP3    H159236   0.781   1.808  15.022  0.0112 -0.4277  0.7654
12607TIP3    H259237   0.817   1.898  14.906  0.1737 -1.1863  0.2214
12608TIP3   OH259238   4.865   5.158   3.722 -0.0631  0.3478  0.3810
12608TIP3    H159239   4.949   5.167   3.767 -0.4012  2.4871  0.6315
12608TIP3    H259240   4.807   5.220   3.766 -1.4635 -0.2785 -0.5360
12609TIP3   OH259241   0.460   2.537  12.313 -0.4390  0.2088 -0.5089
12609TIP3    H159242   0.406   2.534  12.392 -1.9094  0.6936 -1.4932
12609TIP3    H259243   0.514   2.616  12.324  1.1773 -1.0575  1.1525
12610TIP3   OH259244   5.371   6.230   1.601  0.4764  0.0140  0.3584
12610TIP3    H159245   5.279   6.207   1.583  1.4284 -3.4678 -0.3756
12610TIP3    H259246   5.394   6.178   1.678  2.0921  0.2347  0.0339
12611TIP3   OH259247   0.309   5.535  13.163  0.0107 -0.2699  0.2980
12611TIP3    H159248   0.343   5.589  13.235  0.5274 -1.8039  1.2066
12611TIP3    H259249   0.379   5.536  13.098  0.7994 -1.3886  1.1182
12612TIP3   OH259250   6.250   4.613  14.457 -0.3455 -0.4738  0.1486
12612TIP3    H159251   6.201   4.533  14.438  0.3888 -0.6422 -1.0885
12612TIP3    H259252   6.301   4.591  14.535 -0.0087 -1.2854 -0.2885
12613TIP3   OH259253   5.320   6.112  14.378 -0.7662 -0.3207  0.0299
12613TIP3    H159254   5.365   6.045  14.429  1.2999  1.6139  0.8413
12613TIP3    H259255   5.299   6.180  14.442  0.3135  1.3522 -1.3463
12614TIP3   OH259256   1.838   1.374  16.733  0.2487 -0.3977 -0.1102
12614TIP3    H159257   1.876   1.402  16.650  1.4406 -0.3050  0.4627
12614TIP3    H259258   1.912   1.344  16.785 -0.4404 -0.0745  1.0844
12615TIP3   OH259259   0.828   3.382   6.513 -0.0827  0.6727 -0.4627
12615TIP3    H159260   0.881   3.332   6.576 -0.7752  1.7046  0.9543
12615TIP3    H259261   0.864   3.471   6.516 -0.0470  0.7114 -1.6342
12616TIP3   OH259262   4.796   0.023  11.348  0.2763  0.6231  0.3906
12616TIP3    H159263   4.871   0.070  11.312 -0.7406  1.4487 -0.6689
12616TIP3    H259264   4.772  -0.039  11.280 -0.8313  1.2916  0.1560
12617TIP3   OH259265   5.093   6.775  11.495  0.2713 -0.0166 -0.1713
12617TIP3    H159266   5.055   6.819  11.571  1.3303 -0.0085  0.3708
12617TIP3    H259267   5.177   6.742  11.526  0.6152 -0.2228 -1.2777
12618TIP3   OH259268   1.814   5.949   0.347 -0.0720 -0.2644  0.4723
12618TIP3    H159269   1.777   5.914   0.266  0.9004 -0.2145  0.0007
12618TIP3    H259270   1.909   5.939   0.337  0.2533  2.5731  0.2671
12619TIP3   OH259271   6.342   5.325   3.156 -0.1671 -0.2140 -0.0465
12619TIP3    H159272   6.369   5.254   3.099  0.9084  0.1616 -0.0109
12619TIP3    H259273   6.417   5.385   3.158  0.2025 -0.7022  2.5197
12620TIP3   OH259274   2.255   2.814   1.394  0.2529 -0.1736  0.2239
12620TIP3    H159275   2.198   2.869   1.340 -0.1554 -1.5391 -0.7628
12620TIP3    H259276   2.338   2.861   1.398 -0.2216  0.7083 -0.2760
12621TIP3   OH259277   1.955   5.652   2.466  0.5481  0.1135  0.2779
12621TIP3    H159278   1.999   5.595   2.403 -2.4078  0.2154 -2.0200
12621TIP3    H259279   1.973   5.740   2.435  0.4897  0.2188  0.5452
12622TIP3   OH259280   1.427   2.826   3.559 -0.4015 -0.4035 -0.3109
12622TIP3    H159281   1.356   2.868   3.511 -0.4850  0.2706  0.4018
12622TIP3    H259282   1.458   2.893   3.620  0.2395 -0.9929  0.0179
12623TIP3   OH259283   5.694   0.822  13.482  0.5200  0.2544 -0.7435
12623TIP3    H159284   5.767   0.776  13.441 -0.1752 -1.4096 -0.1556
12623TIP3    H259285   5.713   0.915  13.468  4.4817  0.0269  2.3259
12624TIP3   OH259286   1.510   5.887   0.481  0.6374 -0.5150  0.1847
12624TIP3    H159287   1.490   5.923   0.395  0.6904  1.0031  0.7829
12624TIP3    H259288   1.455   5.809   0.488  0.5928 -0.6147 -1.1882
12625TIP3   OH259289   0.903   1.198   1.107  0.4204  0.0945 -0.0342
12625TIP3    H159290   0.850   1.203   1.028  1.7004 -0.4235 -0.9401
12625TIP3    H259291   0.912   1.289   1.135  0.8909  0.3887 -1.1166
12626TIP3   OH259292   5.286   0.844   3.393  0.5210  0.0796 -0.4017
12626TIP3    H159293   5.380   0.833   3.405  0.1232 -2.9699  0.4890
12626TIP3    H259294   5.272   0.830   3.299  0.9636  0.4750 -0.5257
12627TIP3   OH259295   0.083   5.761  14.822 -0.5202 -0.2737 -0.0078
12627TIP3    H159296   0.118   5.712  14.896  0.1220 -1.5715 -1.1423
12627TIP3    H259297   0.139   5.737  14.748 -0.8334  1.3949 -0.8084
12628TIP3   OH259298   2.404   3.526  10.829  0.1187  0.1186  0.3152
12628TIP3    H159299   2.431   3.452  10.775  0.3002 -0.7177  1.5322
12628TIP3    H259300   2.484   3.579  10.838  0.3451 -0.2686  0.5990
12629TIP3   OH259301   3.061   3.172  13.478  0.2904 -0.2733 -0.8847
12629TIP3    H159302   3.081   3.111  13.548 -1.4411 -1.3647 -1.3190
12629TIP3    H259303   3.064   3.119  13.398 -1.9924  0.0110 -1.1892
12630TIP3   OH259304   4.393   2.291  12.247 -0.3569 -0.0025  0.6272
12630TIP3    H159305   4.346   2.274  12.166 -1.1645  1.3658  0.7879
12630TIP3    H259306   4.476   2.330  12.219 -0.1029 -0.6917  0.4150
12631TIP3   OH259307   0.902   6.537   0.028 -0.8369  0.2430 -0.1156
12631TIP3    H159308   0.919   6.524   0.122 -0.0089  2.8918  0.1496
12631TIP3    H259309   0.818   6.495   0.013 -1.7406  1.1156  2.1859
12632TIP3   OH259310   2.159   5.697   5.596 -0.0347  0.3158 -0.2147
12632TIP3    H159311   2.118   5.709   5.510 -0.6324 -1.2173 -0.1661
12632TIP3    H259312   2.233   5.638   5.579 -1.2617 -1.5025  0.5868
12633TIP3   OH259313   6.470   2.522  15.510 -0.1608  0.4073 -0.6642
12633TIP3    H159314   6.393   2.561  15.552 -0.0839  1.3047 -1.3173
12633TIP3    H259315   6.442   2.509  15.419 -0.1301 -0.9505 -0.4826
12634TIP3   OH259316   3.875   2.148   2.864 -0.6263 -0.5098 -0.4700
12634TIP3    H159317   3.779   2.141   2.860 -0.6211 -1.3944  0.7468
12634TIP3    H259318   3.907   2.064   2.830 -0.2705 -0.1966 -0.9211
12635TIP3   OH259319   6.552   1.396  16.584 -0.2241 -0.2195  0.3682
12635TIP3    H159320   6.525   1.356  16.502  1.0477 -0.2823 -0.0290
12635TIP3    H259321   6.587   1.324  16.636 -3.1463 -0.5833  1.8925
12636TIP3   OH259322   6.391   0.584  14.813  0.8659  0.2553  0.4325
12636TIP3    H159323   6.338   0.601  14.735  0.9307  1.2890  0.5967
12636TIP3    H259324   6.481   0.579  14.781  0.8878  0.6430  0.4311
12637TIP3   OH259325   3.799   3.477  12.303 -0.2747  0.0668 -0.6535
12637TIP3    H159326   3.889   3.446  12.309  0.1211  1.4798  1.2634
12637TIP3    H259327   3.747   3.405  12.339  0.1206 -0.5703 -1.3446
12638TIP3   OH259328   4.057   0.230  11.335 -0.5526 -0.1985 -0.1972
12638TIP3    H159329   4.132   0.253  11.390 -1.2617  0.9856  0.2915
12638TIP3    H259330   4.095   0.219  11.247  0.4945 -1.5389  0.4106
12639TIP3   OH259331   2.179   6.428  14.316  0.0755 -0.1943 -0.0185
12639TIP3    H159332   2.102   6.371  14.326  0.8358 -1.3899 -0.8115
12639TIP3    H259333   2.174   6.459  14.226  2.1079 -2.6783 -1.0399
12640TIP3   OH259334   4.957   0.818   5.083  0.1681 -0.0754 -0.0370
12640TIP3    H159335   4.963   0.841   4.990 -2.2382 -1.9800 -0.7194
12640TIP3    H259336   4.905   0.889   5.121  0.2813  0.1761 -0.3471
12641TIP3   OH259337   4.130   0.732   2.772 -0.0199  0.0325 -0.3292
12641TIP3    H159338   4.205   0.789   2.758 -0.0598 -0.0145 -0.7325
12641TIP3    H259339   4.138   0.664   2.705  1.2735 -1.7417  1.5409
12642TIP3   OH259340   4.013   5.398  13.203  0.2381  0.1421  0.6054
12642TIP3    H159341   4.016   5.354  13.288 -1.4894  0.9706  1.1341
12642TIP3    H259342   3.921   5.390  13.176  0.7875 -0.1576 -1.2130
12643TIP3   OH259343   2.262   1.150   4.098  0.0466 -0.3391 -0.0022
12643TIP3    H159344   2.224   1.168   4.184 -2.3164 -0.4409 -0.9847
12643TIP3    H259345   2.301   1.234   4.072  0.5415 -0.2340  1.0283
12644TIP3   OH259346   3.231   5.907   3.389  0.0781 -0.2927 -0.2245
12644TIP3    H159347   3.270   5.919   3.476  0.0909  2.0578 -0.5153
12644TIP3    H259348   3.290   5.846   3.344  1.0477 -0.1222  0.8042
12645TIP3   OH259349   3.377   5.884  16.040  0.0146 -0.0920  0.3620
12645TIP3    H159350   3.419   5.896  16.126 -0.9817  0.4046  0.7957
12645TIP3    H259351   3.307   5.822  16.057  0.8305 -1.2350 -0.4476
12646TIP3   OH259352   4.393   0.788  15.951  0.0241 -0.1803 -0.0607
12646TIP3    H159353   4.438   0.767  15.869 -1.8393  1.1205 -1.4470
12646TIP3    H259354   4.303   0.809  15.925 -0.5050  0.6122  2.2755
12647TIP3   OH259355   3.020   2.648   2.022 -0.1059 -0.0069 -0.6551
12647TIP3    H159356   2.991   2.729   1.980 -0.5107  0.5107  0.5839
12647TIP3    H259357   3.032   2.672   2.114  1.8872 -0.8301 -0.6711
12648TIP3   OH259358   1.787   3.818  14.744  0.0488  0.2615 -0.2071
12648TIP3    H159359   1.722   3.779  14.686 -0.7143 -0.1388  0.9054
12648TIP3    H259360   1.851   3.749  14.758  0.3710  0.4440 -0.7841
12649TIP3   OH259361   4.510   3.785  15.914 -0.8493  0.2257 -0.1293
12649TIP3    H159362   4.527   3.879  15.910 -2.0738  0.4697  0.1512
12649TIP3    H259363   4.552   3.749  15.836 -0.2081  0.9757 -0.1308
12650TIP3   OH259364   0.150   1.571   2.743  0.0101  0.3528 -0.6431
12650TIP3    H159365   0.150   1.506   2.813 -0.0422 -0.4226 -1.3545
12650TIP3    H259366   0.072   1.624   2.760  1.0961  1.4355  1.0339
12651TIP3   OH259367   3.553   3.203  14.945  0.5941  0.2551  0.2376
12651TIP3    H159368   3.600   3.256  15.010 -0.4918  0.1834  1.1041
12651TIP3    H259369   3.477   3.169  14.993 -2.1690  3.0051 -1.9447
12652TIP3   OH259370   2.679   6.606   4.037 -0.3099 -0.8915 -0.0236
12652TIP3    H159371   2.680   6.656   4.118  0.9278 -0.9473  0.0102
12652TIP3    H259372   2.725   6.661   3.974  1.6860 -2.2545  0.2026
12653TIP3   OH259373   1.946   0.465  11.011  0.0432  0.2553  0.5900
12653TIP3    H159374   1.976   0.461  10.920  1.4158  1.0875  0.9839
12653TIP3    H259375   1.901   0.382  11.025  1.6509 -0.7819 -0.2185
12654TIP3   OH259376   4.828   1.220  16.816 -0.1781 -0.5301 -0.0186
12654TIP3    H159377   4.870   1.210  16.901 -0.0691 -0.8298 -0.1042
12654TIP3    H259378   4.734   1.211  16.834 -0.2584  0.9440  0.2834
12655TIP3   OH259379   0.323   5.238   4.738 -0.3217  0.2030 -0.0815
12655TIP3    H159380   0.416   5.227   4.755 -0.5725 -2.1699 -0.0854
12655TIP3    H259381   0.284   5.256   4.824 -0.0040  0.0290  0.0982
12656TIP3   OH259382   1.915   5.681   4.357  0.6970  0.5299  0.5309
12656TIP3    H159383   1.997   5.651   4.318  0.2556 -0.4994  0.3884
12656TIP3    H259384   1.898   5.765   4.314  0.6770 -0.1768 -0.8680
12657TIP3   OH259385   4.035   0.298  13.303 -0.1837  0.1141  0.2991
12657TIP3    H159386   3.940   0.303  13.296 -0.0407  0.7679 -1.3751
12657TIP3    H259387   4.065   0.284  13.213  1.3731  1.0598  0.6532
12658TIP3   OH259388   3.622   5.287  12.521 -0.5991  0.0864  0.9202
12658TIP3    H159389   3.688   5.292  12.451  0.6184  0.3170  2.0547
12658TIP3    H259390   3.561   5.219  12.492  0.4495 -0.5203  0.1006
12659TIP3   OH259391   3.765   6.549   3.819 -0.1755  0.2779 -0.4191
12659TIP3    H159392   3.683   6.591   3.846  0.2055  0.1575  0.9708
12659TIP3    H259393   3.794   6.600   3.743 -1.9353 -0.1777 -1.4392
12660TIP3   OH259394   3.694   4.779  11.281 -0.3848  0.3709 -0.2682
12660TIP3    H159395   3.678   4.748  11.191  2.6762 -1.7995 -0.1601
12660TIP3    H259396   3.772   4.834  11.274  0.4000 -0.5237  1.1496
12661TIP3   OH259397   0.156   2.844   5.602  0.3539  0.4011 -0.0232
12661TIP3    H159398   0.103   2.766   5.585  1.0242 -0.1967  0.6275
12661TIP3    H259399   0.210   2.853   5.524 -0.4845  0.8344 -0.5578
12662TIP3   OH259400   2.032   3.089   6.757 -0.6566  0.1644 -0.3435
12662TIP3    H159401   2.079   3.054   6.832  0.3379  1.4915 -0.3324
12662TIP3    H259402   1.942   3.061   6.770 -0.4602  0.2522  1.2552
12663TIP3   OH259403   0.136   5.128   5.991 -0.0284  0.5691  0.4881
12663TIP3    H159404   0.080   5.086   5.927  0.0967  0.1141  0.6706
12663TIP3    H259405   0.081   5.196   6.031 -0.0756  0.9093 -0.1566
12664TIP3   OH259406   6.488   0.354  16.628 -0.0811 -0.1105 -0.2798
12664TIP3    H159407   6.496   0.259  16.623 -0.0007 -0.2318  1.5980
12664TIP3    H259408   6.579   0.385  16.627 -0.0322 -0.1831  0.7839
12665TIP3   OH259409   2.985   0.790  15.462 -0.2629 -0.3415  0.6319
12665TIP3    H159410   2.896   0.782  15.428 -0.4314 -1.0715  1.2546
12665TIP3    H259411   2.992   0.882  15.490 -0.1169  0.2858 -1.3684
12666TIP3   OH259412   4.926   2.243  14.690 -0.4182 -0.1559 -0.2023
12666TIP3    H159413   4.867   2.177  14.726 -1.0615 -0.0197 -0.9994
12666TIP3    H259414   4.930   2.224  14.596  0.7451 -0.1144 -0.1795
12667TIP3   OH259415   6.411   5.446   0.090  0.2749  0.1414 -0.5370
12667TIP3    H159416   6.466   5.521   0.115  0.7835 -0.1922 -0.6610
12667TIP3    H259417   6.335   5.452   0.149  0.9515 -0.0181  0.3541
12668TIP3   OH259418   2.350   3.342   6.708  0.8209  0.0835  0.3637
12668TIP3    H159419   2.422   3.365   6.767  0.5292 -2.5424  1.8435
12668TIP3    H259420   2.367   3.393   6.629  3.0494  1.2322  1.5283
12669TIP3   OH259421   4.034   2.359   5.477 -0.5019 -0.4599  0.2550
12669TIP3    H159422   3.945   2.391   5.489 -1.0146 -1.4822 -0.7262
12669TIP3    H259423   4.087   2.412   5.537 -1.6091  0.8827  0.0784
12670TIP3   OH259424   6.533   0.643   3.978 -0.7403 -0.7771  0.2947
12670TIP3    H159425   6.506   0.730   3.949 -0.4974 -0.5948  0.6094
12670TIP3    H259426   6.625   0.636   3.952 -1.2147 -1.5928 -1.2226
12671TIP3   OH259427   6.042   3.458   0.905 -0.2148 -0.8204  0.1640
12671TIP3    H159428   6.107   3.526   0.921 -0.2449 -0.7347 -0.0700
12671TIP3    H259429   6.050   3.399   0.980  1.5241 -1.8905 -0.8058
12672TIP3   OH259430   0.954   4.878   3.095  0.2883 -0.0106 -0.1460
12672TIP3    H159431   0.863   4.853   3.079  0.4215  0.1383 -1.1761
12672TIP3    H259432   1.006   4.814   3.046  0.7421 -0.2380  0.6320
12673TIP3   OH259433   2.533   3.379  16.736 -0.2125 -0.2144  0.1576
12673TIP3    H159434   2.586   3.442  16.785  1.6076 -1.7522  0.2240
12673TIP3    H259435   2.482   3.433  16.676  1.9119  1.3209 -0.3526
12674TIP3   OH259436   0.384   4.263   2.117 -0.3882  0.0910 -0.0357
12674TIP3    H159437   0.349   4.265   2.206 -1.1575 -0.9455 -0.3053
12674TIP3    H259438   0.314   4.224   2.065  0.3083  0.0967 -0.9789
12675TIP3   OH259439   1.792   3.227  12.923  0.1850  0.0933  0.0046
12675TIP3    H159440   1.806   3.159  12.989  0.7185  0.7816  0.6158
12675TIP3    H259441   1.710   3.268  12.949  0.1993  0.1155  0.0147
12676TIP3   OH259442   3.807   0.843  15.153 -0.0168 -0.0488  0.7000
12676TIP3    H159443   3.719   0.880  15.151  0.4793  1.1396 -1.8075
12676TIP3    H259444   3.813   0.791  15.073  0.8424 -1.9177  1.9432
12677TIP3   OH259445   0.694   5.381  15.378 -0.2161  0.5075 -0.2137
12677TIP3    H159446   0.723   5.454  15.324 -0.5989 -0.6330 -2.0213
12677TIP3    H259447   0.760   5.313  15.365 -0.4770  0.1010  0.5090
12678TIP3   OH259448   4.544   0.570  11.899 -0.0397  0.1224  0.8141
12678TIP3    H159449   4.494   0.642  11.937  1.8156  2.3248 -0.8102
12678TIP3    H259450   4.491   0.540  11.825  0.3755  1.5418 -0.0718
12679TIP3   OH259451   5.673   3.424  11.518 -0.0113  0.2940  0.4058
12679TIP3    H159452   5.755   3.468  11.539 -1.0833  1.5890  2.0848
12679TIP3    H259453   5.641   3.470  11.440  1.0608 -0.5412 -0.5510
12680TIP3   OH259454   4.100   4.270   2.347  0.0471 -0.1769 -0.5911
12680TIP3    H159455   4.067   4.313   2.426 -1.6637 -1.5395 -0.5295
12680TIP3    H259456   4.165   4.330   2.312 -1.8948  2.2172 -0.2044
12681TIP3   OH259457   6.615   1.276  16.874  0.2372  0.7421  0.1831
12681TIP3    H159458   6.709   1.264  16.857  0.2024 -0.0487  0.5573
12681TIP3    H259459   6.591   1.203  16.931 -0.8375  0.3727 -0.7365
12682TIP3   OH259460   5.766   3.933   1.425  0.0054 -0.2305  0.2426
12682TIP3    H159461   5.767   3.880   1.345  0.6173 -0.2349  0.2464
12682TIP3    H259462   5.711   4.008   1.405 -1.0161 -0.9551  0.2890
12683TIP3   OH259463   0.012   1.873  10.806  0.4760  0.1381  0.4563
12683TIP3    H159464   0.006   1.966  10.828  4.5673  1.1427 -2.1557
12683TIP3    H259465  -0.018   1.868  10.715 -0.6647 -1.3330  0.8871
12684TIP3   OH259466   5.700   5.653   1.876 -0.5657 -0.0960  0.3063
12684TIP3    H159467   5.717   5.718   1.944  1.8540 -0.7039  0.3433
12684TIP3    H259468   5.742   5.689   1.798 -0.0220 -1.1672  0.1014
12685TIP3   OH259469   5.348   2.510  12.098  0.4985  0.1342 -0.3926
12685TIP3    H159470   5.391   2.454  12.034  0.7326 -1.4994  1.1449
12685TIP3    H259471   5.420   2.553  12.145  0.3450  0.5329 -0.5137
12686TIP3   OH259472   0.229   3.690  13.412 -0.1634  0.2651  0.2981
12686TIP3    H159473   0.225   3.602  13.377 -1.8878 -0.3179  1.8729
12686TIP3    H259474   0.310   3.692  13.463 -1.1429 -1.0910  1.9499
12687TIP3   OH259475   6.089   2.316  12.969 -0.4561  0.3674  0.0449
12687TIP3    H159476   6.151   2.244  12.982 -0.1804  0.7126  0.6910
12687TIP3    H259477   6.067   2.313  12.877  0.7622  0.4143 -0.2612
12688TIP3   OH259478   2.517   2.855   4.314  0.0445 -0.2843  0.1129
12688TIP3    H159479   2.465   2.880   4.390  0.3945 -0.2446  0.3403
12688TIP3    H259480   2.604   2.835   4.350 -0.5223 -2.9194  0.0843
12689TIP3   OH259481   2.962   5.702   2.004  0.4515 -0.3690 -0.2156
12689TIP3    H159482   2.969   5.789   2.044 -1.2358  0.6386 -2.0007
12689TIP3    H259483   2.869   5.682   2.006  0.6314 -1.3686 -1.4077
12690TIP3   OH259484   1.525   2.861   5.574  0.1311  0.2242 -0.0243
12690TIP3    H159485   1.536   2.956   5.571  2.8773 -0.0882 -2.5490
12690TIP3    H259486   1.474   2.841   5.495 -1.2937 -0.3572  1.0125
12691TIP3   OH259487   0.931   5.144   3.158 -0.8243  0.1494 -0.5917
12691TIP3    H159488   0.943   5.049   3.155 -0.3462  0.0816  2.5446
12691TIP3    H259489   1.005   5.179   3.108 -0.5225 -1.0620 -1.0291
12692TIP3   OH259490   3.721   2.399  11.041  0.3287  0.5249 -0.6754
12692TIP3    H159491   3.668   2.386  10.962  1.8704  0.6175 -1.7519
12692TIP3    H259492   3.748   2.310  11.067  4.0541  0.7749 -3.2683
12693TIP3   OH259493   0.696   4.133   1.970 -0.0979 -0.0292 -0.0400
12693TIP3    H159494   0.752   4.191   2.021 -0.4893  1.0870 -0.8519
12693TIP3    H259495   0.665   4.068   2.033 -1.4588  1.9546  1.4237
12694TIP3   OH259496   3.021   2.032  16.050  0.5711  0.0283 -0.2545
12694TIP3    H159497   2.944   2.054  16.102  0.9265 -0.1528  0.3551
12694TIP3    H259498   3.021   1.936  16.047 -0.2058  0.0692 -1.7398
12695TIP3   OH259499   6.770   2.901  16.355  0.0576 -0.1302 -0.3312
12695TIP3    H159500   6.720   2.832  16.398 -1.3757  0.9290 -0.2605
12695TIP3    H259501   6.730   2.909  16.268  1.9477 -1.2057 -1.3393
12696TIP3   OH259502   3.717   1.085  15.403  0.0813 -0.1181 -0.4838
12696TIP3    H159503   3.636   1.057  15.361  0.3314 -1.2231 -0.2572
12696TIP3    H259504   3.689   1.130  15.483 -0.3053 -0.9856 -0.1171
12697TIP3   OH259505   6.156   5.404  13.554 -0.3366  0.5937 -0.2096
12697TIP3    H159506   6.093   5.343  13.593 -0.5816  1.5663  0.9398
12697TIP3    H259507   6.130   5.490  13.586 -1.0814  1.5741 -3.2123
12698TIP3   OH259508   4.420   6.076  10.833 -0.0068  0.1891  0.1182
12698TIP3    H159509   4.409   5.998  10.779 -2.0010  0.8746 -0.5027
12698TIP3    H259510   4.473   6.135  10.779 -0.2161  0.0586 -0.2329
12699TIP3   OH259511   1.362   5.639   5.160  0.1321 -0.5694  0.1986
12699TIP3    H159512   1.287   5.696   5.175  0.1119 -0.8999  1.3434
12699TIP3    H259513   1.367   5.584   5.238  0.1381 -2.1718 -0.9223
12700TIP3   OH259514   4.230   3.671   1.882  0.1356 -0.8378  0.3202
12700TIP3    H159515   4.208   3.756   1.921 -4.1366 -1.5986 -0.0916
12700TIP3    H259516   4.233   3.611   1.956 -0.5900 -0.9760  0.2401
12701TIP3   OH259517   1.919   6.774   0.118  0.3004 -0.6506  0.1991
12701TIP3    H159518   1.984   6.836   0.085 -0.8003  0.1363 -0.5365
12701TIP3    H259519   1.952   6.747   0.204  1.2490  0.2538  0.1217
12702TIP3   OH259520   5.160   2.740   2.674  1.0321  0.7792 -0.6245
12702TIP3    H159521   5.195   2.773   2.756  1.9812 -0.3912 -0.5402
12702TIP3    H259522   5.237   2.723   2.620  0.4884  0.1970 -1.2213
12703TIP3   OH259523   3.389   6.181  14.090  1.1722  0.2713  0.1562
12703TIP3    H159524   3.316   6.125  14.062  0.7757  0.8698 -0.0259
12703TIP3    H259525   3.465   6.143  14.047  0.6694  0.7678 -1.2148
12704TIP3   OH259526   3.683   5.714   1.090  0.0594  0.0211  0.3582
12704TIP3    H159527   3.636   5.636   1.119 -0.6689  0.2719 -0.1439
12704TIP3    H259528   3.694   5.703   0.996  1.5682 -0.3297  0.5539
12705TIP3   OH259529   4.068   4.307  12.720  0.5871  0.4636 -0.1353
12705TIP3    H159530   4.126   4.342  12.788  0.5953 -0.8972  0.5713
12705TIP3    H259531   4.010   4.380  12.699  2.6996  1.9317 -1.0487
12706TIP3   OH259532   5.573   5.581   0.118 -0.5927  1.0671 -0.5576
12706TIP3    H159533   5.552   5.537   0.201  1.7507  0.5634 -0.1936
12706TIP3    H259534   5.488   5.597   0.077 -1.7216  0.2836  1.4166
12707TIP3   OH259535   2.441   0.706  12.353 -0.3777 -0.0420 -0.3479
12707TIP3    H159536   2.377   0.635  12.366 -0.9014  0.3913 -0.5480
12707TIP3    H259537   2.453   0.711  12.259 -0.8126  0.5524 -0.3718
12708TIP3   OH259538   2.957   3.509  10.996 -0.6348  0.2246 -0.0859
12708TIP3    H159539   2.862   3.499  10.995 -0.7006  0.7611  1.0538
12708TIP3    H259540   2.972   3.603  10.989 -0.1966  0.1771  0.1599
12709TIP3   OH259541   5.301   5.655  12.347  0.4251  0.2972  0.2215
12709TIP3    H159542   5.389   5.686  12.369  0.6651 -0.7136  0.7311
12709TIP3    H259543   5.315   5.584  12.284  0.1404 -1.4818  2.1051
12710TIP3   OH259544   6.369   0.912   4.936 -0.5059  0.4728 -0.0468
12710TIP3    H159545   6.459   0.918   4.968 -0.5293  2.7221 -0.2641
12710TIP3    H259546   6.322   0.866   5.004  0.3367  1.3870  1.1893
12711TIP3   OH259547   0.733   4.078   5.077 -0.1490 -0.0710  0.0770
12711TIP3    H159548   0.772   4.050   4.994 -0.3279  0.9653 -0.3631
12711TIP3    H259549   0.792   4.044   5.144  1.4042  1.2683 -0.5762
12712TIP3   OH259550   0.741   4.687   4.960  0.2781 -0.1363 -0.3627
12712TIP3    H159551   0.829   4.664   4.990 -0.1247 -0.6498  0.4346
12712TIP3    H259552   0.723   4.772   5.001  1.1768  0.9192 -2.1128
12713TIP3   OH259553   2.057   0.533   3.608  0.2109 -0.5580 -0.3734
12713TIP3    H159554   2.096   0.446   3.601 -0.8948 -0.9906 -1.3229
12713TIP3    H259555   2.043   0.561   3.518  1.2564  0.9332 -0.0815
12714TIP3   OH259556   4.794   4.696   3.268 -0.9410 -0.3337 -0.3691
12714TIP3    H159557   4.767   4.786   3.248  0.4124  0.3072  0.5838
12714TIP3    H259558   4.778   4.648   3.187 -2.0504  0.6770 -0.7727
12715TIP3   OH259559   6.379   5.291  11.945  0.0734  0.1261  0.2183
12715TIP3    H159560   6.357   5.343  11.868  0.4932  1.2192  0.8189
12715TIP3    H259561   6.381   5.201  11.914  1.1533  0.6385 -1.2530
12716TIP3   OH259562   2.899   5.321   2.125  0.1179 -0.2439  0.3938
12716TIP3    H159563   2.952   5.242   2.139  3.1848  1.8324  0.9100
12716TIP3    H259564   2.952   5.375   2.066 -2.0914  1.2972 -0.2140
12717TIP3   OH259565   1.813   5.718   3.820  0.0253 -0.4163  0.3172
12717TIP3    H159566   1.801   5.625   3.799  1.0028 -1.0432  2.3192
12717TIP3    H259567   1.782   5.765   3.743  0.1017 -2.4318 -0.9795
12718TIP3   OH259568   3.540   0.645   1.722 -0.2018 -0.6408 -0.2703
12718TIP3    H159569   3.460   0.694   1.740 -0.1051 -0.3301 -0.6999
12718TIP3    H259570   3.538   0.629   1.628  0.7192  0.1817 -0.4249
12719TIP3   OH259571   4.600   2.535  12.379  0.1609 -0.5871  0.0842
12719TIP3    H159572   4.514   2.507  12.347 -0.5751  1.1696  0.4362
12719TIP3    H259573   4.633   2.594  12.311 -0.1415  0.9071  1.1960
12720TIP3   OH259574   4.895   0.333   3.684 -0.7273 -0.4760  0.3698
12720TIP3    H159575   4.963   0.298   3.627 -0.7215 -1.7551  1.1373
12720TIP3    H259576   4.942   0.389   3.747 -0.5199 -0.5263  0.2575
12721TIP3   OH259577   1.653   5.560   1.010  0.2838 -0.1423 -0.2956
12721TIP3    H159578   1.698   5.479   0.987 -0.6460 -0.6305 -0.4023
12721TIP3    H259579   1.561   5.544   0.988 -0.0256  0.6785  0.3707
12722TIP3   OH259580   0.118   1.747   1.493  0.6265  1.6111  0.6717
12722TIP3    H159581   0.062   1.691   1.547  0.9926  0.3866 -0.1961
12722TIP3    H259582   0.058   1.799   1.440  0.2963  1.5155  0.9512
12723TIP3   OH259583   1.594   0.574  13.230 -0.0053  0.4074 -0.0600
12723TIP3    H159584   1.503   0.593  13.251  0.1301  0.7849  0.1966
12723TIP3    H259585   1.624   0.517  13.300 -0.8423 -2.0087 -1.6211
12724TIP3   OH259586   0.338   2.965   1.046 -0.0496 -0.1623 -0.2108
12724TIP3    H159587   0.306   3.040   0.996 -1.7209 -0.4205  0.4587
12724TIP3    H259588   0.421   2.995   1.082 -0.4388  1.1855 -0.3896
12725TIP3   OH259589   0.326   2.870   5.338  0.0236  0.0342  0.2216
12725TIP3    H159590   0.414   2.883   5.374 -0.0135 -1.2956  0.8153
12725TIP3    H259591   0.308   2.951   5.290  1.5600  0.3446  0.1208
12726TIP3   OH259592   2.248   5.297   4.228 -0.7194 -0.2962 -0.4975
12726TIP3    H159593   2.275   5.209   4.254  0.5400  0.4828  0.9483
12726TIP3    H259594   2.248   5.347   4.310 -0.7252  1.2137 -1.4003
12727TIP3   OH259595   5.073   6.240  15.626  0.3607  0.3275 -0.6690
12727TIP3    H159596   5.110   6.153  15.612 -0.7141 -0.2467 -0.0661
12727TIP3    H259597   5.145   6.291  15.662  0.7614 -0.5776 -0.1509
12728TIP3   OH259598   3.198   4.402  11.946 -0.1669  0.0741  0.5398
12728TIP3    H159599   3.177   4.491  11.975  2.3624  1.3162 -1.2439
12728TIP3    H259600   3.256   4.367  12.014 -2.4779 -0.8837  2.0807
12729TIP3   OH259601   5.772   4.447   1.857 -0.2003  0.2874  1.2131
12729TIP3    H159602   5.770   4.532   1.900 -1.3599  0.8831  0.0186
12729TIP3    H259603   5.688   4.408   1.878  0.3146 -0.5590  1.7271
12730TIP3   OH259604   2.981   5.843   1.763  0.3062  0.2006  0.6452
12730TIP3    H159605   2.937   5.790   1.829 -1.7591  0.2990 -0.6223
12730TIP3    H259606   2.992   5.783   1.689  3.0505 -0.0573  1.1976
12731TIP3   OH259607   5.338   2.355   3.295 -0.5390  0.1539 -0.5568
12731TIP3    H159608   5.378   2.442   3.289 -0.1287 -0.1520 -2.4448
12731TIP3    H259609   5.244   2.371   3.284 -0.7756  0.6276  1.7688
12732TIP3   OH259610   2.756   5.757  16.711  0.1054 -0.0546 -0.3655
12732TIP3    H159611   2.847   5.752  16.681  0.1829 -0.7255 -0.0385
12732TIP3    H259612   2.726   5.844  16.685  0.6921 -0.0114 -0.8996
12733TIP3   OH259613   6.008   4.543   1.247  0.0320 -0.4211  0.0255
12733TIP3    H159614   5.983   4.616   1.303  1.6492 -0.4494  0.8485
12733TIP3    H259615   6.028   4.472   1.309 -2.5850 -1.9262 -0.7937
12734TIP3   OH259616   5.230   4.149  15.989 -0.2056 -0.0038 -0.0625
12734TIP3    H159617   5.210   4.083  15.923  1.4358 -1.2298  0.6352
12734TIP3    H259618   5.239   4.099  16.071  2.4534  0.8961  0.2185
12735TIP3   OH259619   3.094   4.403   5.023 -0.3247  0.3686  0.5797
12735TIP3    H159620   3.025   4.383   4.960  1.2517  1.0736 -1.4375
12735TIP3    H259621   3.049   4.415   5.106 -2.4664 -0.4847 -0.4323
12736TIP3   OH259622   4.322   3.895   5.160 -0.4237  0.1947 -0.3508
12736TIP3    H159623   4.246   3.909   5.103 -0.8236 -1.4397 -0.2415
12736TIP3    H259624   4.330   3.800   5.166 -0.0209  0.3439  1.8570
12737TIP3   OH259625   2.541   4.345   6.496  0.2330  0.3741  0.0265
12737TIP3    H159626   2.614   4.368   6.438  0.6644  0.7584  0.7022
12737TIP3    H259627   2.535   4.250   6.492  2.4354  0.1059  1.9092
12738TIP3   OH259628   1.841   2.207   4.036 -0.8104 -0.9145  0.7823
12738TIP3    H159629   1.789   2.176   3.962  0.6214  1.4446 -1.2501
12738TIP3    H259630   1.787   2.276   4.075  0.5465  1.2789 -1.1060
12739TIP3   OH259631   5.066   0.029   0.452  0.4759 -0.0093 -0.1885
12739TIP3    H159632   5.038   0.001   0.539 -1.0808 -0.5910 -0.8520
12739TIP3    H259633   5.088   0.122   0.462  2.1714 -0.5378  1.2354
12740TIP3   OH259634   3.624   0.056  16.903  0.1867 -0.2596  0.3849
12740TIP3    H159635   3.689   0.069  16.972 -0.9320  0.9326  1.2258
12740TIP3    H259636   3.540   0.053  16.949 -0.4591 -0.7704 -0.7971
12741TIP3   OH259637   1.745   3.320   4.399 -0.9898  0.2869 -0.5340
12741TIP3    H159638   1.807   3.385   4.432  0.1688 -1.2303  0.3736
12741TIP3    H259639   1.790   3.281   4.324 -0.7696 -0.8986  0.1980
12742TIP3   OH259640   2.646   0.767  12.789  0.5710 -0.0128  0.4521
12742TIP3    H159641   2.592   0.688  12.791  1.0259 -0.3176  1.8417
12742TIP3    H259642   2.725   0.742  12.838  0.6709  1.3296  0.9775
12743TIP3   OH259643   5.365   4.859   4.448  0.3160 -1.0227 -0.6013
12743TIP3    H159644   5.280   4.901   4.435  1.0196  1.0016  1.0426
12743TIP3    H259645   5.424   4.904   4.387  0.2762 -2.2750 -1.5838
12744TIP3   OH259646   1.754   4.676  15.200  0.1563  0.0084  0.3610
12744TIP3    H159647   1.769   4.764  15.232  1.5830 -0.0350 -0.1189
12744TIP3    H259648   1.686   4.685  15.133  0.9164  0.8834 -0.3016
12745TIP3   OH259649   4.929   5.306  14.978  0.1522 -0.1040  0.0456
12745TIP3    H159650   5.011   5.258  14.979  0.7082  0.8339  0.5536
12745TIP3    H259651   4.939   5.370  14.907 -0.0313  0.1984  0.2913
12746TIP3   OH259652   1.631   4.809  15.775  0.2549  0.2307  0.2749
12746TIP3    H159653   1.615   4.754  15.698 -1.4324  0.2298  0.6106
12746TIP3    H259654   1.637   4.746  15.847  0.7781  0.3134  0.3053
12747TIP3   OH259655   2.291   3.018   4.926 -0.1757 -0.0471  0.4311
12747TIP3    H159656   2.279   2.956   4.998  0.6791  1.9112  2.2905
12747TIP3    H259657   2.382   3.048   4.935 -0.3944  1.0213 -0.8130
12748TIP3   OH259658   5.207   3.689   3.026 -0.7080  0.0302 -0.1502
12748TIP3    H159659   5.145   3.745   3.073 -0.4940  0.1491 -0.0072
12748TIP3    H259660   5.208   3.607   3.076 -0.1486  0.3124  0.3153
12749TIP3   OH259661   3.615   2.287  16.316  0.3495  0.0943  0.8374
12749TIP3    H159662   3.663   2.338  16.251  2.1160 -2.7324 -0.1802
12749TIP3    H259663   3.523   2.313  16.304  0.8523  0.9051 -1.5989
12750TIP3   OH259664   6.708   6.570  13.138 -0.0457  0.0605 -0.0532
12750TIP3    H159665   6.768   6.518  13.191  0.7502  2.3849  1.3940
12750TIP3    H259666   6.629   6.578  13.191  0.0440  0.8083 -0.0318
12751TIP3   OH259667   4.650   6.348  13.891  0.0551 -0.7515  0.2603
12751TIP3    H159668   4.565   6.305  13.886 -0.2127 -0.3257  1.1177
12751TIP3    H259669   4.678   6.335  13.981  0.0457  0.7331  0.4897
12752TIP3   OH259670   4.142   4.458  11.997  0.0146 -0.5346  0.9524
12752TIP3    H159671   4.229   4.419  11.988  1.2737  2.5201 -0.5577
12752TIP3    H259672   4.148   4.515  12.074 -0.6812 -0.3294  0.8608
12753TIP3   OH259673   4.009   3.779  13.237 -0.1778  0.3007  0.4164
12753TIP3    H159674   3.924   3.790  13.195 -0.0687  0.3742  0.2153
12753TIP3    H259675   3.995   3.710  13.302 -0.2963  0.0564  0.1271
12754TIP3   OH259676   4.506   4.069   5.782  0.3432  0.8857  0.2216
12754TIP3    H159677   4.453   4.037   5.709 -0.6500  0.5794  1.0654
12754TIP3    H259678   4.573   4.002   5.794 -0.1282  0.4210  0.2651
12755TIP3   OH259679   3.497   3.048   1.647  0.0618 -0.0870 -0.2056
12755TIP3    H159680   3.518   2.987   1.577  0.7073 -0.6931  0.5048
12755TIP3    H259681   3.581   3.087   1.671  0.1617 -1.3356  1.5593
12756TIP3   OH259682   2.810   6.181  13.870 -0.1613 -0.0402 -0.6175
12756TIP3    H159683   2.801   6.089  13.847  1.5627 -0.3655 -0.0229
12756TIP3    H259684   2.726   6.204  13.911  0.1034 -1.8699  1.0314
12757TIP3   OH259685   6.567   1.450   5.954  0.2748 -0.1076 -0.2387
12757TIP3    H159686   6.557   1.361   5.987  3.5085 -0.6130 -0.3726
12757TIP3    H259687   6.481   1.473   5.920 -1.6508 -1.7018  3.2606
12758TIP3   OH259688   0.044   1.938  13.389  0.4052 -0.1378 -0.2745
12758TIP3    H159689   0.133   1.968  13.370  1.0779 -0.2576  2.4126
12758TIP3    H259690   0.053   1.844  13.403 -0.4614 -0.4379 -1.6624
12759TIP3   OH259691   1.230   1.905  15.195  0.0137 -0.2904 -0.1994
12759TIP3    H159692   1.315   1.934  15.230  0.5288 -0.5679 -1.1865
12759TIP3    H259693   1.221   1.815  15.227 -0.1912 -0.0592  0.4025
12760TIP3   OH259694   6.031   6.306  13.870  0.1211  1.0244 -0.7017
12760TIP3    H159695   6.050   6.400  13.864  0.1704  1.1507  1.1747
12760TIP3    H259696   5.993   6.295  13.957  4.1045 -1.3455  0.9070
12761TIP3   OH259697   3.135   1.866  14.742  0.2144 -0.3729 -0.2031
12761TIP3    H159698   3.117   1.862  14.648 -0.0305  1.4001 -0.2384
12761TIP3    H259699   3.178   1.951  14.754  1.2949 -1.0975  1.1085
12762TIP3   OH259700   2.127   3.086   5.618 -0.1816  0.5018 -0.2498
12762TIP3    H159701   2.149   3.068   5.709 -0.1766  1.2236 -0.1074
12762TIP3    H259702   2.192   3.038   5.567  0.8624  1.4792  0.1497
12763TIP3   OH259703   0.939   0.434   5.451 -0.1240  0.2058 -0.4418
12763TIP3    H159704   0.930   0.338   5.454 -1.2278  0.2847 -1.0070
12763TIP3    H259705   0.896   0.459   5.369  3.8329  0.8138 -2.4110
12764TIP3   OH259706   4.933   2.436   3.570  0.7116  0.1741  0.0036
12764TIP3    H159707   4.913   2.348   3.538 -0.4162 -0.0135  1.1643
12764TIP3    H259708   5.003   2.423   3.634 -0.3051 -0.0718  1.1049
12765TIP3   OH259709   5.854   1.385  11.728  0.2717  0.3612 -0.2251
12765TIP3    H159710   5.947   1.365  11.714  0.6526  0.2581  2.1644
12765TIP3    H259711   5.854   1.472  11.768 -0.7346  0.7995 -1.1632
12766TIP3   OH259712   1.770   6.280  16.311  0.6349  0.6069  0.5364
12766TIP3    H159713   1.864   6.289  16.326  0.6566 -0.3243  1.0111
12766TIP3    H259714   1.733   6.364  16.336  1.3400  0.9727  0.3697
12767TIP3   OH259715   3.734   6.085  16.588 -0.4788  0.2802  0.3338
12767TIP3    H159716   3.822   6.122  16.578 -0.2106 -0.3506  0.3722
12767TIP3    H259717   3.748   5.991  16.599 -0.9660  0.5076  3.3257
12768TIP3   OH259718   0.773   4.034   3.805  0.6290  0.1628 -0.1993
12768TIP3    H159719   0.732   4.111   3.844  2.6129  1.5871 -0.8599
12768TIP3    H259720   0.855   4.024   3.853  1.3820 -0.2450 -1.5542
12769TIP3   OH259721   3.907   3.523  13.736 -0.3093 -0.0938  0.0791
12769TIP3    H159722   3.835   3.478  13.692 -1.2616  1.1903  0.2818
12769TIP3    H259723   3.879   3.532  13.827  1.1886 -1.7785  0.7374
12770TIP3   OH259724   5.168   6.036  12.975 -0.1014  0.1723  0.0370
12770TIP3    H159725   5.253   5.999  12.951  0.7142  1.3663  1.0098
12770TIP3    H259726   5.105   5.970  12.948  1.2613 -1.5640  0.9464
12771TIP3   OH259727   6.571   1.849   1.657 -0.4162 -0.3939  0.0592
12771TIP3    H159728   6.524   1.765   1.657 -0.7730 -0.1953  0.3350
12771TIP3    H259729   6.643   1.836   1.718  0.6786 -1.1354 -1.3657
12772TIP3   OH259730   0.578   6.055   0.825 -0.3373 -0.2982 -0.1462
12772TIP3    H159731   0.515   6.021   0.888 -0.0339 -1.2318 -0.3483
12772TIP3    H259732   0.591   6.146   0.852  0.7037 -1.0175  1.8700
12773TIP3   OH259733   4.461   6.331   1.705  0.5244  0.2881  0.4686
12773TIP3    H159734   4.385   6.387   1.689  0.4145  0.2585  0.8724
12773TIP3    H259735   4.428   6.261   1.762  0.1892 -1.3185 -1.6632
12774TIP3   OH259736   0.673   2.881  15.345  0.1970  0.0954 -0.1545
12774TIP3    H159737   0.765   2.895  15.321 -0.3288  2.0230 -1.1816
12774TIP3    H259738   0.659   2.787  15.337  2.2742 -0.3067  0.7217
12775TIP3   OH259739   0.948   3.720  11.749  0.2916 -0.5223 -0.3762
12775TIP3    H159740   0.969   3.762  11.666  1.0634  0.3590  0.2549
12775TIP3    H259741   0.891   3.782  11.794 -0.9782 -1.4431 -0.6556
12776TIP3   OH259742   0.650   6.315   0.591 -0.2217  0.0113 -0.0660
12776TIP3    H159743   0.736   6.293   0.556  0.9319  0.2862  2.4618
12776TIP3    H259744   0.658   6.405   0.623 -0.5208 -0.8949  2.7728
12777TIP3   OH259745   0.285   1.242  17.102  0.2756 -0.3636  0.3502
12777TIP3    H159746   0.378   1.231  17.081  0.4919  0.0247  1.0644
12777TIP3    H259747   0.270   1.336  17.096 -0.3641 -0.5462 -0.9392
12778TIP3   OH259748   0.427   2.630   3.819 -0.3378  0.0807 -0.3773
12778TIP3    H159749   0.478   2.642   3.899 -2.6845  1.4316  0.9525
12778TIP3    H259750   0.425   2.535   3.807 -1.6323 -0.2917  2.3299
12779TIP3   OH259751   1.681   1.323   5.582  0.0893 -0.2028 -0.1758
12779TIP3    H159752   1.687   1.308   5.676  0.2373  0.7942 -0.0235
12779TIP3    H259753   1.587   1.324   5.564  0.0675 -0.7910 -0.1099
12780TIP3   OH259754   2.822   5.979  15.068  1.3326  0.3782 -0.5226
12780TIP3    H159755   2.803   5.979  14.974 -0.7609 -1.7025 -0.1393
12780TIP3    H259756   2.776   6.056  15.102 -0.4520 -0.5661 -0.7520
12781TIP3   OH259757   6.649   6.163   4.841  0.4372 -0.1166  0.2363
12781TIP3    H159758   6.641   6.159   4.745 -0.8215  2.2234  0.2231
12781TIP3    H259759   6.578   6.108   4.873  1.5445 -1.8240 -0.1478
12782TIP3   OH259760   1.094   0.886   0.407  0.0695  0.1426  0.1405
12782TIP3    H159761   1.119   0.921   0.321  2.7208 -0.6567  0.5582
12782TIP3    H259762   1.026   0.821   0.387  0.3441  0.2847 -1.3129
12783TIP3   OH259763   2.758   6.107   5.300 -0.3183  0.4166  0.2770
12783TIP3    H159764   2.664   6.091   5.306 -1.0192  3.1476 -2.2381
12783TIP3    H259765   2.773   6.186   5.351 -0.0244  1.9760 -2.1481
12784TIP3   OH259766   2.467   4.026  12.301 -0.0350 -0.0674 -0.7608
12784TIP3    H159767   2.387   3.994  12.344 -0.3693  1.0235 -0.5465
12784TIP3    H259768   2.528   4.040  12.373  0.0529 -0.0547 -0.8380
12785TIP3   OH259769   4.085   2.698  15.847  0.2473  0.6890  0.1012
12785TIP3    H159770   4.174   2.701  15.811 -0.0363 -1.0923 -0.7724
12785TIP3    H259771   4.098   2.673  15.939  0.6515  0.3395 -0.0454
12786TIP3   OH259772   1.020   2.481  11.558  0.9466 -0.3422  0.0476
12786TIP3    H159773   1.010   2.573  11.534 -0.2284 -0.5059 -0.0865
12786TIP3    H259774   0.976   2.473  11.643  0.8693 -0.8313 -0.0359
12787TIP3   OH259775   3.417   3.272   0.841  0.8453  0.2537 -0.1226
12787TIP3    H159776   3.505   3.293   0.873  0.9325 -1.1837  0.6171
12787TIP3    H259777   3.406   3.179   0.861 -0.2784  0.0720 -1.5423
12788TIP3   OH259778   0.097   0.150  12.430 -0.8374 -0.3559  0.6858
12788TIP3    H159779   0.138   0.064  12.418  1.0064  0.8130 -1.9139
12788TIP3    H259780   0.047   0.163  12.349 -1.7154  0.6986  1.3940
12789TIP3   OH259781   0.645   6.411   0.068 -0.0135 -0.9776 -0.3614
12789TIP3    H159782   0.592   6.472   0.120  1.2942  1.0118 -1.3180
12789TIP3    H259783   0.651   6.333   0.123 -2.1756 -0.4747  0.6556
12790TIP3   OH259784   6.140   3.089  16.624 -0.5380  0.9114 -0.0423
12790TIP3    H159785   6.142   3.119  16.715  0.9067 -1.3096  0.6977
12790TIP3    H259786   6.220   3.125  16.585  0.0574 -0.0903  0.2357
12791TIP3   OH259787   1.654   5.796   5.212 -0.1976 -0.4296  0.4732
12791TIP3    H159788   1.671   5.766   5.302 -1.6224  0.0814  0.9347
12791TIP3    H259789   1.621   5.885   5.222  0.6656  0.0265 -0.6468
12792TIP3   OH259790   5.674   3.290  12.972 -0.4927  0.0133  0.4304
12792TIP3    H159791   5.622   3.340  13.035  1.0722 -1.2936  2.8614
12792TIP3    H259792   5.763   3.293  13.008  0.7490  0.5154 -2.5636
12793TIP3   OH259793   4.035   2.641   2.350 -0.1951 -0.1384  0.1223
12793TIP3    H159794   4.017   2.729   2.318  1.3633 -0.1235 -0.7544
12793TIP3    H259795   4.108   2.651   2.411  0.4015 -0.8923 -0.4473
12794TIP3   OH259796   1.988   3.872   5.273  0.2581 -0.4595  0.1375
12794TIP3    H159797   2.001   3.966   5.262  2.8743 -0.5782  1.6932
12794TIP3    H259798   1.914   3.864   5.333 -0.5051  0.5703 -0.6576
12795TIP3   OH259799   1.053   2.397   4.075  0.5332 -0.1769  0.0578
12795TIP3    H159800   1.144   2.425   4.068  0.5728 -0.6501 -1.3078
12795TIP3    H259801   1.006   2.476   4.103  1.6326 -0.3938  2.7011
12796TIP3   OH259802   2.426   3.963   0.253 -0.9360  0.6173 -0.3281
12796TIP3    H159803   2.385   4.044   0.224  1.8801  1.2298 -2.8475
12796TIP3    H259804   2.495   3.991   0.313 -0.7001  0.0023 -0.3011
12797TIP3   OH259805   3.236   4.875  15.258 -0.5953  0.2732  0.5162
12797TIP3    H159806   3.221   4.781  15.253 -0.9032  0.4217 -1.9754
12797TIP3    H259807   3.330   4.883  15.274 -0.3656 -0.4498 -0.4259
12798TIP3   OH259808   3.949   3.693  11.664  0.4581 -0.0952 -0.3720
12798TIP3    H159809   3.926   3.657  11.578 -0.3242 -0.5444  0.0239
12798TIP3    H259810   3.934   3.787  11.656  0.7156 -0.0906 -0.8284
12799TIP3   OH259811   4.407   1.136   4.423  0.4838  0.6750 -0.4931
12799TIP3    H159812   4.425   1.106   4.512 -0.7891  1.6189  0.0893
12799TIP3    H259813   4.454   1.219   4.415 -1.1993  1.7027  0.0624
12800TIP3   OH259814   4.860   3.003  12.359 -0.8184 -0.2349  0.0938
12800TIP3    H159815   4.801   2.940  12.401  0.6810 -1.2733  0.6999
12800TIP3    H259816   4.923   2.948  12.312  0.0197  0.8532 -0.0604
12801TIP3   OH259817   4.673   1.332   5.314 -0.0678  0.3579  0.2354
12801TIP3    H159818   4.713   1.346   5.229 -3.2690  0.8317 -1.2803
12801TIP3    H259819   4.677   1.417   5.357  2.1935 -0.0490  0.9195
12802TIP3   OH259820   5.349   5.771   2.502  0.2244 -0.4949  0.0898
12802TIP3    H159821   5.424   5.806   2.550 -0.6842 -0.2371  1.3493
12802TIP3    H259822   5.384   5.748   2.416  1.4208  0.9933  0.1613
12803TIP3   OH259823   1.773   3.214   5.730 -0.2201 -0.6083 -0.1421
12803TIP3    H159824   1.701   3.162   5.695 -0.0872 -1.2204  0.4980
12803TIP3    H259825   1.779   3.189   5.822  1.6703 -1.5388 -0.4919
12804TIP3   OH259826   5.139   2.792  16.241  0.6734 -0.5309 -0.3544
12804TIP3    H159827   5.054   2.781  16.199  0.5974 -2.8562  0.3784
12804TIP3    H259828   5.193   2.837  16.175 -1.1231  1.0930 -0.7619
12805TIP3   OH259829   0.694   6.122   5.731  0.1230  0.1075  0.4519
12805TIP3    H159830   0.677   6.201   5.782 -0.5871  0.1028  0.2294
12805TIP3    H259831   0.781   6.094   5.759  0.3931  0.9803  0.5167
12806TIP3   OH259832   4.711   0.174  12.329 -0.1464 -0.0077  0.1977
12806TIP3    H159833   4.803   0.198  12.342 -0.4710  1.5542 -0.3123
12806TIP3    H259834   4.670   0.189  12.415  0.4170 -2.3837  0.9103
12807TIP3   OH259835   4.491   6.226  16.239 -0.2200 -0.4196 -0.7246
12807TIP3    H159836   4.427   6.255  16.174  1.2459  0.6732 -1.6855
12807TIP3    H259837   4.506   6.133  16.218 -2.2866 -0.9952  0.1932
12808TIP3   OH259838   2.666   5.048   3.255 -0.0605 -0.2621  0.2982
12808TIP3    H159839   2.703   5.135   3.270 -0.8066  0.3092 -1.1067
12808TIP3    H259840   2.605   5.035   3.326 -1.0731  1.0103 -0.3239
12809TIP3   OH259841   4.486   1.152  14.309  0.6573 -0.1056 -0.1410
12809TIP3    H159842   4.467   1.088  14.377  1.7553  2.5009  2.7363
12809TIP3    H259843   4.403   1.166  14.264 -0.4859 -0.6390  1.7705
12810TIP3   OH259844   4.967   6.341   2.758 -0.1506 -0.0573 -0.0321
12810TIP3    H159845   4.931   6.255   2.736  0.7158 -0.7401  1.1816
12810TIP3    H259846   4.897   6.385   2.806 -1.8921  1.2713 -3.6100
12811TIP3   OH259847   6.576   4.067  16.013 -0.1688 -0.2025 -0.6957
12811TIP3    H159848   6.515   4.100  15.947 -0.5337  1.0827  0.2694
12811TIP3    H259849   6.657   4.116  15.997  0.7721 -2.2144 -2.2561
12812TIP3   OH259850   2.572   3.231   3.783 -0.1214  0.0660  0.6282
12812TIP3    H159851   2.591   3.140   3.760 -0.3109  0.2113 -0.1286
12812TIP3    H259852   2.657   3.275   3.781 -0.1624  0.1283 -0.0626
12813TIP3   OH259853   2.788   0.161  14.378  0.4374 -0.4374 -0.6142
12813TIP3    H159854   2.789   0.097  14.449 -1.0968  0.2796  0.0805
12813TIP3    H259855   2.715   0.136  14.323 -0.8510  1.2945  0.2449
12814TIP3   OH259856   3.488   0.622   1.455  0.1349 -0.7651 -0.1114
12814TIP3    H159857   3.403   0.633   1.413  0.3508  0.5168 -0.2148
12814TIP3    H259858   3.506   0.528   1.447 -1.0446 -0.9710 -0.5098
12815TIP3   OH259859   6.547   4.046  12.908 -0.0426  0.3799 -0.1475
12815TIP3    H159860   6.535   4.012  12.819 -0.1822 -0.5214  0.2091
12815TIP3    H259861   6.459   4.063  12.940  0.0838  2.2371 -0.7619
12816TIP3   OH259862   2.493   4.704  15.958 -0.1928  0.4332  0.0361
12816TIP3    H159863   2.427   4.737  16.019  1.0580  3.7964 -0.2834
12816TIP3    H259864   2.555   4.656  16.013 -0.4540  1.2086  1.0297
12817TIP3   OH259865   1.898   3.902   2.974  0.0027 -0.4001 -0.3866
12817TIP3    H159866   1.969   3.841   2.950 -1.4861 -2.0706 -0.6682
12817TIP3    H259867   1.827   3.881   2.913 -0.2579  2.2483 -1.0675
12818TIP3   OH259868   6.711   2.070   2.411  0.0657 -0.2859 -0.0413
12818TIP3    H159869   6.784   2.086   2.471  0.4003  0.4154 -0.6161
12818TIP3    H259870   6.742   2.104   2.327 -1.3057  0.9140 -0.0753
12819TIP3   OH259871   3.217   5.248  14.598 -0.6702 -0.0448  0.5731
12819TIP3    H159872   3.297   5.298  14.609 -0.1993 -1.0174  1.7272
12819TIP3    H259873   3.233   5.167  14.646 -0.5833 -2.2416 -2.9381
12820TIP3   OH259874   0.437   3.894   1.535 -0.1225 -0.0601 -0.7218
12820TIP3    H159875   0.363   3.954   1.529  0.3765  0.8384  1.6464
12820TIP3    H259876   0.440   3.851   1.450 -1.5407  2.0387 -1.8725
12821TIP3   OH259877   4.088   0.852   5.644 -0.1657  0.7742  0.4059
12821TIP3    H159878   4.158   0.816   5.590 -0.3734 -0.4172  0.9084
12821TIP3    H259879   4.017   0.788   5.636 -1.0712  1.8114  0.1651
12822TIP3   OH259880   5.818   6.776   4.157 -0.1724  0.8376 -0.2730
12822TIP3    H159881   5.751   6.729   4.206 -0.9418  0.9907 -1.1533
12822TIP3    H259882   5.864   6.708   4.108  0.3130  0.7341  0.3222
12823TIP3   OH259883   5.945   5.144   2.611  0.2530  0.8022  1.0804
12823TIP3    H159884   5.898   5.219   2.574 -0.7344  0.6823  2.1088
12823TIP3    H259885   6.038   5.168   2.602  0.0961  0.3711 -2.3632
12824TIP3   OH259886   2.999   1.094   2.458 -0.0409 -0.1954 -0.6570
12824TIP3    H159887   2.916   1.074   2.502 -0.1105  3.1305  0.8806
12824TIP3    H259888   2.976   1.158   2.391  0.7905 -1.9322 -2.6802
12825TIP3   OH259889   3.221   5.377   1.150  0.1049  0.1089 -0.6074
12825TIP3    H159890   3.186   5.457   1.191 -0.0812 -0.1309 -0.2960
12825TIP3    H259891   3.305   5.363   1.194  0.2290  0.2455 -0.8022
12826TIP3   OH259892   6.547   5.377  14.161  0.1662 -0.2690 -0.1709
12826TIP3    H159893   6.631   5.419  14.147  0.9364 -1.6317  0.2497
12826TIP3    H259894   6.490   5.413  14.093  0.6001  1.9346  0.6002
12827TIP3   OH259895   0.568   0.584  16.537 -0.6198 -0.4072 -0.0231
12827TIP3    H159896   0.568   0.647  16.466  0.3266  0.2146  0.5115
12827TIP3    H259897   0.660   0.576  16.562 -0.7010 -2.1599 -0.2233
12828TIP3   OH259898   3.150   3.016  13.711 -0.6190 -0.0370  0.0147
12828TIP3    H159899   3.063   3.042  13.742 -0.6850  0.6101 -0.6887
12828TIP3    H259900   3.208   3.085  13.742 -0.5896  0.2929 -0.7455
12829TIP3   OH259901   0.413   5.450  12.716 -0.2150 -0.5388  0.5240
12829TIP3    H159902   0.468   5.406  12.651  1.0044  0.6502  0.7079
12829TIP3    H259903   0.394   5.535  12.676 -0.2553 -0.1769  1.3202
12830TIP3   OH259904   3.856   0.884   1.493  0.0185 -0.2468  0.0703
12830TIP3    H159905   3.841   0.964   1.544 -1.6072 -0.3393 -0.2536
12830TIP3    H259906   3.844   0.813   1.556 -0.4330 -0.3039 -0.0793
12831TIP3   OH259907   2.538   0.689  10.956  0.1675 -0.5418  0.5049
12831TIP3    H159908   2.519   0.636  11.033  1.0275 -1.6281 -0.0186
12831TIP3    H259909   2.626   0.662  10.929 -0.0486 -0.0388 -0.7420
12832TIP3   OH259910   3.552   3.247   5.461  0.0170  0.1926 -0.6702
12832TIP3    H159911   3.486   3.270   5.526 -1.3052 -2.7301 -0.9019
12832TIP3    H259912   3.503   3.241   5.379  0.8668 -0.4379 -1.1356
12833TIP3   OH259913   6.574   4.104   0.206 -0.0499 -1.0309 -0.1184
12833TIP3    H159914   6.576   4.152   0.289 -3.1902  0.5934 -0.9048
12833TIP3    H259915   6.648   4.139   0.157  0.4491 -0.3221  1.1161
12834TIP3   OH259916   5.220   4.096  15.714  0.2848  0.1780 -0.2661
12834TIP3    H159917   5.207   4.062  15.625 -0.0134 -1.1368  0.2754
12834TIP3    H259918   5.314   4.086  15.730  0.3688  0.5798 -0.4929
12835TIP3   OH259919   4.156   4.852  14.848  0.1160 -0.1374 -0.7462
12835TIP3    H159920   4.196   4.874  14.932  1.6266 -2.4300 -0.8028
12835TIP3    H259921   4.065   4.879  14.856  0.2295 -0.3854  1.6614
12836TIP3   OH259922   4.585   0.722   5.865  0.1114  0.3140  0.4026
12836TIP3    H159923   4.502   0.770   5.860  0.0704  0.1583 -0.6159
12836TIP3    H259924   4.624   0.748   5.948  1.0453  3.7471 -1.0122
12837TIP3   OH259925   4.316   2.457   2.409  0.2051  0.0077 -0.4318
12837TIP3    H159926   4.323   2.365   2.382  1.0703 -0.3807  1.0446
12837TIP3    H259927   4.343   2.507   2.332  0.6599 -1.0032 -0.9401
12838TIP3   OH259928   4.679   2.597  14.380 -0.5915  0.3462  0.5222
12838TIP3    H159929   4.626   2.533  14.428 -1.1381 -0.1000 -0.6541
12838TIP3    H259930   4.764   2.595  14.424 -0.4298 -1.5908  0.1605
12839TIP3   OH259931   5.175   3.906   5.412  0.3663  0.4648  0.1201
12839TIP3    H159932   5.232   3.844   5.458  0.8539  2.4543  2.3062
12839TIP3    H259933   5.105   3.924   5.474 -0.5338  1.0171 -1.0579
12840TIP3   OH259934   2.058   6.498   5.559 -0.1027  0.1663 -0.4004
12840TIP3    H159935   2.014   6.552   5.625 -2.0736  0.7015 -2.1012
12840TIP3    H259936   2.100   6.429   5.610 -2.2956  0.0663  1.3644
12841TIP3   OH259937   5.398   0.119   0.580  0.9587 -0.8236 -0.3877
12841TIP3    H159938   5.394   0.087   0.670  2.7529  0.0986  0.0539
12841TIP3    H259939   5.309   0.147   0.560  1.5133  3.9819  3.0301
12842TIP3   OH259940   0.812   2.473  13.218  0.0641 -0.6872 -0.2516
12842TIP3    H159941   0.809   2.569  13.211 -0.5977 -0.7022 -0.2438
12842TIP3    H259942   0.890   2.455  13.270  1.8115 -0.2878 -2.6563
12843TIP3   OH259943   1.952   6.110   1.490  0.1965  0.3038  0.3035
12843TIP3    H159944   2.047   6.123   1.496  0.0887  0.3270  2.0646
12843TIP3    H259945   1.919   6.193   1.456  0.7397  0.5138  0.2777
12844TIP3   OH259946   3.324   0.675   5.014 -0.6614  0.1086 -0.4929
12844TIP3    H159947   3.418   0.663   5.029 -0.6853  0.2109 -0.2606
12844TIP3    H259948   3.302   0.608   4.950 -1.3883 -3.1602  2.9559
12845TIP3   OH259949   5.893   3.918   0.642  0.1682  0.1524  0.0709
12845TIP3    H159950   5.951   3.975   0.591 -0.1185 -0.2015 -0.6619
12845TIP3    H259951   5.863   3.974   0.714 -1.2311  1.4214 -1.4319
12846TIP3   OH259952   2.915   0.383  16.684 -0.7291 -0.8372  0.2708
12846TIP3    H159953   2.871   0.323  16.744  0.6691 -1.8011  0.3663
12846TIP3    H259954   3.009   0.371  16.702 -0.4374  2.4790  1.3661
12847TIP3   OH259955   2.324   4.521  11.330  0.1068  0.3258 -0.1482
12847TIP3    H159956   2.250   4.535  11.389 -0.9705  1.4537 -1.7699
12847TIP3    H259957   2.288   4.530  11.242  1.4395 -2.6137 -1.0683
12848TIP3   OH259958   5.230   1.605   4.630 -0.4142 -0.2531  1.1153
12848TIP3    H159959   5.191   1.613   4.717  1.2132 -0.3942  1.8568
12848TIP3    H259960   5.154   1.592   4.572 -1.5689  0.6118  2.3857
12849TIP3   OH259961   5.174   1.581   0.671  0.1934 -0.5730  0.1376
12849TIP3    H159962   5.267   1.600   0.653  0.2901 -0.4769  0.7346
12849TIP3    H259963   5.127   1.633   0.607  0.6239 -2.7507 -2.0087
12850TIP3   OH259964   1.568   4.882  13.600  0.2064 -0.4993  0.1402
12850TIP3    H159965   1.573   4.976  13.617  0.1585 -0.5592  0.4915
12850TIP3    H259966   1.564   4.842  13.687  0.9007 -0.8623  0.0129
12851TIP3   OH259967   5.866   6.082  11.645  0.3728 -0.1522  0.1993
12851TIP3    H159968   5.802   6.028  11.693 -0.1178  0.3024  0.0523
12851TIP3    H259969   5.822   6.105  11.564  1.1255 -0.7266 -0.3784
12852TIP3   OH259970   6.218   4.574  16.920 -0.2927  0.3968  0.0420
12852TIP3    H159971   6.299   4.622  16.899 -0.3014  1.2047  1.8085
12852TIP3    H259972   6.148   4.635  16.896 -0.3701 -0.0006 -0.7537
12853TIP3   OH259973   5.956   6.236   4.629  0.1684 -0.1037 -0.3812
12853TIP3    H159974   5.888   6.266   4.691  2.0288  1.4251  0.9873
12853TIP3    H259975   6.038   6.248   4.676  1.5101 -0.6562 -2.5129
12854TIP3   OH259976   2.129   3.974   0.701 -0.2580 -0.8676 -0.1718
12854TIP3    H159977   2.052   3.927   0.668 -0.2273  0.1035 -1.6611
12854TIP3    H259978   2.162   4.022   0.625  2.1712 -1.7394  0.2882
12855TIP3   OH259979   3.329   6.188   4.685  0.7779 -0.1729 -0.1763
12855TIP3    H159980   3.272   6.261   4.663 -0.1505 -0.8940 -0.1590
12855TIP3    H259981   3.303   6.162   4.773  1.7020  0.0266  0.1706
12856TIP3   OH259982   0.434   6.608  16.148  0.4900 -0.6774  0.0218
12856TIP3    H159983   0.436   6.692  16.103 -0.0812 -1.0762 -0.7529
12856TIP3    H259984   0.526   6.590  16.170  0.5717  0.3035  0.4876
12857TIP3   OH259985   5.305   5.937  13.811  0.4399  0.4532  0.4926
12857TIP3    H159986   5.365   5.945  13.886  1.1014  1.5566 -0.1356
12857TIP3    H259987   5.331   5.855  13.768  0.8788  0.4528  0.7550
12858TIP3   OH259988   6.100   6.682   1.740  0.0959  0.3128 -0.3829
12858TIP3    H159989   6.055   6.731   1.671  0.3665 -0.4564 -1.1152
12858TIP3    H259990   6.099   6.741   1.816 -0.0465  1.2352 -1.0938
12859TIP3   OH259991   2.943   4.944  14.346 -0.5216 -0.7158 -0.7851
12859TIP3    H159992   2.970   4.854  14.327 -1.1525 -1.3276  1.1280
12859TIP3    H259993   2.975   4.960  14.435 -0.4525  0.9502 -1.1015
12860TIP3   OH259994   0.628   4.888   5.818 -0.1739  0.1873 -0.0997
12860TIP3    H159995   0.615   4.980   5.839 -1.8872  0.1256 -0.7659
12860TIP3    H259996   0.644   4.846   5.903 -1.4682  0.7863  0.4601
12861TIP3   OH259997   2.368   0.178  15.589  0.1492  0.0671  0.4096
12861TIP3    H159998   2.275   0.198  15.596  0.0169 -0.8753  1.4785
12861TIP3    H259999   2.403   0.246  15.531 -1.2197  0.3480 -0.1126
12862TIP3   OH260000   4.520   2.695  13.062  0.2160  0.5469  0.4378
12862TIP3    H160001   4.448   2.639  13.032  2.1454 -1.3375 -0.8538
12862TIP3    H260002   4.501   2.709  13.155 -2.1887  0.7216 -0.0341
12863TIP3   OH260003   0.167   6.612   2.695  0.5425  0.5086 -0.4549
12863TIP3    H160004   0.210   6.527   2.693 -0.0768  0.1555  0.8763
12863TIP3    H260005   0.095   6.604   2.633 -0.4411 -0.4536  0.7835
12864TIP3   OH260006   2.017   3.698   0.225 -0.5209 -0.2531 -0.1791
12864TIP3    H160007   2.006   3.603   0.216 -1.4872 -0.2695  1.0068
12864TIP3    H260008   1.993   3.734   0.140 -1.9387 -0.9398 -0.0722
12865TIP3   OH260009   6.125   4.403   6.201  0.4225 -0.5242 -0.4791
12865TIP3    H160010   6.164   4.473   6.149 -0.5613 -0.4794 -1.1761
12865TIP3    H260011   6.169   4.408   6.286 -1.1559  2.3624  0.2581
12866TIP3   OH260012   4.924   6.767   3.451  0.2287 -0.7096 -0.1062
12866TIP3    H160013   4.865   6.750   3.378 -0.4795  1.2788 -0.0165
12866TIP3    H260014   4.909   6.695   3.512  0.1282 -1.8594 -1.4597
12867TIP3   OH260015   2.342   5.824   3.461 -0.2196  0.3227  0.3384
12867TIP3    H160016   2.390   5.774   3.528 -1.9436  0.5023  1.7325
12867TIP3    H260017   2.293   5.758   3.412  0.2502  0.2978 -0.1043
12868TIP3   OH260018   3.011   1.416  14.882 -0.3245 -0.5466  0.2870
12868TIP3    H160019   2.999   1.345  14.945 -0.2692 -1.2480 -0.4679
12868TIP3    H260020   3.072   1.379  14.817 -0.2612  0.2069 -0.0850
12869TIP3   OH260021   6.216   0.634   4.023  0.6275 -0.2216 -0.3321
12869TIP3    H160022   6.206   0.582   4.102 -0.6188  2.0478  1.0632
12869TIP3    H260023   6.310   0.654   4.019  0.3808  1.4384  1.7722
12870TIP3   OH260024   5.117   3.636   0.320 -0.2887  0.2548 -0.0337
12870TIP3    H160025   5.151   3.653   0.233 -1.4307 -0.4451 -0.6281
12870TIP3    H260026   5.194   3.627   0.376  0.4284  2.6767 -0.5831
12871TIP3   OH260027   2.569   3.392  12.933 -0.1763  0.8550 -0.1452
12871TIP3    H160028   2.484   3.429  12.910 -1.1514 -0.4576  1.2197
12871TIP3    H260029   2.570   3.306  12.891  1.1537  1.5162 -1.4882
12872TIP3   OH260030   3.359   3.385  11.837  0.1500 -0.3380  0.1101
12872TIP3    H160031   3.355   3.476  11.865 -0.3489 -0.7025  1.2923
12872TIP3    H260032   3.340   3.387  11.744 -0.0237  0.7515  0.1642
12873TIP3   OH260033   5.110   0.348  14.168  0.0438  0.1002 -0.2500
12873TIP3    H160034   5.098   0.403  14.091 -0.7373 -0.1239 -0.2941
12873TIP3    H260035   5.029   0.296  14.173  0.7409 -1.0049 -0.1833
12874TIP3   OH260036   0.961   4.589   5.117  0.2007  0.0593  0.1477
12874TIP3    H160037   1.047   4.624   5.140  0.0385  1.0956 -0.7827
12874TIP3    H260038   0.977   4.499   5.091  1.3019  0.8643 -2.0549
12875TIP3   OH260039   3.502   6.335  16.458  0.0058  0.4351 -0.5188
12875TIP3    H160040   3.471   6.286  16.534 -0.0655  1.1940 -0.0541
12875TIP3    H260041   3.422   6.354  16.408  0.1339 -0.7052 -1.1775
12876TIP3   OH260042   3.744   5.370   6.380 -0.3690 -0.1895 -0.4503
12876TIP3    H160043   3.730   5.367   6.474  0.5555 -2.4555 -0.3635
12876TIP3    H260044   3.729   5.462   6.356  0.5577  0.6462  2.0619
12877TIP3   OH260045   1.546   1.527  16.545  0.1256 -0.2399  0.2058
12877TIP3    H160046   1.491   1.449  16.532 -0.7396  0.5045 -0.6180
12877TIP3    H260047   1.631   1.502  16.509 -0.5871 -0.2735 -1.4961
12878TIP3   OH260048   0.373   0.388  12.563  0.2821  0.2312 -0.2309
12878TIP3    H160049   0.452   0.437  12.587 -1.3029  2.2403  0.9930
12878TIP3    H260050   0.401   0.297  12.564  2.8359  0.9584 -0.7536
12879TIP3   OH260051   6.220   1.962   3.939 -0.1407  0.3637 -0.4803
12879TIP3    H160052   6.308   1.968   3.903  0.5766 -2.5588  0.6060
12879TIP3    H260053   6.214   2.034   4.002  1.1014  1.2112 -1.3265
12880TIP3   OH260054   1.146   1.181   5.045  0.0371 -0.6826 -0.1773
12880TIP3    H160055   1.215   1.239   5.079  0.3344 -0.3934 -1.2742
12880TIP3    H260056   1.100   1.234   4.981 -0.0684 -1.4718 -0.7574
12881TIP3   OH260057   0.160   3.369  13.760  0.6200  0.5786  0.1419
12881TIP3    H160058   0.144   3.291  13.812 -0.0574  0.3268 -0.4373
12881TIP3    H260059   0.198   3.432  13.821  2.8344 -0.7952  0.2079
12882TIP3   OH260060   4.425   1.259   5.644  0.4998 -0.0378 -1.1248
12882TIP3    H160061   4.337   1.221   5.649  1.0296 -1.2932 -0.9562
12882TIP3    H260062   4.449   1.251   5.552  1.1332 -1.3682 -0.8597
12883TIP3   OH260063   2.514   5.762  11.279  0.5273 -0.3700 -0.6821
12883TIP3    H160064   2.518   5.837  11.220  2.7535 -1.8200 -2.4775
12883TIP3    H260065   2.560   5.791  11.357 -2.8725  1.7361  0.6542
12884TIP3   OH260066   0.561   4.187   6.067  0.1721  0.0474  0.7534
12884TIP3    H160067   0.472   4.162   6.042 -0.5179  3.9776 -1.1181
12884TIP3    H260068   0.612   4.178   5.986  0.0926  3.5082  0.2613
12885TIP3   OH260069   6.780   1.515   5.506 -0.2161  0.9294 -0.3984
12885TIP3    H160070   6.846   1.576   5.474  0.2754  1.4250  1.5163
12885TIP3    H260071   6.798   1.506   5.599 -0.4171 -1.9911 -0.5920
12886TIP3   OH260072   3.979   2.658   4.235 -0.1619 -0.2592  0.4268
12886TIP3    H160073   3.984   2.705   4.318 -0.3370  0.7401 -0.1200
12886TIP3    H260074   3.958   2.726   4.171 -0.7805 -1.1555 -0.3168
12887TIP3   OH260075   2.433   4.163  14.857  0.0644 -0.0460  0.0038
12887TIP3    H160076   2.474   4.088  14.816  0.9086  0.3762  0.0661
12887TIP3    H260077   2.455   4.155  14.950  0.3502  0.4055 -0.0257
12888TIP3   OH260078   3.613   2.938   0.426 -0.3767  0.7387  0.5580
12888TIP3    H160079   3.666   3.006   0.468  0.3914  0.2277  0.4205
12888TIP3    H260080   3.541   2.985   0.386 -0.0608  1.4343  0.8038
12889TIP3   OH260081   1.362   5.624  14.134  0.0561  0.8863 -0.6657
12889TIP3    H160082   1.366   5.596  14.225  1.0703  0.2256 -0.9004
12889TIP3    H260083   1.413   5.705  14.131 -0.7333  1.3954 -0.4784
12890TIP3   OH260084   1.077   3.029  11.766 -0.0560 -0.5854 -0.2360
12890TIP3    H160085   0.990   2.991  11.762 -0.2905  0.0535 -1.5490
12890TIP3    H260086   1.065   3.112  11.812  0.4949 -2.1321  2.8394
12891TIP3   OH260087   3.886   5.520   3.043  0.3359 -0.5494  0.1982
12891TIP3    H160088   3.956   5.464   3.076 -0.4888 -1.4453  0.4498
12891TIP3    H260089   3.925   5.607   3.039  0.9048 -0.6984  2.0891
12892TIP3   OH260090   4.411   0.518  16.940 -0.1666 -0.2202  0.1756
12892TIP3    H160091   4.404   0.578  17.014  1.6066 -0.6620  0.7281
12892TIP3    H260092   4.498   0.536  16.903  0.5125 -2.6256  0.5316
12893TIP3   OH260093   5.534   4.923  11.542  0.4793 -0.7140  1.2336
12893TIP3    H160094   5.532   4.841  11.591  1.7220 -1.1835  0.5326
12893TIP3    H260095   5.497   4.988  11.601 -0.7728 -1.8326  1.6941
12894TIP3   OH260096   5.994   4.512  13.822  0.4073  0.1027  0.6699
12894TIP3    H160097   6.034   4.514  13.910  0.1137  0.0310  0.8045
12894TIP3    H260098   5.905   4.545  13.836  0.5947  0.7778  0.2745
12895TIP3   OH260099   4.434   6.046   1.283 -0.4847 -0.2151 -0.2615
12895TIP3    H160100   4.511   6.099   1.262 -1.2288  1.3943  0.9850
12895TIP3    H260101   4.461   5.994   1.359 -0.4305 -0.1130 -0.2117
12896TIP3   OH260102   3.812   6.437   4.167 -0.5387  0.5243 -1.1067
12896TIP3    H160103   3.723   6.428   4.131 -0.9263 -0.8861  0.1336
12896TIP3    H260104   3.865   6.377   4.115 -0.7572 -0.2480 -0.4482
12897TIP3   OH260105   2.714   0.587  15.525 -0.5578 -0.3716  0.3263
12897TIP3    H160106   2.672   0.631  15.599 -2.1480  0.4918 -1.0718
12897TIP3    H260107   2.719   0.653  15.457 -0.8076 -1.6878 -0.9888
12898TIP3   OH260108   2.194   2.664   4.336 -0.0637  0.6402  0.0464
12898TIP3    H160109   2.179   2.755   4.361  0.1978  0.6116  0.3121
12898TIP3    H260110   2.115   2.618   4.363 -0.2655  0.8138 -0.2351
12899TIP3   OH260111   2.568   6.502   5.155  0.4532 -0.1358  0.8066
12899TIP3    H160112   2.481   6.534   5.130 -0.7392 -2.2919  2.0503
12899TIP3    H260113   2.600   6.457   5.077 -0.3215 -0.8837  0.9132
12900TIP3   OH260114   4.489   0.367  11.123  0.3193 -0.1171 -0.1800
12900TIP3    H160115   4.479   0.357  11.218 -1.1746 -3.0692 -0.6038
12900TIP3    H260116   4.556   0.303  11.100  0.5699  0.4970 -1.1670
12901TIP3   OH260117   2.557   4.507  12.981  0.2599  0.0796  0.1169
12901TIP3    H160118   2.478   4.458  13.004  0.9170  0.2524  2.8242
12901TIP3    H260119   2.526   4.594  12.958 -0.7738 -1.1246 -3.3541
12902TIP3   OH260120   6.559   4.327  12.963 -0.0931 -0.2159  0.0254
12902TIP3    H160121   6.577   4.247  13.012 -0.3966 -0.0948  0.3321
12902TIP3    H260122   6.535   4.392  13.029 -1.8115 -0.4146 -0.3900
12903TIP3   OH260123   4.538   5.903  16.653  0.5155  0.6396 -1.0879
12903TIP3    H160124   4.575   5.956  16.582  0.7302  2.5057  0.3872
12903TIP3    H260125   4.574   5.942  16.733  0.3453 -1.4878  0.0478
12904TIP3   OH260126   6.183   1.555   0.397  0.0854 -0.4963  0.3558
12904TIP3    H160127   6.147   1.552   0.309 -0.3798 -1.3031  0.5720
12904TIP3    H260128   6.128   1.496   0.448  0.5282 -0.2587  1.1203
12905TIP3   OH260129   5.761   6.123   4.324  0.1606 -0.6564 -0.1820
12905TIP3    H160130   5.828   6.097   4.388  0.8309  0.8289 -0.2640
12905TIP3    H260131   5.794   6.090   4.240  0.6074 -0.2840 -0.1586
12906TIP3   OH260132   4.051   1.976   6.702 -0.5370 -0.2969  0.1947
12906TIP3    H160133   3.982   1.971   6.635 -1.7781 -1.3877  1.5068
12906TIP3    H260134   4.061   2.070   6.719 -0.4086 -0.0323 -1.3216
12907TIP3   OH260135   6.287   6.142   4.293  0.0148 -0.4584 -0.6764
12907TIP3    H160136   6.252   6.053   4.299  0.2149 -0.6901 -2.7297
12907TIP3    H260137   6.225   6.189   4.237 -1.4297  1.4113  2.3413
12908TIP3   OH260138   5.289   0.062   3.270 -0.1086 -0.2411  0.5042
12908TIP3    H160139   5.291   0.095   3.180  1.6325 -0.1303  0.5661
12908TIP3    H260140   5.298  -0.033   3.260 -2.0205 -0.4499  0.4830
12909TIP3   OH260141   1.612   4.978   0.721  0.4458  0.0689  0.5389
12909TIP3    H160142   1.600   4.924   0.800  0.6877  1.1358  1.3202
12909TIP3    H260143   1.580   4.924   0.650 -2.2333  0.0690  1.6884
12910TIP3   OH260144   1.068   1.479   4.629  0.7418  0.0204  0.0104
12910TIP3    H160145   1.032   1.485   4.540 -0.3229 -0.3277  0.4113
12910TIP3    H260146   1.068   1.570   4.660 -0.1666 -0.0135  0.1418
12911TIP3   OH260147   0.964   2.601   4.337 -0.4566  0.3323 -0.2616
12911TIP3    H160148   0.917   2.674   4.376 -2.5076 -0.3797 -1.3177
12911TIP3    H260149   0.970   2.624   4.244 -0.5600 -0.5474 -0.4883
12912TIP3   OH260150   5.225   2.253   3.852 -0.0324 -0.2056  0.8488
12912TIP3    H160151   5.271   2.196   3.790 -2.7262  0.1150 -1.5283
12912TIP3    H260152   5.166   2.195   3.899 -0.2503  0.0566  0.8968
12913TIP3   OH260153   3.838   4.676   4.783  0.0963 -0.2593  0.5043
12913TIP3    H160154   3.845   4.675   4.878 -2.0060 -1.6564  0.6743
12913TIP3    H260155   3.799   4.761   4.762  2.0985  0.7544  0.7194
12914TIP3   OH260156   5.825   4.060  13.319 -0.4808 -0.2331  0.0571
12914TIP3    H160157   5.835   4.070  13.413  2.4757 -2.2702  0.0319
12914TIP3    H260158   5.800   4.147  13.288 -0.0801  0.8051  2.5334
12915TIP3   OH260159   4.849   5.808   2.707 -0.4460  0.2229  0.1188
12915TIP3    H160160   4.784   5.852   2.653 -0.8493 -1.3560 -0.7139
12915TIP3    H260161   4.798   5.749   2.763  0.0828  0.7716  1.2051
12916TIP3   OH260162   0.443   3.564  15.215  1.2664 -0.0173  0.2642
12916TIP3    H160163   0.530   3.531  15.236  0.2752 -1.8212  1.6201
12916TIP3    H260164   0.389   3.486  15.201 -0.5782  1.0299  1.3094
12917TIP3   OH260165   3.789   0.324  14.211 -0.1160 -0.1144 -0.2788
12917TIP3    H160166   3.831   0.396  14.163 -1.1094  0.5066 -0.2341
12917TIP3    H260167   3.822   0.332  14.300 -1.4041  1.2505  0.0968
12918TIP3   OH260168   0.202   5.175   5.317  0.2386  0.2432  0.9270
12918TIP3    H160169   0.145   5.138   5.385  0.1570  0.4031  0.9464
12918TIP3    H260170   0.234   5.257   5.355 -0.7396  0.9191  0.3072
12919TIP3   OH260171   6.495   6.233   0.180  0.0338 -0.1518  0.0582
12919TIP3    H160172   6.426   6.186   0.228 -0.5985 -2.6527 -3.1213
12919TIP3    H260173   6.570   6.232   0.239 -2.0598  1.1003  2.9017
12920TIP3   OH260174   2.352   4.111   2.230  0.0004 -0.0617 -0.0503
12920TIP3    H160175   2.312   4.096   2.316 -2.2518  3.0609 -0.4410
12920TIP3    H260176   2.400   4.193   2.241  0.2291  0.0234 -1.6020
12921TIP3   OH260177   3.999   2.594   0.393  0.6730  0.3917  1.0113
12921TIP3    H160178   4.048   2.663   0.436 -1.1420  2.8311 -0.6718
12921TIP3    H260179   3.913   2.633   0.375 -0.1082 -2.0033 -0.7384
12922TIP3   OH260180   6.023   5.583   2.520 -0.2791  0.4254  0.0939
12922TIP3    H160181   6.075   5.633   2.457 -0.5897  1.3696  0.5706
12922TIP3    H260182   5.937   5.574   2.479  0.0388 -0.5036 -0.3795
12923TIP3   OH260183   0.602   1.234   2.274  0.3477 -0.3225 -0.0635
12923TIP3    H160184   0.663   1.269   2.210  0.1048  0.3901  0.0972
12923TIP3    H260185   0.620   1.283   2.355  0.1326 -0.6871  0.2098
12924TIP3   OH260186   5.722   2.022  14.585  0.4683 -0.5196 -0.0124
12924TIP3    H160187   5.779   2.097  14.570  2.1270 -1.6346  0.4740
12924TIP3    H260188   5.698   1.992  14.497  0.4870  0.0828 -0.2199
12925TIP3   OH260189   6.690   1.771  14.579 -0.4993 -0.0961 -0.0120
12925TIP3    H160190   6.604   1.814  14.575 -1.3803 -1.7788  0.7982
12925TIP3    H260191   6.678   1.689  14.532  0.3731 -0.8606  1.0881
12926TIP3   OH260192   0.095   6.022  10.858  0.0847  0.1679  0.2721
12926TIP3    H160193   0.033   6.084  10.819 -1.6817 -1.3452  0.5946
12926TIP3    H260194   0.132   5.975  10.782 -0.3381  0.0111  0.1591
12927TIP3   OH260195   1.375   0.613   2.817  0.3133 -0.0513 -0.0512
12927TIP3    H160196   1.404   0.524   2.797 -2.5266 -0.9258 -0.4437
12927TIP3    H260197   1.379   0.660   2.734  2.0730  0.3037  0.2085
12928TIP3   OH260198   3.809   0.077  11.806 -1.1838 -0.2366 -0.4258
12928TIP3    H160199   3.829   0.163  11.769  1.3625 -0.8039 -0.4605
12928TIP3    H260200   3.815   0.017  11.731 -1.6667 -0.6406 -0.1486
12929TIP3   OH260201   1.991   1.550  16.255  0.1165  0.3016 -0.6435
12929TIP3    H160202   2.024   1.637  16.234  1.0484 -0.3881 -2.1858
12929TIP3    H260203   1.896   1.557  16.249  0.1154  1.5127  0.5329
12930TIP3   OH260204   0.833   3.806  12.652 -0.4708 -0.1741 -0.5214
12930TIP3    H160205   0.768   3.816  12.583 -1.1830  0.1890  0.1897
12930TIP3    H260206   0.865   3.716  12.642 -0.9914 -0.3147 -0.9520
12931TIP3   OH260207   4.892   0.097   1.200 -0.2982  0.3856 -0.0599
12931TIP3    H160208   4.973   0.146   1.186 -0.8060  0.8804 -1.3695
12931TIP3    H260209   4.921   0.010   1.228  0.7058  0.4508 -0.8593
12932TIP3   OH260210   1.270   6.577  10.923 -0.4715  0.1563  0.3486
12932TIP3    H160211   1.229   6.664  10.930  0.3357  0.6088 -0.3710
12932TIP3    H260212   1.362   6.592  10.944  0.1657 -0.0703 -2.1013
12933TIP3   OH260213   4.898   4.072  16.101 -0.2245  0.0729  0.0797
12933TIP3    H160214   4.924   4.164  16.091  0.6502 -0.3286 -1.5588
12933TIP3    H260215   4.812   4.067  16.059 -0.0423  0.0404 -0.2914
12934TIP3   OH260216   0.698   6.082  10.637  0.0566  0.1105  0.5478
12934TIP3    H160217   0.768   6.048  10.693 -0.5220  0.5083  1.5176
12934TIP3    H260218   0.700   6.177  10.651 -0.6656  0.1260  0.5524
12935TIP3   OH260219   5.591   3.683  13.039  0.2982  0.0720 -0.0141
12935TIP3    H160220   5.554   3.711  12.955 -1.5693 -3.9818 -0.6356
12935TIP3    H260221   5.518   3.691  13.101  0.1186 -1.9653  0.0739
12936TIP3   OH260222   4.833   1.864  11.996  0.0893 -0.0487 -0.3850
12936TIP3    H160223   4.833   1.863  12.092  1.4685  0.0764 -0.3765
12936TIP3    H260224   4.877   1.782  11.972 -1.8895 -0.9770 -0.9393
12937TIP3   OH260225   2.523   4.905   2.650  0.0570 -0.1324 -0.0310
12937TIP3    H160226   2.618   4.910   2.644  0.0764 -0.1166  0.3395
12937TIP3    H260227   2.494   4.995   2.633  0.0529 -0.3611 -1.2854
12938TIP3   OH260228   0.780   4.451   5.553 -0.0121 -0.2722 -0.1232
12938TIP3    H160229   0.820   4.521   5.501 -0.5582 -1.3659 -2.0719
12938TIP3    H260230   0.734   4.496   5.624  0.2619  1.2968 -0.9299
12939TIP3   OH260231   6.656   6.027  13.705 -0.5434 -0.3486 -0.1326
12939TIP3    H160232   6.658   5.933  13.725 -0.2931 -0.2780  0.1709
12939TIP3    H260233   6.568   6.042  13.672 -1.3576 -0.2256  2.0632
12940TIP3   OH260234   6.086   3.154  12.969 -0.3360 -0.4422 -0.4244
12940TIP3    H160235   6.075   3.189  12.881 -0.6488 -0.7129 -0.4923
12940TIP3    H260236   6.035   3.073  12.969  1.5674 -1.6898 -0.7401
12941TIP3   OH260237   4.107   3.495  15.654 -0.2857  0.0131 -0.0602
12941TIP3    H160238   4.079   3.562  15.593 -0.3660  1.8405  1.9570
12941TIP3    H260239   4.043   3.497  15.725  0.2518 -1.5309  0.5021
12942TIP3   OH260240   0.441   5.817  14.943 -0.5607 -0.1506  0.1829
12942TIP3    H160241   0.504   5.856  15.004 -0.6199  1.0082 -0.4829
12942TIP3    H260242   0.360   5.810  14.995 -0.7396  1.2644  0.1277
12943TIP3   OH260243   0.218   1.475   4.987  0.1510 -0.2026 -0.5556
12943TIP3    H160244   0.159   1.402   4.972 -0.6861  0.2762  0.3306
12943TIP3    H260245   0.172   1.531   5.050  1.6989 -0.0033  0.4448
12944TIP3   OH260246   0.145   3.411  14.087 -0.1553 -0.0049  0.1629
12944TIP3    H160247   0.229   3.414  14.041 -0.7892  0.5758 -0.9960
12944TIP3    H260248   0.113   3.322  14.073 -1.0922  0.6217 -1.9532
12945TIP3   OH260249   0.383   1.306   1.166  0.4245 -0.5022  0.2038
12945TIP3    H160250   0.332   1.378   1.130  0.9390 -1.3904 -2.4611
12945TIP3    H260251   0.322   1.233   1.170  0.7763 -0.8524 -0.5124
12946TIP3   OH260252   5.362   6.186  14.719 -0.3292 -0.8040  0.4524
12946TIP3    H160253   5.457   6.191  14.703  0.1697  1.2817  3.4486
12946TIP3    H260254   5.345   6.094  14.735  1.1773 -1.2268 -0.2619
12947TIP3   OH260255   0.394   4.296  12.483 -0.4565  0.7634  0.2634
12947TIP3    H160256   0.391   4.235  12.409 -0.1078  0.9633  0.0863
12947TIP3    H260257   0.445   4.370  12.452 -0.1121  0.7489  0.7816
12948TIP3   OH260258   6.661   3.469   4.562  0.5156  0.1337 -0.0163
12948TIP3    H160259   6.726   3.398   4.559  2.2931  1.7070 -0.2189
12948TIP3    H260260   6.600   3.449   4.492  1.7538 -0.5247 -0.9399
12949TIP3   OH260261   6.086   5.933   1.750 -0.2171  0.4238 -0.1152
12949TIP3    H160262   6.088   6.024   1.719  1.6903  0.8527  1.1871
12949TIP3    H260263   6.087   5.941   1.846  0.2780 -0.9625  0.0027
12950TIP3   OH260264   6.623   4.157   1.721  0.4820 -0.2279  0.4566
12950TIP3    H160265   6.641   4.191   1.633  0.1551 -1.0255  0.0842
12950TIP3    H260266   6.534   4.122   1.716  1.2283 -2.1522  0.5372
12951TIP3   OH260267   3.033   4.252   5.620 -0.5926  0.5896  0.1374
12951TIP3    H160268   3.100   4.199   5.663 -1.2892 -1.7407 -1.5291
12951TIP3    H260269   3.065   4.342   5.626  2.7166 -0.4740 -0.6903
12952TIP3   OH260270   5.310   5.127   4.661  0.0914  0.0502  0.1574
12952TIP3    H160271   5.357   5.044   4.660  0.9980  0.5288  1.4644
12952TIP3    H260272   5.300   5.150   4.569  1.1149 -0.7918 -0.1724
12953TIP3   OH260273   6.175   1.524  13.925  0.1056 -0.1516 -0.1114
12953TIP3    H160274   6.176   1.546  13.832  0.8992  1.0443  0.1713
12953TIP3    H260275   6.153   1.607  13.969 -0.2262 -0.6976  0.7701
12954TIP3   OH260276   3.859   2.262  15.934  0.2013 -0.3145 -0.0885
12954TIP3    H160277   3.820   2.331  15.988 -2.8845 -2.0182 -0.0217
12954TIP3    H260278   3.787   2.202  15.916  2.1053 -1.9123 -2.7498
12955TIP3   OH260279   5.792   2.514   1.142 -0.1727 -0.3106  0.4508
12955TIP3    H160280   5.735   2.547   1.211 -0.8134 -1.5556  0.5305
12955TIP3    H260281   5.738   2.518   1.063  0.0680 -0.2740  0.2871
12956TIP3   OH260282   1.421   2.925   4.319 -0.2049  0.1597 -0.1832
12956TIP3    H160283   1.351   2.893   4.376 -1.5421  2.2432 -0.6246
12956TIP3    H260284   1.477   2.977   4.377  2.2932 -3.2298  0.6630
12957TIP3   OH260285   5.782   4.724   2.756  0.0421 -0.2676 -0.2972
12957TIP3    H160286   5.850   4.735   2.823  0.4791 -1.7249 -0.4760
12957TIP3    H260287   5.727   4.802   2.765  1.1993  0.4858  0.4698
12958TIP3   OH260288   4.702   5.123  13.529  0.8010  0.3290 -0.1024
12958TIP3    H160289   4.712   5.040  13.574  0.4234  0.3462  0.0166
12958TIP3    H260290   4.789   5.142  13.493  1.4324  0.9378  1.6952
12959TIP3   OH260291   6.000   3.020  15.687 -0.1123  0.0483 -0.2359
12959TIP3    H160292   5.985   2.940  15.636  0.7518  0.5050 -1.2145
12959TIP3    H260293   5.913   3.051  15.710 -0.4529 -1.2842  0.3202
12960TIP3   OH260294   3.630   2.761  15.781 -0.2279 -0.3174 -0.0557
12960TIP3    H160295   3.615   2.854  15.765 -1.6974 -0.8252 -2.0279
12960TIP3    H260296   3.708   2.740  15.730 -0.3238 -0.2868 -0.2187
12961TIP3   OH260297   6.224   5.090  12.658 -0.2190 -0.4652  0.4137
12961TIP3    H160298   6.132   5.113  12.677 -0.4201 -0.5850 -0.4042
12961TIP3    H260299   6.225   5.073  12.564  1.0798  1.5587  0.0499
12962TIP3   OH260300   4.910   0.965  12.271  0.0027  0.2939  0.3405
12962TIP3    H160301   4.905   1.001  12.359  1.6608  0.1052  0.5276
12962TIP3    H260302   4.996   0.922  12.267 -0.3993 -0.4111 -1.0869
12963TIP3   OH260303   1.630   5.468   5.073 -0.8690 -0.2174 -0.8402
12963TIP3    H160304   1.659   5.413   5.146  0.6779  1.0474 -0.4701
12963TIP3    H260305   1.573   5.411   5.022 -1.0170 -1.5018  0.6932
12964TIP3   OH260306   5.577   5.922  12.526  0.0397 -0.2690 -0.1138
12964TIP3    H160307   5.668   5.902  12.549 -0.1032 -0.5595  0.2091
12964TIP3    H260308   5.527   5.848  12.561 -0.0658 -1.2666 -2.3222
12965TIP3   OH260309   3.281   3.593  15.544  0.2624 -0.1194 -0.1420
12965TIP3    H160310   3.337   3.566  15.471  0.0273  0.9100 -0.7266
12965TIP3    H260311   3.244   3.512  15.578  1.2528 -0.7062 -0.4595
12966TIP3   OH260312   1.964   3.057  16.805  0.2661  0.2990  0.3766
12966TIP3    H160313   1.888   3.008  16.775  0.6959  0.3046 -0.7166
12966TIP3    H260314   1.953   3.145  16.769  0.8330  0.2767  0.1351
12967TIP3   OH260315   3.751   2.543  11.595  0.5997  0.2456  0.4701
12967TIP3    H160316   3.699   2.618  11.568  1.7391  1.0338  0.4347
12967TIP3    H260317   3.807   2.576  11.665 -0.2219 -1.0548  1.7746
12968TIP3   OH260318   3.047   5.857   3.138  0.3733  0.5769  0.1582
12968TIP3    H160319   3.091   5.904   3.068 -0.5998  1.9349  0.4388
12968TIP3    H260320   3.075   5.902   3.218  1.9501 -1.3278  0.7154
12969TIP3   OH260321   1.583   5.411  11.680  0.0718  0.2242 -0.7812
12969TIP3    H160322   1.490   5.432  11.666  0.3813  2.5483  0.2815
12969TIP3    H260323   1.587   5.379  11.770  0.2216 -0.4095 -1.0130
12970TIP3   OH260324   1.050   0.695   4.774 -0.1396 -0.2759  0.1149
12970TIP3    H160325   1.035   0.716   4.866 -0.2180  0.8415 -0.1366
12970TIP3    H260326   1.019   0.773   4.727  1.9302  0.0560 -0.7254
12971TIP3   OH260327   2.068   2.997  12.596 -0.4893  0.1723 -0.1876
12971TIP3    H160328   2.126   3.048  12.653 -0.0392 -2.0610  1.4026
12971TIP3    H260329   1.980   3.024  12.621 -0.2347  0.7154  0.1270
12972TIP3   OH260330   3.388   4.233   3.482 -0.1205 -0.0818  0.3126
12972TIP3    H160331   3.381   4.299   3.551  0.6375 -0.3577  0.6632
12972TIP3    H260332   3.327   4.262   3.415  0.7977  1.4088  0.1019
12973TIP3   OH260333   5.534   6.315  15.673  0.2380 -0.0464  0.4295
12973TIP3    H160334   5.571   6.401  15.652 -1.2222  0.9123  1.6475
12973TIP3    H260335   5.549   6.263  15.594  1.0546  1.3581 -0.3728
12974TIP3   OH260336   2.526   1.150   3.140  0.2836  0.2564  0.2668
12974TIP3    H160337   2.459   1.083   3.129 -0.1655  0.3407  2.2483
12974TIP3    H260338   2.524   1.201   3.059 -0.4391 -1.1641 -0.6122
12975TIP3   OH260339   4.803   5.626   5.844 -0.7238 -0.3037 -0.0296
12975TIP3    H160340   4.795   5.721   5.844  0.4272 -0.2065  0.6845
12975TIP3    H260341   4.729   5.596   5.897 -1.0131  0.1979 -0.1450
12976TIP3   OH260342   4.419   3.722  16.457 -0.1209 -0.0820 -0.2477
12976TIP3    H160343   4.445   3.786  16.523  0.9783 -1.5344  0.7676
12976TIP3    H260344   4.366   3.658  16.505  0.2182 -0.8446 -0.8766
12977TIP3   OH260345   0.570   1.630   4.838  0.1593 -0.1945 -0.1000
12977TIP3    H160346   0.485   1.643   4.797  0.5804 -1.0062 -1.2689
12977TIP3    H260347   0.631   1.623   4.764  0.8774 -2.0639  0.6394
12978TIP3   OH260348   5.456   4.662  15.230  0.1293 -0.1984 -0.1316
12978TIP3    H160349   5.396   4.675  15.303  0.4404  0.9777 -0.0739
12978TIP3    H260350   5.533   4.715  15.253  2.1033 -3.3689  0.8416
12979TIP3   OH260351   6.412   2.603   6.228 -0.3654  0.2034 -0.2268
12979TIP3    H160352   6.361   2.664   6.175 -1.5035  1.7324  2.4724
12979TIP3    H260353   6.347   2.560   6.284  0.7916 -1.1756  0.0896
12980TIP3   OH260354   1.238   4.055  15.757  0.0779  0.2123  0.0777
12980TIP3    H160355   1.154   4.099  15.745  0.4826  0.8134 -0.6074
12980TIP3    H260356   1.303   4.126  15.752  0.6543 -0.3085  0.1244
12981TIP3   OH260357   2.763   6.034  13.257  0.0000  0.0934  0.3913
12981TIP3    H160358   2.856   6.059  13.257  0.2170 -0.5699  2.6506
12981TIP3    H260359   2.756   5.972  13.329 -1.7701 -1.6139 -1.2367
12982TIP3   OH260360   2.706   2.258  14.873  0.3341 -0.0060  0.0988
12982TIP3    H160361   2.783   2.271  14.817 -0.4204 -0.4272 -1.0626
12982TIP3    H260362   2.710   2.165  14.898  0.4850  0.0983  0.4543
12983TIP3   OH260363   0.932   5.708  16.156 -0.4592  0.3328 -0.1199
12983TIP3    H160364   1.025   5.714  16.134 -0.0660 -1.0935  1.0894
12983TIP3    H260365   0.895   5.649  16.090 -0.1325 -0.5315  0.4564
12984TIP3   OH260366   6.074   0.818   3.050  0.6452  0.2481  0.1281
12984TIP3    H160367   6.111   0.848   3.133  2.9371  1.1798 -1.1789
12984TIP3    H260368   6.094   0.724   3.048  0.9192  0.2963  0.4871
12985TIP3   OH260369   4.978   4.920   5.946  0.0703  0.3165 -0.8038
12985TIP3    H160370   5.058   4.970   5.966 -0.3922  0.9540 -0.5230
12985TIP3    H260371   4.981   4.846   6.007 -0.9075  1.8019  1.1009
12986TIP3   OH260372   5.721   1.147   4.413 -0.1740  0.4846 -0.3957
12986TIP3    H160373   5.707   1.067   4.464  0.0948  1.5164  1.3300
12986TIP3    H260374   5.648   1.149   4.352 -1.9666  0.5491  1.6743
12987TIP3   OH260375   3.439   5.407  16.310  0.1312  0.3693 -0.0320
12987TIP3    H160376   3.408   5.318  16.325 -2.1735  0.6819 -2.5784
12987TIP3    H260377   3.372   5.462  16.350  0.3439  0.9915 -0.5292
12988TIP3   OH260378   3.286   0.620  16.253  0.3842  0.4673  0.1239
12988TIP3    H160379   3.231   0.697  16.264 -0.0203  0.1741  0.1971
12988TIP3    H260380   3.271   0.592  16.163  0.2046  0.2308  0.2253
12989TIP3   OH260381   4.708   6.316  17.113 -0.0188  0.7382  0.9004
12989TIP3    H160382   4.690   6.229  17.077 -0.5963  1.5060 -0.6774
12989TIP3    H260383   4.803   6.322  17.114  0.0135  0.2960  0.5303
12990TIP3   OH260384   5.352   1.774   1.925  0.1274 -0.3951 -0.3536
12990TIP3    H160385   5.369   1.746   2.015 -2.6429 -0.4137  0.2135
12990TIP3    H260386   5.424   1.737   1.874  1.1728 -1.2533  1.6934
12991TIP3   OH260387   1.492   2.826   4.888  0.2871 -0.2407  0.3953
12991TIP3    H160388   1.459   2.910   4.921 -1.6996 -0.6448 -0.5024
12991TIP3    H260389   1.453   2.760   4.944  0.1252 -0.6905 -0.2375
12992TIP3   OH260390   0.229   1.925  17.103 -0.1739 -0.1404 -0.0659
12992TIP3    H160391   0.179   1.983  17.045 -0.0425  0.8382  0.7929
12992TIP3    H260392   0.163   1.890  17.163 -0.5473 -2.2118 -1.6213
12993TIP3   OH260393   4.727   3.368  16.969  0.0789 -0.0142 -0.2877
12993TIP3    H160394   4.771   3.295  17.014  1.6344  0.9926 -0.1232
12993TIP3    H260395   4.717   3.338  16.878 -0.7312 -1.0402  0.1289
12994TIP3   OH260396   0.368   1.971   4.937 -0.1319 -0.0811  0.6634
12994TIP3    H160397   0.285   1.968   4.890  0.8130 -2.4684 -0.9512
12994TIP3    H260398   0.426   2.024   4.882  0.6418 -1.9582 -0.3966
12995TIP3   OH260399   6.009   3.581  16.361 -0.0886  0.0098 -0.5376
12995TIP3    H160400   6.008   3.554  16.453  1.5513 -0.0741 -0.5311
12995TIP3    H260401   5.983   3.673  16.362 -2.9705 -0.7626 -0.2921
12996TIP3   OH260402   3.617   1.343  13.003  0.1723  0.0924  0.2053
12996TIP3    H160403   3.704   1.356  12.966 -0.3292  0.3874 -0.9141
12996TIP3    H260404   3.628   1.353  13.097  1.1354  1.2729 -0.0312
12997TIP3   OH260405   3.427   3.347   4.454  0.5927  0.0554 -0.1892
12997TIP3    H160406   3.509   3.378   4.493 -0.1209 -0.6947  1.9530
12997TIP3    H260407   3.361   3.409   4.484  0.3945  0.8531 -2.1920
12998TIP3   OH260408   1.253   0.845  12.615  0.0082 -0.8351  0.7537
12998TIP3    H160409   1.230   0.934  12.588  1.7707 -0.8126 -0.7884
12998TIP3    H260410   1.322   0.857  12.680  0.8476 -1.0616 -0.0709
12999TIP3   OH260411   1.393   1.423   6.497  0.6417 -0.0412  0.0992
12999TIP3    H160412   1.391   1.331   6.470 -1.4318 -0.0270  0.1098
12999TIP3    H260413   1.365   1.422   6.588  0.0717  0.6365 -0.0586
13000TIP3   OH260414   4.295   2.309  16.408  0.1148  0.2715 -0.0022
13000TIP3    H160415   4.262   2.274  16.325  2.2710 -0.6279 -0.5067
13000TIP3    H260416   4.264   2.247  16.474 -0.9086  0.5453 -0.2094
13001TIP3   OH260417   5.945   4.574  10.248  0.8511 -0.7927  1.0572
13001TIP3    H160418   6.014   4.510  10.266  1.6420 -0.4264 -0.5164
13001TIP3    H260419   5.991   4.658  10.243 -0.0042 -0.2664  1.9103
13002TIP3   OH260420   3.669   3.923   6.163  0.9023 -0.1826 -0.4101
13002TIP3    H160421   3.599   3.965   6.113  1.1236 -0.9874 -1.4025
13002TIP3    H260422   3.721   3.876   6.098  0.9169 -1.6385  0.6291
13003TIP3   OH260423   2.553   6.578   1.998 -0.2317 -0.4123 -0.2656
13003TIP3    H160424   2.595   6.629   2.068  0.0999  2.3431 -2.4150
13003TIP3    H260425   2.460   6.582   2.019 -0.0081 -1.1649  0.9850
13004TIP3   OH260426   6.772   1.173   0.093  0.1772 -0.8440  0.1366
13004TIP3    H160427   6.726   1.123   0.161 -1.3506 -1.9952 -1.6887
13004TIP3    H260428   6.722   1.157   0.013  1.4168  1.2076 -1.1069
13005TIP3   OH260429   5.720   6.225   0.559  0.2126  0.6318 -0.4426
13005TIP3    H160430   5.761   6.307   0.532  0.7495  0.4955 -0.0615
13005TIP3    H260431   5.785   6.184   0.618 -0.5705  0.5307  0.3670
13006TIP3   OH260432   0.277   4.253   1.544  1.3658  0.3329  0.0554
13006TIP3    H160433   0.342   4.314   1.510  0.7421  1.7102  1.2750
13006TIP3    H260434   0.212   4.309   1.587  0.4486 -1.1504  0.6280
13007TIP3   OH260435   0.237   0.660  15.760 -0.2540  0.0439  0.1233
13007TIP3    H160436   0.297   0.686  15.690 -0.0809  1.4847  0.7936
13007TIP3    H260437   0.154   0.644  15.715  0.5610 -1.8159 -0.7857
13008TIP3   OH260438   1.700   6.430  14.387  0.9254  0.4381  0.8255
13008TIP3    H160439   1.763   6.425  14.458  0.6410 -1.2806  0.9929
13008TIP3    H260440   1.719   6.352  14.333  2.5798  2.8194 -2.2136
13009TIP3   OH260441   0.852   5.201   0.907  0.0489  0.0587 -0.4726
13009TIP3    H160442   0.787   5.266   0.934  1.2356  1.3627 -0.6993
13009TIP3    H260443   0.811   5.117   0.926 -0.7167  0.8877  1.7426
13010TIP3   OH260444   5.804   0.593  11.473  0.1102 -0.1970  0.5671
13010TIP3    H160445   5.726   0.547  11.504 -0.6774  0.6433 -0.1294
13010TIP3    H260446   5.830   0.545  11.395 -0.2853  0.0942  0.2520
13011TIP3   OH260447   6.265   4.893  14.776 -0.2522 -0.5670 -0.5521
13011TIP3    H160448   6.300   4.920  14.691 -2.1806 -0.9068 -1.4985
13011TIP3    H260449   6.207   4.965  14.802  0.1600 -0.5682  0.3677
13012TIP3   OH260450   6.155   2.821  12.458 -0.2762 -0.0867 -0.5526
13012TIP3    H160451   6.094   2.876  12.506 -0.7188 -1.2930  0.2797
13012TIP3    H260452   6.218   2.883  12.421 -0.2418  0.9144  1.1179
13013TIP3   OH260453   2.881   1.315  13.253 -0.7646  0.0858 -0.1006
13013TIP3    H160454   2.833   1.279  13.179  0.7110 -0.5934 -0.7400
13013TIP3    H260455   2.912   1.400  13.223  0.9087 -0.7190 -0.7435
13014TIP3   OH260456   6.597   0.797  14.678 -0.2478  0.3255  0.4985
13014TIP3    H160457   6.635   0.716  14.713 -1.2131 -0.8343 -1.0970
13014TIP3    H260458   6.666   0.834  14.623 -0.3340 -0.1943  0.0367
13015TIP3   OH260459   2.295   6.001  16.388  0.1124 -0.2460 -0.3930
13015TIP3    H160460   2.344   5.919  16.397 -0.6775 -0.7959 -0.9522
13015TIP3    H260461   2.354   6.059  16.340  0.1459 -0.9753 -1.2511
13016TIP3   OH260462   5.297   0.347   6.569 -0.1431  0.1529  0.2444
13016TIP3    H160463   5.338   0.391   6.494 -0.7775 -1.9990 -1.4080
13016TIP3    H260464   5.282   0.417   6.632 -0.9282  2.2979 -2.2312
13017TIP3   OH260465   4.442   2.596   6.780 -0.0143  0.0324 -0.0361
13017TIP3    H160466   4.522   2.624   6.735 -0.3830 -0.4185 -0.9810
13017TIP3    H260467   4.400   2.678   6.806  0.8008  0.2713  0.5549
13018TIP3   OH260468   0.212   1.349   5.746  0.2181 -0.0398 -0.1047
13018TIP3    H160469   0.245   1.332   5.835 -0.5077 -0.3503  0.1070
13018TIP3    H260470   0.128   1.392   5.760  0.4561  0.6076 -0.6439
13019TIP3   OH260471   4.798   1.851   1.614 -0.7611  0.3185 -0.4484
13019TIP3    H160472   4.791   1.920   1.548 -0.1433  0.2772 -0.5675
13019TIP3    H260473   4.745   1.883   1.688  0.9954  1.8174  0.2269
13020TIP3   OH260474   0.684   6.426   1.183 -0.4834 -0.2315  0.1984
13020TIP3    H160475   0.652   6.383   1.263  1.3280 -1.9821  0.0287
13020TIP3    H260476   0.780   6.423   1.191 -0.2968  0.9588 -1.3273
13021TIP3   OH260477   3.244   3.113   5.464 -0.0444  1.0577 -0.1068
13021TIP3    H160478   3.219   3.152   5.380 -1.7241 -2.0917 -1.1781
13021TIP3    H260479   3.321   3.060   5.443 -1.3553 -0.9407 -0.0755
13022TIP3   OH260480   3.370   1.770   6.198 -0.1633 -0.2177 -0.1755
13022TIP3    H160481   3.318   1.693   6.217 -1.1414  0.5763  0.4303
13022TIP3    H260482   3.449   1.761   6.252 -0.5909 -0.4560  0.4032
13023TIP3   OH260483   4.786   0.011  13.413  0.0375  0.1651  0.4476
13023TIP3    H160484   4.844   0.037  13.484 -1.6990  0.3696  1.8449
13023TIP3    H260485   4.797  -0.084  13.406 -0.1809  0.0643  1.3828
13024TIP3   OH260486   1.697   6.715  16.455  0.3405  0.3500  0.0493
13024TIP3    H160487   1.659   6.639  16.500  0.4976 -0.3534 -0.9828
13024TIP3    H260488   1.686   6.787  16.517 -0.6330 -0.3200  0.6797
13025TIP3   OH260489   0.081   2.563  16.390 -0.2050  0.1322  0.0208
13025TIP3    H160490   0.008   2.620  16.415 -0.7663 -1.5703  2.3966
13025TIP3    H260491   0.042   2.498  16.332 -1.2448 -2.3659  3.3533
13026TIP3   OH260492   1.478   4.969   4.244 -0.0854  0.0360 -0.0812
13026TIP3    H160493   1.562   4.990   4.203 -0.1959 -0.5570 -0.6293
13026TIP3    H260494   1.446   4.893   4.195 -0.3172 -0.5737  0.9938
13027TIP3   OH260495   2.235   4.952  16.586 -0.1446 -0.1901 -0.4858
13027TIP3    H160496   2.168   5.019  16.575  0.4468  0.4351 -0.3228
13027TIP3    H260497   2.232   4.902  16.504  0.2799  0.8373 -1.1420
13028TIP3   OH260498   6.210   3.916   0.686 -0.0452  0.1174 -0.0568
13028TIP3    H160499   6.213   4.008   0.711  1.5651  0.6987 -2.2018
13028TIP3    H260500   6.120   3.903   0.655 -0.5338  0.7152  1.0741
13029TIP3   OH260501   2.910   1.286  12.668 -0.4782  0.0108  0.1840
13029TIP3    H160502   2.831   1.335  12.647 -1.1118 -0.9193  0.3553
13029TIP3    H260503   2.881   1.195  12.675  0.7556 -0.4731 -0.6431
13030TIP3   OH260504   0.833   1.404  15.517  0.1744  0.0866  0.0401
13030TIP3    H160505   0.879   1.359  15.587  1.2947  2.7515  1.1133
13030TIP3    H260506   0.856   1.356  15.438  2.9058 -0.0525  0.8822
13031TIP3   OH260507   4.023   0.982  11.986 -0.2468  0.0500 -0.3007
13031TIP3    H160508   3.993   0.936  11.907 -3.4359 -1.1823  1.5246
13031TIP3    H260509   3.972   1.063  11.986  0.1696  0.3092  0.1921
13032TIP3   OH260510   5.537   6.104   2.358 -0.8152 -0.0965 -0.2348
13032TIP3    H160511   5.507   6.195   2.358  0.4935  0.3762  1.8342
13032TIP3    H260512   5.472   6.057   2.305  0.0636  2.5033 -3.8257
13033TIP3   OH260513   2.689   2.096   4.633 -0.4184 -0.5013 -0.0033
13033TIP3    H160514   2.750   2.167   4.615  1.5376 -1.9076  0.8663
13033TIP3    H260515   2.643   2.082   4.550 -0.7296  1.6375 -0.2214
13034TIP3   OH260516   5.283   1.542  16.906 -0.3365  0.2768 -0.0133
13034TIP3    H160517   5.354   1.479  16.916 -1.3902 -1.0359 -0.4928
13034TIP3    H260518   5.326   1.628  16.904  1.2986 -0.5367 -1.0710
13035TIP3   OH260519   4.598   6.029  14.203 -0.2234 -0.2428 -0.3534
13035TIP3    H160520   4.530   6.095  14.195 -0.3222 -0.2023  0.8167
13035TIP3    H260521   4.622   6.009  14.112  0.0538  1.6329 -0.7041
13036TIP3   OH260522   5.863   3.326  12.419  0.2149 -0.2537  0.0977
13036TIP3    H160523   5.890   3.374  12.497  0.0257 -0.0501  0.0384
13036TIP3    H260524   5.923   3.357  12.351  0.9635 -1.1015  0.3670
13037TIP3   OH260525   4.877   0.878  16.878 -0.4406  0.2228  0.4816
13037TIP3    H160526   4.894   0.784  16.877 -0.3418  0.2437  0.2804
13037TIP3    H260527   4.878   0.901  16.971 -1.1729 -0.1010  0.5727
13038TIP3   OH260528   0.116   5.248  13.548 -0.5634 -0.2905 -0.2151
13038TIP3    H160529   0.040   5.283  13.503 -1.0561 -2.5581 -1.2097
13038TIP3    H260530   0.108   5.280  13.638 -0.2658  3.1922 -1.3395
13039TIP3   OH260531   0.939   0.848  15.006  0.6631 -0.3386 -0.1338
13039TIP3    H160532   0.910   0.908  15.075  0.0848 -0.7733 -0.0004
13039TIP3    H260533   0.992   0.903  14.947  0.9198  0.0983  0.4946
13040TIP3   OH260534   5.346   3.322   3.882  0.0903  0.0767 -0.3100
13040TIP3    H160535   5.276   3.370   3.839 -0.4639 -1.0229 -0.6670
13040TIP3    H260536   5.301   3.252   3.930  0.9587 -0.9503 -0.9507
13041TIP3   OH260537   3.833   5.901   5.181  0.4431 -0.1737  0.1445
13041TIP3    H160538   3.890   5.844   5.129 -0.4759  0.6824 -1.8461
13041TIP3    H260539   3.774   5.842   5.227  2.0663 -1.0038  1.2071
13042TIP3   OH260540   3.323   2.140  13.430  0.8272 -0.6291 -0.0376
13042TIP3    H160541   3.417   2.143  13.446  0.6735  1.0519  0.6827
13042TIP3    H260542   3.284   2.183  13.506 -0.7036 -3.4086  0.8388
13043TIP3   OH260543   0.516   5.508  12.971  0.1694  0.3399  0.1832
13043TIP3    H160544   0.494   5.489  12.880 -0.6065 -2.1034  0.8422
13043TIP3    H260545   0.608   5.485  12.978  0.0822 -0.0303  0.1462
13044TIP3   OH260546   0.692   2.732   1.866  0.8643 -0.3296  0.1653
13044TIP3    H160547   0.777   2.775   1.871 -0.5682  2.6764 -0.4460
13044TIP3    H260548   0.666   2.720   1.958  0.1625  2.4834  0.3746
13045TIP3   OH260549   4.643   6.561  17.039 -0.6758  0.3500  0.4627
13045TIP3    H160550   4.641   6.616  17.117 -0.1740  1.0999 -0.0466
13045TIP3    H260551   4.672   6.475  17.071 -2.3368  0.1272  1.4014
13046TIP3   OH260552   5.731   1.139  11.685  0.9470 -0.2002 -0.0972
13046TIP3    H160553   5.763   1.119  11.597  1.8756  3.5839 -0.6953
13046TIP3    H260554   5.784   1.214  11.714 -1.4990  0.6578  2.3913
13047TIP3   OH260555   1.132   6.673  12.119  0.2475  0.1079  0.1757
13047TIP3    H160556   1.086   6.634  12.193  1.1722 -0.9045  0.2210
13047TIP3    H260557   1.198   6.731  12.158  1.7379 -1.5571  0.1979
13048TIP3   OH260558   2.608   5.374   2.734 -0.0484 -0.3712 -0.4469
13048TIP3    H160559   2.548   5.449   2.729  1.2953  0.8557  1.0437
13048TIP3    H260560   2.592   5.336   2.820 -1.7959 -2.7571 -1.8018
13049TIP3   OH260561   6.740   0.073  13.851 -0.0734  0.2257 -0.0477
13049TIP3    H160562   6.784   0.052  13.769  0.6971  1.2950  0.0830
13049TIP3    H260563   6.809   0.064  13.918 -0.9138 -1.5550  0.6132
13050TIP3   OH260564   4.867   0.473  11.325 -0.6099  0.3436 -0.4052
13050TIP3    H160565   4.961   0.462  11.344 -0.5275  1.3729 -0.2130
13050TIP3    H260566   4.828   0.496  11.409 -0.9709  0.3090 -0.5656
13051TIP3   OH260567   0.161   2.356  15.642 -0.2271 -0.6281 -0.7186
13051TIP3    H160568   0.074   2.396  15.636 -0.2157 -0.7218 -1.7225
13051TIP3    H260569   0.222   2.429  15.631 -0.1730 -0.5106  0.3477
13052TIP3   OH260570   0.677   0.352   1.815 -0.1018  0.4622  0.3163
13052TIP3    H160571   0.723   0.432   1.842  2.1260 -0.6236 -0.1241
13052TIP3    H260572   0.623   0.329   1.890  0.4009  1.5514  1.0232
13053TIP3   OH260573   3.698   5.957  13.590  0.1455  0.2082 -0.2332
13053TIP3    H160574   3.792   5.971  13.585  0.0157  1.1657 -0.1327
13053TIP3    H260575   3.670   6.005  13.668 -0.6148  1.0680 -1.0199
13054TIP3   OH260576   2.752   4.633  12.714  0.3299  0.6263 -0.2184
13054TIP3    H160577   2.763   4.570  12.784 -1.6960 -0.1686 -0.5742
13054TIP3    H260578   2.711   4.709  12.756 -0.5975  0.2692 -0.4544
13055TIP3   OH260579   6.112   0.148  12.218 -0.1891  0.3631  0.6526
13055TIP3    H160580   6.094   0.136  12.124  1.2682 -1.6321  0.5983
13055TIP3    H260581   6.056   0.084  12.261  0.2906  0.2121  1.0472
13056TIP3   OH260582   4.325   0.217  13.489 -0.2998  0.5428 -0.2072
13056TIP3    H160583   4.419   0.200  13.480 -0.4806 -0.8469  0.3918
13056TIP3    H260584   4.297   0.157  13.558 -1.2881  2.2019  0.8624
13057TIP3   OH260585   6.765   5.411  11.622  0.2301  0.2603  0.1688
13057TIP3    H160586   6.814   5.451  11.550 -2.6598  1.3043 -1.3006
13057TIP3    H260587   6.772   5.317  11.607  2.6423  0.3336  0.6239
13058TIP3   OH260588   6.279   0.186   5.780  0.3064 -0.6054  0.1889
13058TIP3    H160589   6.253   0.094   5.789 -0.8588 -0.2656  0.3652
13058TIP3    H260590   6.208   0.235   5.821  0.9028  0.3797  0.0530
13059TIP3   OH260591   2.435   4.289   5.615  0.4672  0.0864  0.5342
13059TIP3    H160592   2.451   4.369   5.665  0.4244 -0.6333  1.7091
13059TIP3    H260593   2.496   4.225   5.652 -0.3496 -0.7642  0.4233
13060TIP3   OH260594   0.843   5.757  13.132 -0.1627  0.3089  0.0018
13060TIP3    H160595   0.924   5.786  13.090 -0.2151 -1.7261 -1.5773
13060TIP3    H260596   0.863   5.671  13.167 -0.7131  1.1554  2.4814
13061TIP3   OH260597   6.203   6.677   5.670 -0.2116  0.3184 -0.6624
13061TIP3    H160598   6.166   6.645   5.587  0.0627  0.3822 -0.8100
13061TIP3    H260599   6.141   6.647   5.736  1.2413 -2.5989 -0.5542
13062TIP3   OH260600   6.111   4.961  16.115 -0.7005  0.7449  0.2958
13062TIP3    H160601   6.113   5.057  16.117 -1.8747  0.8537 -2.1089
13062TIP3    H260602   6.025   4.939  16.078  0.6585 -1.1433 -1.8948
13063TIP3   OH260603   6.285   4.384   0.623  0.3884 -1.4308 -0.2700
13063TIP3    H160604   6.251   4.323   0.689 -0.9625  0.4558  0.8464
13063TIP3    H260605   6.370   4.411   0.657 -0.4728 -0.1701  0.9294
13064TIP3   OH260606   5.848   3.024   4.449 -0.0199 -0.4952 -0.7932
13064TIP3    H160607   5.930   3.009   4.496 -0.4114  1.3805  0.5345
13064TIP3    H260608   5.850   3.117   4.427 -1.6726 -0.5019 -0.9849
13065TIP3   OH260609   0.451   6.767   5.206  0.6923 -0.0650 -0.3382
13065TIP3    H160610   0.364   6.780   5.242  0.9103  0.5602 -0.0319
13065TIP3    H260611   0.439   6.772   5.111  0.0116 -2.3332 -0.4122
13066TIP3   OH260612   3.684   5.777   4.256  0.2405  0.1103  0.5509
13066TIP3    H160613   3.608   5.834   4.267  0.0848 -0.4141  2.4258
13066TIP3    H260614   3.756   5.825   4.298  0.9392  0.5801 -1.1684
13067TIP3   OH260615   3.410   2.362   5.916  0.0426  0.1205 -0.2879
13067TIP3    H160616   3.386   2.285   5.966 -0.7397 -0.0641 -0.9346
13067TIP3    H260617   3.495   2.388   5.951 -0.1299 -0.4671  0.5854
13068TIP3   OH260618   1.445   4.784  13.306 -0.0399 -0.2057  0.6412
13068TIP3    H160619   1.442   4.879  13.317 -0.0878 -0.3341  1.7948
13068TIP3    H260620   1.392   4.767  13.228  1.7155  0.9017 -0.8424
13069TIP3   OH260621   6.737   6.140  12.068 -0.0065  0.3749 -0.2627
13069TIP3    H160622   6.657   6.191  12.080 -0.4279 -0.4390  0.3879
13069TIP3    H260623   6.784   6.148  12.151  0.7407  1.1021 -0.7440
13070TIP3   OH260624   3.851   4.786  15.739 -0.5238  0.0800 -0.0550
13070TIP3    H160625   3.814   4.869  15.770 -0.4794  0.0286  0.1371
13070TIP3    H260626   3.917   4.812  15.674  0.3513  0.2534  0.8911
13071TIP3   OH260627   1.175   2.882   3.133  0.2246 -0.0580  0.8447
13071TIP3    H160628   1.117   2.957   3.130  0.3408  0.0572  1.3464
13071TIP3    H260629   1.162   2.837   3.050 -0.3301  0.1546  0.8175
13072TIP3   OH260630   1.529   2.048   2.791 -0.0267 -0.4585  0.4780
13072TIP3    H160631   1.510   1.992   2.715  1.5447 -0.0862 -0.2048
13072TIP3    H260632   1.443   2.076   2.821 -0.7148 -1.2426 -0.6974
13073TIP3   OH260633   0.801   3.548   3.181  0.2005 -0.4804  0.5600
13073TIP3    H160634   0.839   3.564   3.094 -1.6879  0.4906 -0.1067
13073TIP3    H260635   0.828   3.624   3.233  0.3315 -0.4776  0.4889
13074TIP3   OH260636   2.777   2.306  12.054 -0.3592 -0.6297 -0.5008
13074TIP3    H160637   2.684   2.327  12.064 -0.4982 -1.3042 -0.3213
13074TIP3    H260638   2.823   2.373  12.104 -0.8105 -1.0112  0.4281
13075TIP3   OH260639   0.513   6.615  16.713  0.3473  0.1919 -0.5073
13075TIP3    H160640   0.573   6.541  16.706 -2.5695 -2.3174  0.0946
13075TIP3    H260641   0.491   6.637  16.623  2.7991  1.7162 -0.7744
13076TIP3   OH260642   5.534   3.186   1.830  0.3083  0.0619  0.0221
13076TIP3    H160643   5.465   3.172   1.765  0.7587  0.3930 -0.5304
13076TIP3    H260644   5.606   3.226   1.780  0.7936 -0.0308  0.6493
13077TIP3   OH260645   3.874   4.173  16.183  0.0995 -0.4032 -0.4000
13077TIP3    H160646   3.862   4.092  16.233  0.8826 -0.8199 -0.8819
13077TIP3    H260647   3.938   4.223  16.233 -2.0073  0.9116  1.0702
13078TIP3   OH260648   4.026   2.649   5.842 -0.4041  0.6404  0.2197
13078TIP3    H160649   3.998   2.727   5.793 -0.0996  0.9494  0.5319
13078TIP3    H260650   4.088   2.683   5.907 -0.0872  0.1015  0.1974
13079TIP3   OH260651   0.397   0.505   5.439  0.5905  0.1026 -0.0584
13079TIP3    H160652   0.332   0.452   5.486  1.1652  0.8318  1.5853
13079TIP3    H260653   0.481   0.465   5.461  0.7897 -0.2546 -1.4124
13080TIP3   OH260654   2.628   1.934  15.615  0.0970 -0.1049 -0.0757
13080TIP3    H160655   2.711   1.935  15.664 -0.6834 -0.3725  1.2907
13080TIP3    H260656   2.576   2.003  15.655 -0.1963  0.3313 -1.1971
13081TIP3   OH260657   0.327   5.176  13.893  0.0499  0.5100  0.0012
13081TIP3    H160658   0.270   5.247  13.864  0.9812  1.0628 -0.5264
13081TIP3    H260659   0.317   5.108  13.826 -0.9115  0.0986  0.5542
13082TIP3   OH260660   2.637   5.640  10.230 -0.2606  0.1371 -0.6910
13082TIP3    H160661   2.597   5.716  10.271  1.0982  1.9417 -2.6180
13082TIP3    H260662   2.730   5.646  10.252 -0.3389 -1.7536  0.2963
13083TIP3   OH260663   2.155   5.575   1.659  0.0808  0.1943  0.4316
13083TIP3    H160664   2.149   5.520   1.581 -1.7586  2.0985 -0.8329
13083TIP3    H260665   2.066   5.605   1.675  0.3994 -0.2700  3.3924
13084TIP3   OH260666   1.898   4.207   2.301 -0.1001  0.6551  0.3114
13084TIP3    H160667   1.954   4.276   2.336 -0.0586 -0.0411  1.6637
13084TIP3    H260668   1.873   4.155   2.378 -1.1845 -0.0632 -0.5089
13085TIP3   OH260669   4.045   1.518  16.789  0.2365 -0.3997 -0.6587
13085TIP3    H160670   3.952   1.528  16.807 -0.4188 -1.1415 -3.3705
13085TIP3    H260671   4.069   1.435  16.831  0.3806  1.0959  2.3697
13086TIP3   OH260672   3.596   1.966   5.661 -0.1482 -0.0185 -0.2563
13086TIP3    H160673   3.638   2.047   5.691  0.6800 -0.3382 -0.5562
13086TIP3    H260674   3.654   1.896   5.691 -0.2224 -0.4348 -1.0884
13087TIP3   OH260675   5.996   0.502  14.552  0.1366 -0.5799  0.6520
13087TIP3    H160676   6.010   0.416  14.593 -0.6287 -0.3052  1.4964
13087TIP3    H260677   5.926   0.542  14.603 -1.7127 -0.7134 -1.6898
13088TIP3   OH260678   4.575   2.143  16.844  0.3941 -0.1002 -0.2873
13088TIP3    H160679   4.511   2.098  16.899  1.1767 -0.1758  0.5789
13088TIP3    H260680   4.636   2.074  16.816 -0.5566 -0.2324 -2.0641
13089TIP3   OH260681   1.152   1.523  14.160  0.2901 -0.0594  0.1869
13089TIP3    H160682   1.170   1.616  14.167  0.7427 -0.1016 -0.4117
13089TIP3    H260683   1.129   1.509  14.068 -1.8697 -0.1765  0.7131
13090TIP3   OH260684   5.403   5.445   4.517 -0.0619  0.0622  0.5955
13090TIP3    H160685   5.386   5.539   4.526 -0.5018  0.0037  0.4331
13090TIP3    H260686   5.481   5.440   4.463 -0.1837  0.3334  0.3886
13091TIP3   OH260687   4.478   3.609   4.673  0.7241  0.2538  0.2033
13091TIP3    H160688   4.423   3.672   4.626 -1.2886 -1.0086  0.7879
13091TIP3    H260689   4.476   3.639   4.764 -0.2244 -0.6089  0.4798
13092TIP3   OH260690   6.680   4.978  14.664  0.5523 -0.0366  0.0839
13092TIP3    H160691   6.672   5.054  14.721 -1.1826  0.2394 -0.5203
13092TIP3    H260692   6.690   5.015  14.576  0.1147 -0.5126 -0.1622
13093TIP3   OH260693   3.006   3.067   1.196  0.0213  0.8097 -0.0500
13093TIP3    H160694   3.101   3.058   1.208 -0.2343 -2.0872 -0.0499
13093TIP3    H260695   2.992   3.053   1.103 -0.6839 -1.6976  0.3953
13094TIP3   OH260696   4.423   2.759  12.193 -0.2805 -0.1210  0.0798
13094TIP3    H160697   4.418   2.743  12.287  0.9237 -2.0596 -0.1666
13094TIP3    H260698   4.388   2.680  12.153  0.1952  0.2624 -1.1326
13095TIP3   OH260699   1.236   2.877  13.105  0.0483  0.1173  0.6507
13095TIP3    H160700   1.283   2.814  13.159 -0.6408 -0.6948  0.3088
13095TIP3    H260701   1.176   2.921  13.166 -0.8542 -0.9232  0.5264
13096TIP3   OH260702   2.268   2.974  14.804  0.9097  0.4490  0.7420
13096TIP3    H160703   2.350   2.931  14.780  0.9224  0.7887  0.1460
13096TIP3    H260704   2.235   2.924  14.878  0.9969 -0.5005  0.1543
13097TIP3   OH260705   5.915   2.411  17.006 -0.3023  0.2213 -0.0941
13097TIP3    H160706   5.900   2.415  17.101 -0.2482  1.7344 -0.1303
13097TIP3    H260707   6.010   2.420  16.997 -0.3483  0.5306 -0.2961
13098TIP3   OH260708   1.781   2.962   4.255 -0.4047 -0.2533  0.3024
13098TIP3    H160709   1.723   2.930   4.186 -0.4404 -0.1701  0.2944
13098TIP3    H260710   1.800   3.052   4.230 -0.6896 -0.1149  0.5843
13099TIP3   OH260711   2.828   2.642  15.615 -0.3781 -0.7116  0.5813
13099TIP3    H160712   2.812   2.635  15.520  1.0559  1.9879  0.0849
13099TIP3    H260713   2.772   2.714  15.643 -1.1283 -1.7891  1.9209
13100TIP3   OH260714   0.841   3.580   2.558  0.0726 -0.4614 -0.0873
13100TIP3    H160715   0.846   3.676   2.556 -0.2819 -0.3579  2.3002
13100TIP3    H260716   0.771   3.558   2.496 -0.2873  0.8537 -0.1581
13101TIP3   OH260717   0.161   3.819  15.709  0.2154  0.3885 -0.5140
13101TIP3    H160718   0.187   3.781  15.793  1.3844 -1.6447 -1.7419
13101TIP3    H260719   0.187   3.753  15.644  1.7334  3.0560 -2.7184
13102TIP3   OH260720   6.367   2.588  16.542 -0.6627 -0.2151 -0.2535
13102TIP3    H160721   6.305   2.537  16.490  0.1300  0.1252 -1.5617
13102TIP3    H260722   6.350   2.679  16.517 -0.3124 -0.0458  0.1188
13103TIP3   OH260723   6.027   1.196   0.230  0.6213  0.7808 -0.3835
13103TIP3    H160724   6.078   1.119   0.255 -0.6172  0.6441  1.8116
13103TIP3    H260725   5.988   1.171   0.146  0.0945 -1.0748  0.3753
13104TIP3   OH260726   6.592   6.314  15.033  0.1892 -0.4809  0.0300
13104TIP3    H160727   6.583   6.348  14.944  1.3307  0.3490  0.2276
13104TIP3    H260728   6.529   6.365  15.085  0.3892 -0.1333 -0.0709
13105TIP3   OH260729   3.161   6.518   2.909 -0.3746 -0.2744  0.4474
13105TIP3    H160730   3.240   6.474   2.880  1.0175  0.7931  2.4858
13105TIP3    H260731   3.185   6.559   2.992 -2.5346  1.5931  0.2166
13106TIP3   OH260732   5.380   4.406  13.458 -0.5215 -1.1353  0.1348
13106TIP3    H160733   5.402   4.316  13.481 -0.1338 -0.9868  0.3524
13106TIP3    H260734   5.325   4.398  13.380  0.9494 -1.4721 -0.8881
13107TIP3   OH260735   0.308   2.109   2.952 -0.0783 -0.3785 -0.7659
13107TIP3    H160736   0.356   2.054   2.890  0.8598 -2.5751  1.7914
13107TIP3    H260737   0.219   2.111   2.918  0.8464  0.0695 -3.2091
13108TIP3   OH260738   1.129   5.399   1.301  0.1819  0.8669 -0.0585
13108TIP3    H160739   1.128   5.402   1.397  0.8127 -0.7614  0.0157
13108TIP3    H260740   1.208   5.350   1.280  0.6671  2.2162 -1.4628
13109TIP3   OH260741   3.426   2.558   4.942 -0.1009 -0.0087 -0.7715
13109TIP3    H160742   3.349   2.610   4.966  0.2814 -0.0041  0.5315
13109TIP3    H260743   3.409   2.528   4.853 -1.6018  0.0060 -0.5047
13110TIP3   OH260744   3.574   2.862   2.570  0.8411  0.3237 -0.2962
13110TIP3    H160745   3.641   2.795   2.556 -0.9286 -1.2174 -1.7367
13110TIP3    H260746   3.491   2.813   2.568 -0.3291  2.1589  1.6025
13111TIP3   OH260747   3.899   3.785   4.935  0.1436  0.1488 -0.5134
13111TIP3    H160748   3.918   3.706   4.986 -0.1345  2.0350  2.6688
13111TIP3    H260749   3.807   3.775   4.909 -0.6037  0.4297  1.8834
13112TIP3   OH260750   5.320   3.090  11.733 -0.2612  0.1071  0.4573
13112TIP3    H160751   5.323   3.166  11.790 -2.9478  0.6735 -0.0647
13112TIP3    H260752   5.386   3.107  11.666  1.0801  0.6599  1.9121
13113TIP3   OH260753   5.547   3.039  13.021 -0.0078 -0.2718  0.2434
13113TIP3    H160754   5.625   3.095  13.026 -1.0627  1.1112  1.6139
13113TIP3    H260755   5.522   3.024  13.112  1.2006 -4.4119  0.0244
13114TIP3   OH260756   2.593   6.043   1.937  0.3658  0.3637 -0.3257
13114TIP3    H160757   2.542   6.124   1.932 -0.0698  0.2133  1.4356
13114TIP3    H260758   2.597   6.022   2.030  0.8628 -1.4042 -0.7133
13115TIP3   OH260759   3.123   3.135  15.829 -0.2803  0.5081 -0.1326
13115TIP3    H160760   3.177   3.198  15.877 -2.0650  1.6823  0.3789
13115TIP3    H260761   3.036   3.175  15.826 -0.8941 -0.8908 -1.8205
13116TIP3   OH260762   2.951   2.542  11.416  0.0802 -0.6234 -0.6997
13116TIP3    H160763   2.857   2.528  11.407 -0.3059  1.5069 -0.2413
13116TIP3    H260764   2.989   2.500  11.339 -1.1847 -1.9263 -0.6392
13117TIP3   OH260765   0.844   3.170   3.536  0.1395  0.5294 -0.3274
13117TIP3    H160766   0.832   3.248   3.481 -0.2253  1.1552  0.6323
13117TIP3    H260767   0.771   3.173   3.597 -1.6194 -2.1608 -2.1598
13118TIP3   OH260768   0.242   2.963   2.042  1.0027 -0.2819 -0.1555
13118TIP3    H160769   0.227   2.931   1.953 -2.0479 -1.0771  0.5872
13118TIP3    H260770   0.173   3.028   2.057 -0.6281 -2.5365  2.7394
13119TIP3   OH260771   1.700   3.171  15.224 -0.3983 -0.0271 -0.3674
13119TIP3    H160772   1.766   3.237  15.242  0.3387 -0.9447  0.3693
13119TIP3    H260773   1.739   3.115  15.157 -0.2329 -0.8277  0.3811
13120TIP3   OH260774   5.210   2.169   3.143  0.0537 -0.5944 -0.3636
13120TIP3    H160775   5.287   2.210   3.181  0.2743  0.5222 -1.9617
13120TIP3    H260776   5.239   2.082   3.117  1.0201  0.1453 -1.7775
13121TIP3   OH260777   6.094   4.296   3.730  0.3477 -0.4608  0.0222
13121TIP3    H160778   6.094   4.273   3.823 -0.2281  2.3115  0.7473
13121TIP3    H260779   6.172   4.350   3.718 -0.6599  0.8974 -0.6307
13122TIP3   OH260780   3.154   4.454  16.216  0.0917 -0.2586  0.1180
13122TIP3    H160781   3.102   4.382  16.251  2.1369 -1.1937  1.2630
13122TIP3    H260782   3.227   4.412  16.171  1.4076  1.0782  0.9452
13123TIP3   OH260783   1.121   0.849   6.022 -0.9242  0.0701  0.5191
13123TIP3    H160784   1.049   0.865   6.083 -0.7843  0.6396  0.5322
13123TIP3    H260785   1.083   0.862   5.935 -1.5292 -2.2468  0.3941
13124TIP3   OH260786   6.623   0.584  10.688  0.1241  0.0191  0.0921
13124TIP3    H160787   6.707   0.553  10.655 -0.5154 -0.3619 -1.1919
13124TIP3    H260788   6.636   0.593  10.783  1.4578 -0.5012 -0.0384
13125TIP3   OH260789   1.390   0.036  16.661 -0.0753 -0.3762 -0.2494
13125TIP3    H160790   1.436   0.104  16.611 -0.4123  0.1406  0.1376
13125TIP3    H260791   1.350   0.084  16.733  0.8075 -1.1940  0.7947
13126TIP3   OH260792   4.027   2.254  12.430  0.1367 -0.6818 -0.4301
13126TIP3    H160793   4.116   2.239  12.462  0.1540  0.4992  0.1341
13126TIP3    H260794   3.987   2.168  12.427  1.1285 -1.1575 -0.1501
13127TIP3   OH260795   4.942   1.935  12.727  0.1981 -1.1061  0.1237
13127TIP3    H160796   4.997   1.856  12.730  0.1123 -1.1648  0.1591
13127TIP3    H260797   4.915   1.948  12.818  0.9607 -0.5066  0.2771
13128TIP3   OH260798   6.371   5.188  13.840  0.7834 -0.1800  0.2075
13128TIP3    H160799   6.296   5.162  13.894 -0.0760 -0.1030 -0.9310
13128TIP3    H260800   6.387   5.279  13.864  0.6977 -0.2803  0.6619
13129TIP3   OH260801   0.574   0.159   4.489  0.1045  0.5578  0.2693
13129TIP3    H160802   0.652   0.169   4.435 -0.7749  1.2578 -0.8908
13129TIP3    H260803   0.607   0.132   4.575  1.6894  2.0143  0.1250
13130TIP3   OH260804   0.541   3.839  13.018 -0.1247 -0.5888 -0.1895
13130TIP3    H160805   0.602   3.767  13.009  1.6399  0.9191 -0.6825
13130TIP3    H260806   0.548   3.887  12.935 -0.2455  0.9001  0.6335
13131TIP3   OH260807   5.067   5.196  12.264 -0.0366  0.6853 -0.1818
13131TIP3    H160808   4.982   5.153  12.262 -0.3237  1.2955 -3.1252
13131TIP3    H260809   5.131   5.126  12.250 -0.1157  0.3644  1.0697
13132TIP3   OH260810   5.351   4.917  16.532 -0.4659  0.3443 -0.0636
13132TIP3    H160811   5.408   4.857  16.581 -0.9409  0.1988  0.3301
13132TIP3    H260812   5.394   5.002  16.537 -0.6701  0.3977  0.9004
13133TIP3   OH260813   3.356   4.387   1.940  0.2668 -0.2878 -0.1973
13133TIP3    H160814   3.438   4.427   1.970  0.6339 -1.9536  1.0697
13133TIP3    H260815   3.382   4.304   1.901 -0.6533 -0.0067 -1.4672
13134TIP3   OH260816   0.274   1.877  13.881 -0.2747  0.0886 -0.1653
13134TIP3    H160817   0.318   1.959  13.907 -0.2751  0.1555 -0.3709
13134TIP3    H260818   0.280   1.877  13.785 -1.6224  0.5976 -0.2605
13135TIP3   OH260819   0.892   2.897   1.929 -0.1393  0.3860 -0.1996
13135TIP3    H160820   0.972   2.861   1.968 -0.7485  0.4331  1.1225
13135TIP3    H260821   0.867   2.968   1.987 -2.0096 -0.6251  0.2812
13136TIP3   OH260822   3.977   1.124  15.380 -0.0167 -0.1999 -0.3279
13136TIP3    H160823   3.883   1.112  15.393 -0.0783 -0.5346 -1.0918
13136TIP3    H260824   4.001   1.193  15.443 -0.5408 -0.9632  0.7224
13137TIP3   OH260825   4.783   6.510  15.898 -0.5136 -0.5848  0.1403
13137TIP3    H160826   4.726   6.521  15.974  0.8329 -0.2799  1.1193
13137TIP3    H260827   4.825   6.595  15.886  1.6869 -1.5054  1.0386
13138TIP3   OH260828   6.359   0.202   6.239 -0.0871  0.1040 -0.0164
13138TIP3    H160829   6.379   0.141   6.310 -0.4532 -3.3586 -2.7065
13138TIP3    H260830   6.276   0.243   6.265 -0.9051 -2.0820  0.9932
13139TIP3   OH260831   3.511   1.913   0.238  0.4407 -0.5363 -0.1108
13139TIP3    H160832   3.603   1.937   0.244 -0.1383  1.5522  0.9421
13139TIP3    H260833   3.476   1.967   0.167 -0.2467 -0.3517  0.3578
13140TIP3   OH260834   5.285   6.768   6.033 -0.1992  0.0112 -0.5420
13140TIP3    H160835   5.298   6.789   5.941  1.7094 -0.7429 -0.4616
13140TIP3    H260836   5.368   6.730   6.062 -1.0802 -0.6655  1.2397
13141TIP3   OH260837   3.790   4.935   1.021 -0.1045 -0.3014 -0.1915
13141TIP3    H160838   3.867   4.886   1.049 -0.8301 -0.5923  1.3907
13141TIP3    H260839   3.718   4.871   1.024 -0.4687  0.0529 -1.2865
13142TIP3   OH260840   3.920   3.627  16.596  0.1965  0.4209 -0.6259
13142TIP3    H160841   3.873   3.657  16.518  0.9367  0.0215 -1.2327
13142TIP3    H260842   3.853   3.583  16.648 -0.6089  1.8792 -0.3702
13143TIP3   OH260843   2.414   4.889  12.424  0.1765 -0.1924 -0.1110
13143TIP3    H160844   2.389   4.950  12.494  0.3381 -1.3277  0.9519
13143TIP3    H260845   2.478   4.938  12.372 -1.1952  1.2658 -0.4707
13144TIP3   OH260846   5.789   5.817  13.464 -0.1991  0.1232 -0.2891
13144TIP3    H160847   5.838   5.897  13.448 -0.7448  0.6471  0.6275
13144TIP3    H260848   5.699   5.838  13.440 -0.3946 -0.1382  0.2131
13145TIP3   OH260849   2.017   3.987   1.087  0.0396 -0.1153  0.5446
13145TIP3    H160850   2.051   3.901   1.063  2.2976  0.4074  1.6899
13145TIP3    H260851   1.970   3.973   1.168 -3.0806 -0.9460 -1.3360
13146TIP3   OH260852   6.122   3.663   5.436 -0.0407 -0.1227 -0.0212
13146TIP3    H160853   6.031   3.643   5.456 -0.3458 -0.0316 -1.2802
13146TIP3    H260854   6.149   3.726   5.504 -1.8226  2.1650 -1.3646
13147TIP3   OH260855   5.240   5.335   3.854  0.0996 -0.9022 -0.4592
13147TIP3    H160856   5.190   5.315   3.775  1.1668 -0.1083 -1.3671
13147TIP3    H260857   5.210   5.422   3.881 -0.9760 -1.6013  0.5853
13148TIP3   OH260858   1.047   4.284   4.007  0.2735 -0.1533 -0.1343
13148TIP3    H160859   1.050   4.230   3.928 -0.0671 -0.2334 -0.0913
13148TIP3    H260860   0.963   4.264   4.047  0.0779  0.5157 -0.1951
13149TIP3   OH260861   5.366   1.798   0.465  0.1766  1.0078 -0.2198
13149TIP3    H160862   5.370   1.827   0.373 -1.7608  1.4804 -0.1868
13149TIP3    H260863   5.345   1.878   0.514 -0.8989  0.3603  0.3816
13150TIP3   OH260864   0.776   0.692  11.182 -1.0240 -0.3298  0.1120
13150TIP3    H160865   0.806   0.775  11.146 -0.4699 -0.4293  0.3463
13150TIP3    H260866   0.692   0.677  11.139 -0.9058  0.1188 -0.2833
13151TIP3   OH260867   3.693   3.955   1.190  0.1681  0.3721 -0.1025
13151TIP3    H160868   3.683   3.913   1.105 -0.6554 -1.3076  0.8076
13151TIP3    H260869   3.784   3.940   1.214  0.3691  0.7465 -0.6332
13152TIP3   OH260870   5.853   3.892   4.336  0.1417 -0.0369  0.0013
13152TIP3    H160871   5.895   3.813   4.370  1.3033  0.9347  0.8783
13152TIP3    H260872   5.864   3.957   4.405 -0.4936  0.9927 -0.8458
13153TIP3   OH260873   6.542   4.400  17.228  0.2152 -0.1410  0.4148
13153TIP3    H160874   6.463   4.413  17.280  1.0941 -0.4295  1.8490
13153TIP3    H260875   6.608   4.455  17.271  1.2499 -1.3065  0.3286
13154TIP3   OH260876   6.637   1.111   3.277  0.1766  0.3073 -0.0841
13154TIP3    H160877   6.562   1.129   3.334 -0.0181  0.6753 -0.4596
13154TIP3    H260878   6.688   1.046   3.326 -1.4688 -1.5499 -0.7540
13155TIP3   OH260879   0.360   2.543  15.654 -0.4802  0.1194 -0.3426
13155TIP3    H160880   0.411   2.480  15.705  0.0582 -0.1416 -1.1973
13155TIP3    H260881   0.381   2.628  15.692  0.7020  0.0266 -0.7721
13156TIP3   OH260882   3.238   4.684  13.163 -0.4335 -0.2062 -0.8780
13156TIP3    H160883   3.186   4.691  13.084  2.0739 -0.4351 -2.6014
13156TIP3    H260884   3.219   4.764  13.212 -0.7851  0.6874 -2.4672
13157TIP3   OH260885   2.725   3.434   4.628  0.3474  0.4794  1.0393
13157TIP3    H160886   2.678   3.412   4.547  0.1330  1.6512  0.8272
13157TIP3    H260887   2.784   3.361   4.642 -0.3223 -0.2064  0.3600
13158TIP3   OH260888   4.072   4.498  11.211  0.3544 -0.4851 -0.2246
13158TIP3    H160889   4.053   4.437  11.140 -3.9939  0.6415 -0.2163
13158TIP3    H260890   4.060   4.585  11.172  0.1706  0.1937  1.2923
13159TIP3   OH260891   3.265   1.337  13.562  0.0922  0.6100 -0.1213
13159TIP3    H160892   3.254   1.408  13.498  0.2382  0.2777 -0.5158
13159TIP3    H260893   3.182   1.289  13.560 -0.3764  1.3575  0.8704
13160TIP3   OH260894   5.180   3.142   5.875 -0.5223 -0.3587 -0.3628
13160TIP3    H160895   5.101   3.190   5.899  0.5878 -0.5242  4.2297
13160TIP3    H260896   5.168   3.055   5.915  2.0390 -0.2849  0.7059
13161TIP3   OH260897   2.735   2.095  16.002  0.1791 -0.4211  0.0552
13161TIP3    H160898   2.690   2.091  16.086 -1.3084 -0.9399 -0.7506
13161TIP3    H260899   2.753   2.188  15.989 -1.9439 -0.0181 -0.2460
13162TIP3   OH260900   6.363   1.962  12.073 -0.0810 -0.0455 -0.9572
13162TIP3    H160901   6.308   1.900  12.120  0.3980 -1.3000 -2.0136
13162TIP3    H260902   6.397   1.912  11.999  0.4731  1.4286 -1.7167
13163TIP3   OH260903   5.373   2.144   4.335 -0.3725 -0.3315  0.2909
13163TIP3    H160904   5.375   2.216   4.399  1.3800  0.4385 -0.5834
13163TIP3    H260905   5.389   2.187   4.251 -0.1744 -1.6364 -0.3466
13164TIP3   OH260906   6.618   4.732  15.368 -0.1382 -0.4124  0.1571
13164TIP3    H160907   6.586   4.671  15.434  0.0412  0.5416  1.1391
13164TIP3    H260908   6.710   4.744  15.388  0.3847 -1.5872 -1.4409
13165TIP3   OH260909   4.353   3.862   3.717  0.2005  0.3344 -0.2042
13165TIP3    H160910   4.299   3.849   3.795 -0.9965  1.7414 -0.7897
13165TIP3    H260911   4.409   3.937   3.738  0.1793  0.4472 -0.5504
13166TIP3   OH260912   3.038   5.204  13.276 -0.4300  0.0526  0.1929
13166TIP3    H160913   2.973   5.224  13.344  1.4989  0.9375  1.8267
13166TIP3    H260914   3.032   5.278  13.215 -1.8925 -0.5477 -0.4192
13167TIP3   OH260915   6.769   0.212   5.523 -0.3337 -0.0254 -0.0850
13167TIP3    H160916   6.808   0.134   5.563 -0.2551 -0.1776 -0.4547
13167TIP3    H260917   6.698   0.178   5.469  1.1566 -0.0699 -2.0865
13168TIP3   OH260918   4.851   5.043   4.561  0.6802 -0.0889  0.6621
13168TIP3    H160919   4.763   5.066   4.590  0.4511  0.4946 -0.4936
13168TIP3    H260920   4.907   5.060   4.637 -0.0638  0.4392  1.0854
13169TIP3   OH260921   2.792   6.396  13.335 -0.0764  0.1089  0.2814
13169TIP3    H160922   2.709   6.362  13.368 -0.0281  0.5574  0.8749
13169TIP3    H260923   2.847   6.406  13.413  0.7250 -0.6956 -0.1713
13170TIP3   OH260924   4.160   2.473  14.192 -0.0775  0.4173 -0.1004
13170TIP3    H160925   4.213   2.433  14.123 -0.6942 -0.3152 -0.1710
13170TIP3    H260926   4.098   2.404  14.216  0.0846  0.6947  1.1297
13171TIP3   OH260927   1.076   2.682   1.797  0.2185 -0.1120 -0.6278
13171TIP3    H160928   1.114   2.758   1.841  3.7141 -2.1066  0.0089
13171TIP3    H260929   1.041   2.716   1.715 -0.8434  2.6418  0.9396
13172TIP3   OH260930   0.298   2.082  11.691 -0.5229  0.0684 -0.4264
13172TIP3    H160931   0.391   2.092  11.712 -0.4041 -0.3693 -0.7339
13172TIP3    H260932   0.294   2.090  11.596 -1.1099  2.4319 -0.2244
13173TIP3   OH260933   5.719   5.373   5.399  0.1155  0.0046  0.3908
13173TIP3    H160934   5.749   5.395   5.311  0.2500  2.5116  1.0178
13173TIP3    H260935   5.791   5.323   5.437  1.5003  1.7495  0.1822
13174TIP3   OH260936   1.605   3.861   1.413  0.4062  0.2615  0.8014
13174TIP3    H160937   1.609   3.772   1.377 -3.1368  0.0027  0.8814
13174TIP3    H260938   1.685   3.869   1.464  1.6389 -2.2548 -0.6027
13175TIP3   OH260939   6.671   3.441   2.333  0.5578  0.4454  0.1772
13175TIP3    H160940   6.672   3.536   2.339  1.3911  0.4810 -0.4616
13175TIP3    H260941   6.640   3.422   2.245 -2.9168  0.0568  1.4172
13176TIP3   OH260942   0.781   3.380   2.132  0.1792  0.3075 -0.2088
13176TIP3    H160943   0.804   3.299   2.086  0.9521 -0.0951  0.8707
13176TIP3    H260944   0.688   3.372   2.151  0.3141 -0.4291  0.1203
13177TIP3   OH260945   2.201   0.842   5.148 -0.3361 -0.1829  0.0579
13177TIP3    H160946   2.229   0.933   5.162  0.7874 -0.5514  0.2994
13177TIP3    H260947   2.258   0.811   5.077 -2.4676  0.0872 -1.8440
13178TIP3   OH260948   4.011   2.629  16.122 -0.1415 -0.0554  0.1503
13178TIP3    H160949   4.004   2.542  16.160 -1.5252 -0.1812 -0.3646
13178TIP3    H260950   4.044   2.684  16.194  0.1471 -0.8723  0.6457
13179TIP3   OH260951   6.059   3.142  14.033 -0.7724  0.1015 -0.0364
13179TIP3    H160952   6.112   3.219  14.051 -0.8680 -0.0404  0.8705
13179TIP3    H260953   5.973   3.163  14.070 -0.3627 -1.0600  1.6756
13180TIP3   OH260954   1.354   0.530   3.906 -0.4827 -0.1409  0.6683
13180TIP3    H160955   1.444   0.549   3.877 -1.4544  0.5131 -2.0841
13180TIP3    H260956   1.346   0.435   3.898 -0.5426 -0.0280 -0.6136
13181TIP3   OH260957   3.767   6.325  16.390 -0.2622  0.3929 -0.4233
13181TIP3    H160958   3.816   6.246  16.367  0.8368  0.4082  1.6778
13181TIP3    H260959   3.703   6.295  16.455 -0.6512  1.0228 -0.5099
13182TIP3   OH260960   1.137   4.852   1.339 -0.0905  0.0427  0.1600
13182TIP3    H160961   1.172   4.905   1.268 -1.1447  0.6197  0.0521
13182TIP3    H260962   1.099   4.775   1.296 -2.0635  1.1092 -0.0687
13183TIP3   OH260963   0.367   3.669   4.910  0.1575 -0.3205  0.4402
13183TIP3    H160964   0.431   3.708   4.970 -0.1779 -2.3811  2.1907
13183TIP3    H260965   0.418   3.643   4.833  0.4723  3.0032 -0.5520
13184TIP3   OH260966   2.802   1.853  12.191  0.1432  0.3581  0.1864
13184TIP3    H160967   2.717   1.842  12.233 -0.2201  1.0919 -0.3644
13184TIP3    H260968   2.784   1.850  12.097  0.4480  2.6131  0.0453
13185TIP3   OH260969   1.102   5.242  14.035  0.1171  0.5308 -0.0216
13185TIP3    H160970   1.161   5.167  14.031  0.3284  0.6117  1.2524
13185TIP3    H260971   1.038   5.218  14.102 -0.0443  1.3326  0.1177
13186TIP3   OH260972   6.539   1.271   3.625  0.0953 -0.0490 -0.5731
13186TIP3    H160973   6.574   1.293   3.712  1.6585  0.7972 -1.3911
13186TIP3    H260974   6.578   1.336   3.567 -4.9893  2.7172 -1.1794
13187TIP3   OH260975   4.629   3.894  15.064 -0.0126  0.0136 -0.5183
13187TIP3    H160976   4.600   3.981  15.089 -2.0518 -0.5951 -0.6619
13187TIP3    H260977   4.604   3.838  15.137  1.0749 -0.4786 -0.5223
13188TIP3   OH260978   1.955   2.315  16.780 -0.2200 -0.1819  0.1671
13188TIP3    H160979   1.880   2.259  16.801 -0.5302  0.0984 -0.1854
13188TIP3    H260980   1.935   2.350  16.693 -0.4019  1.1191  0.7317
13189TIP3   OH260981   0.555   2.788  12.338  0.1276  0.0627 -0.2029
13189TIP3    H160982   0.493   2.861  12.328  0.8294  0.8300  0.8869
13189TIP3    H260983   0.640   2.830  12.346  0.4398 -0.8223  1.3501
13190TIP3   OH260984   1.360   1.348  15.449  0.3698 -0.7773  0.2557
13190TIP3    H160985   1.419   1.377  15.379 -0.1350  1.4211  0.6896
13190TIP3    H260986   1.342   1.428  15.498 -1.1094 -1.8826  1.5244
13191TIP3   OH260987   6.030   2.490  15.322 -0.2443  0.9618 -0.3515
13191TIP3    H160988   5.959   2.443  15.278  0.7847 -0.7987 -0.1796
13191TIP3    H260989   6.066   2.547  15.254 -0.9334  0.8583 -0.8119
13192TIP3   OH260990   5.442   0.961  13.577 -0.3663  0.2748 -0.7284
13192TIP3    H160991   5.509   0.898  13.552  0.2661  0.0401  1.3847
13192TIP3    H260992   5.451   0.968  13.672 -1.8207  1.9745 -0.6888
13193TIP3   OH260993   6.328   2.242  11.738  0.0876 -0.1622 -0.0077
13193TIP3    H160994   6.268   2.302  11.693  0.2727 -1.7098 -2.4320
13193TIP3    H260995   6.352   2.178  11.671 -0.1613 -3.0028  2.4971
13194TIP3   OH260996   5.865   5.159   3.372  0.0185  0.0273 -0.3497
13194TIP3    H160997   5.852   5.243   3.327  0.9950  0.6244  0.4306
13194TIP3    H260998   5.907   5.184   3.454 -0.1757 -1.1976  0.1209
13195TIP3   OH260999   1.955   3.329   0.572  0.0683 -0.2446 -0.2790
13195TIP3    H161000   1.897   3.372   0.635 -0.6838  1.0150 -1.8109
13195TIP3    H261001   2.028   3.297   0.625 -0.1480  1.5159  1.1199
13196TIP3   OH261002   3.717   6.518   0.321  0.4917 -0.4563 -0.3834
13196TIP3    H161003   3.659   6.460   0.370 -1.7076  1.2223 -0.8988
13196TIP3    H261004   3.667   6.541   0.243  1.3059  2.0920 -0.2020
13197TIP3   OH261005   1.935   0.763  16.059 -0.0261 -0.1825 -0.4405
13197TIP3    H161006   1.912   0.704  15.986  0.7997  0.4963 -1.2528
13197TIP3    H261007   1.855   0.812  16.076 -0.6109 -1.2542 -0.0092
13198TIP3   OH261008   3.220   2.369  15.510 -0.2273  0.1093 -0.1857
13198TIP3    H161009   3.176   2.454  15.513  2.1961  1.4714 -1.7017
13198TIP3    H261010   3.191   2.331  15.427 -2.8215 -1.4797  1.3482
13199TIP3   OH261011   6.039   6.695  15.840 -0.3225 -0.3072 -1.0496
13199TIP3    H161012   6.005   6.606  15.847  0.7821 -0.6113  1.0745
13199TIP3    H261013   5.992   6.744  15.908  2.2065 -0.3696  0.8311
13200TIP3   OH261014   2.128   3.075  14.556 -0.2355  0.0714  0.1575
13200TIP3    H161015   2.153   3.009  14.620 -1.3830 -1.4350 -0.9154
13200TIP3    H261016   2.163   3.043  14.473  0.9466  1.8392 -0.0599
13201TIP3   OH261017   5.082   1.668  13.003 -0.4388  0.0604 -0.0204
13201TIP3    H161018   5.031   1.746  13.023 -2.5550 -0.9358 -1.3556
13201TIP3    H261019   5.064   1.608  13.076  1.6858  1.0016  1.3336
13202TIP3   OH261020   4.023   2.185  15.640 -0.2437  0.4161 -0.1293
13202TIP3    H161021   3.930   2.197  15.623 -0.5350  0.2979  1.3209
13202TIP3    H261022   4.029   2.100  15.682  0.6868 -0.1834 -1.4298
13203TIP3   OH261023   3.736   2.239  12.172  0.1144 -0.3542  0.1211
13203TIP3    H161024   3.730   2.144  12.161  1.3528 -0.2898 -1.3863
13203TIP3    H261025   3.792   2.268  12.099  0.8425  1.3704  1.3215
13204TIP3   OH261026   6.452   2.625  16.913 -0.1629 -0.4856 -0.2536
13204TIP3    H161027   6.457   2.563  16.840  0.4678 -0.5310 -0.1658
13204TIP3    H261028   6.362   2.658  16.909 -0.4471 -1.2700 -0.4102
13205TIP3   OH261029   6.757   1.859   2.140 -0.4913  0.2421  0.7643
13205TIP3    H161030   6.737   1.866   2.233  1.4289 -1.6019  1.3252
13205TIP3    H261031   6.824   1.791   2.133 -0.1714  0.7418 -1.9052
13206TIP3   OH261032   2.384   1.188   0.539  0.2806  0.0534  0.2511
13206TIP3    H161033   2.386   1.094   0.555 -0.4202 -0.4144 -2.2059
13206TIP3    H261034   2.407   1.227   0.623  0.9576 -2.3108  1.2037
13207TIP3   OH261035   1.317   6.121   4.830  0.2297  0.4088  0.3175
13207TIP3    H161036   1.259   6.077   4.767  1.0309 -0.3633  0.1024
13207TIP3    H261037   1.262   6.136   4.907 -0.0634 -0.9796  0.3941
13208TIP3   OH261038   4.816   5.763  11.610  0.2122 -0.0670 -0.0380
13208TIP3    H161039   4.872   5.833  11.577 -0.5498 -0.5146 -2.4268
13208TIP3    H261040   4.870   5.715  11.672  1.2120  1.7562  0.5308
13209TIP3   OH261041   0.656   4.541   6.297  0.0337 -0.0768  0.7573
13209TIP3    H161042   0.703   4.548   6.380  2.7358  2.2294 -0.8817
13209TIP3    H261043   0.723   4.517   6.233 -1.6775 -0.1646 -1.0811
13210TIP3   OH261044   2.815   1.226  14.206  0.0736  0.1400 -0.0751
13210TIP3    H161045   2.828   1.138  14.243 -0.3102 -0.1826 -0.6942
13210TIP3    H261046   2.876   1.229  14.133 -0.2269  0.2274 -0.3231
13211TIP3   OH261047   3.761   6.314   0.815 -0.1174  0.0105 -0.0426
13211TIP3    H161048   3.716   6.262   0.883 -1.7072 -0.6925 -1.5891
13211TIP3    H261049   3.813   6.250   0.767  0.5058  0.4010  0.1150
13212TIP3   OH261050   2.023   1.179   1.237 -0.3597 -0.7162 -0.2307
13212TIP3    H161051   1.998   1.165   1.328 -2.5457  1.1048 -0.4993
13212TIP3    H261052   2.074   1.259   1.238 -2.4580  0.6853 -0.8679
13213TIP3   OH261053   1.417   4.864  14.856 -0.9161 -0.0437  0.0671
13213TIP3    H161054   1.428   4.958  14.850 -3.3625  0.1623 -1.6868
13213TIP3    H261055   1.425   4.833  14.766  2.2285 -1.8462  0.8686
13214TIP3   OH261056   5.778   2.408   5.358 -0.3941 -0.0383  0.2773
13214TIP3    H161057   5.721   2.396   5.282 -0.3611 -0.5594  0.3279
13214TIP3    H261058   5.748   2.489   5.399 -1.0689 -0.2770  0.2722
13215TIP3   OH261059   4.346   4.411   5.561  0.0672 -0.1878 -0.1233
13215TIP3    H161060   4.362   4.390   5.653 -2.0537 -0.8390  0.1286
13215TIP3    H261061   4.433   4.428   5.524  1.0160 -0.8201  1.7726
13216TIP3   OH261062   1.366   3.515  11.878  0.4755  0.1873  0.0557
13216TIP3    H161063   1.292   3.566  11.911  0.2624  0.2679 -0.5451
13216TIP3    H261064   1.379   3.447  11.944 -1.6150 -1.2220 -0.9297
13217TIP3   OH261065   3.865   3.972  16.387  0.0244 -0.0986  0.3195
13217TIP3    H161066   3.934   3.908  16.371 -0.5107 -0.5684 -0.1387
13217TIP3    H261067   3.787   3.919  16.405 -1.0297  0.3911 -2.5507
13218TIP3   OH261068   1.348   0.204   5.307 -1.0471 -0.0807 -0.1625
13218TIP3    H161069   1.293   0.262   5.361 -0.6797 -1.2126  1.4501
13218TIP3    H261070   1.289   0.133   5.281 -1.2026  0.4174 -1.2296
13219TIP3   OH261071   2.550   1.572   4.783  0.0345  0.0023  0.5225
13219TIP3    H161072   2.544   1.534   4.871 -0.1926  0.8260  0.8636
13219TIP3    H261073   2.644   1.574   4.765  0.0067 -1.7816  0.0257
13220TIP3   OH261074   2.957   5.496   4.773  0.1267 -0.3629  0.1246
13220TIP3    H161075   3.045   5.461   4.781  0.4761 -0.0245 -1.8043
13220TIP3    H261076   2.969   5.587   4.744 -0.8350 -0.2174  0.1416
13221TIP3   OH261077   1.048   3.720  14.978  0.0436  0.1018  0.0017
13221TIP3    H161078   1.073   3.678  14.895 -0.4347 -0.5593  0.1921
13221TIP3    H261079   0.956   3.694  14.991  0.4914 -0.8510  1.3886
13222TIP3   OH261080   5.994   3.152  13.317  0.0672  0.3374  0.2833
13222TIP3    H161081   6.008   3.058  13.305  0.2273  0.3584  0.3076
13222TIP3    H261082   6.067   3.180  13.373  2.3350  1.2622 -3.0226
13223TIP3   OH261083   0.835   2.495  15.046 -0.6781  0.0280  0.0058
13223TIP3    H161084   0.916   2.515  14.999  0.1321 -0.6846  1.0769
13223TIP3    H261085   0.803   2.415  15.005 -1.6260  1.1261 -1.4026
13224TIP3   OH261086   0.271   4.517  11.414  0.2829 -0.0156 -0.4311
13224TIP3    H161087   0.330   4.469  11.472  1.5171 -0.6803 -2.2084
13224TIP3    H261088   0.303   4.608  11.417  3.2644 -0.8713 -3.5942
13225TIP3   OH261089   1.565   4.607  16.432  0.6116 -0.0351  0.2400
13225TIP3    H161090   1.495   4.580  16.372  0.2659 -1.3252  1.2029
13225TIP3    H261091   1.556   4.703  16.437  0.3561  0.0532 -1.3902
13226TIP3   OH261092   0.932   1.113  12.725 -0.4423  0.8719 -0.2932
13226TIP3    H161093   0.864   1.079  12.666  0.5108 -0.5899 -0.5824
13226TIP3    H261094   0.953   1.199  12.691  0.3109 -0.0748 -2.3254
13227TIP3   OH261095   0.797   4.508  13.550  0.5686 -0.2343  0.3396
13227TIP3    H161096   0.847   4.440  13.594 -1.0421 -0.8320  1.2597
13227TIP3    H261097   0.742   4.461  13.487  1.3235  0.4439 -0.8679
13228TIP3   OH261098   5.574   3.958  13.116 -0.0187  0.6964  0.3963
13228TIP3    H161099   5.597   3.886  13.174 -0.0171 -1.0631 -1.7242
13228TIP3    H261100   5.496   3.997  13.156 -0.6282 -1.1282  1.0354
13229TIP3   OH261101   6.351   3.001   2.048  0.4908 -0.0246 -0.4042
13229TIP3    H161102   6.313   3.085   2.024 -1.0807 -0.9561 -1.3018
13229TIP3    H261103   6.345   2.999   2.144  1.2143  1.1726 -0.3234
13230TIP3   OH261104   6.341   5.114  12.402  0.3654  0.5157  0.4269
13230TIP3    H161105   6.402   5.097  12.330 -0.7945 -0.9398 -0.2547
13230TIP3    H261106   6.265   5.154  12.359  0.3891  1.2736  1.1003
13231TIP3   OH261107   0.583   3.531   2.463  1.0405 -0.2501  0.4057
13231TIP3    H161108   0.539   3.460   2.417 -0.8420  0.8709  0.4172
13231TIP3    H261109   0.604   3.595   2.396  3.4453 -1.1140  0.2720
13232TIP3   OH261110   3.309   5.222  15.780  0.4176 -0.5438  0.2416
13232TIP3    H161111   3.340   5.172  15.856 -0.9617  0.7459  1.6784
13232TIP3    H261112   3.222   5.253  15.805  0.2260  0.4802 -1.6090
13233TIP3   OH261113   4.902   3.776  16.275  0.2359  0.7779  0.1228
13233TIP3    H161114   4.832   3.759  16.212  1.3689 -1.2532 -0.6474
13233TIP3    H261115   4.870   3.739  16.357 -0.7413  2.3621  0.4776
13234TIP3   OH261116   6.001   1.348   4.510 -0.1776 -0.3235  0.2467
13234TIP3    H161117   6.007   1.417   4.444 -0.9463  0.5861  1.0999
13234TIP3    H261118   5.912   1.315   4.503  0.4910 -1.9369 -0.8263
13235TIP3   OH261119   1.712   0.757   5.424  0.8777 -0.2128 -0.2440
13235TIP3    H161120   1.715   0.665   5.450  1.1432  0.1790  1.1449
13235TIP3    H261121   1.624   0.786   5.446  0.7295 -0.1796 -0.8630
13236TIP3   OH261122   0.774   0.979   4.457 -0.3142 -0.2192 -0.0863
13236TIP3    H161123   0.685   0.991   4.491 -0.4206  0.0157 -0.4409
13236TIP3    H261124   0.802   1.068   4.434 -0.4378 -0.4469 -1.1016
13237TIP3   OH261125   1.676   1.730  15.470 -0.1326 -0.0433  0.5594
13237TIP3    H161126   1.599   1.783  15.489 -0.1862  0.2711 -0.5037
13237TIP3    H261127   1.743   1.762  15.531  0.3797  2.4658 -1.2514
13238TIP3   OH261128   4.937   3.019  15.402  0.2279 -0.6871  0.2487
13238TIP3    H161129   4.937   3.005  15.307  0.6899 -1.4774  0.3611
13238TIP3    H261130   4.899   2.939  15.438  3.0432 -1.8090  0.9055
13239TIP3   OH261131   3.195   1.662   4.153 -0.4127  0.6339 -0.4331
13239TIP3    H161132   3.120   1.678   4.210 -0.3042  2.1391 -0.7015
13239TIP3    H261133   3.178   1.575   4.115 -0.2817 -0.5470  2.1496
13240TIP3   OH261134   0.745   4.855  11.494 -0.2699  0.0993  0.0991
13240TIP3    H161135   0.824   4.808  11.522 -1.1824 -1.6199 -0.1141
13240TIP3    H261136   0.778   4.932  11.447  1.2661  0.5624  1.8911
13241TIP3   OH261137   3.563   5.345  14.321  0.0039  0.1365  0.6022
13241TIP3    H161138   3.544   5.252  14.329 -2.5775  0.5625 -0.0256
13241TIP3    H261139   3.541   5.366  14.231 -1.3302  1.7555  1.2904
13242TIP3   OH261140   5.102   2.493  12.730 -0.2557 -0.0300 -0.4001
13242TIP3    H161141   5.166   2.544  12.681 -0.4913  0.3262 -0.3385
13242TIP3    H261142   5.060   2.436  12.665  0.0646 -0.2065 -0.4521
13243TIP3   OH261143   4.256   6.310   0.152 -0.8870  0.0710 -0.3009
13243TIP3    H161144   4.217   6.237   0.103  0.2975 -0.4623 -0.4500
13243TIP3    H261145   4.320   6.348   0.092 -0.8794  0.6955  0.0939
13244TIP3   OH261146   1.459   0.459   4.583 -0.5246  0.0454  0.1157
13244TIP3    H161147   1.531   0.501   4.536 -1.6796  0.3442 -1.4156
13244TIP3    H261148   1.423   0.528   4.639 -1.4806  0.7031 -1.2999
13245TIP3   OH261149   1.655   0.564   6.048 -0.0885 -0.3225 -0.5220
13245TIP3    H161150   1.694   0.550   6.135 -1.0829 -1.4426 -0.2368
13245TIP3    H261151   1.725   0.602   5.996  1.2390 -1.8402  0.1238
13246TIP3   OH261152   3.979   4.783   1.415 -0.2066 -0.3926 -0.5138
13246TIP3    H161153   4.021   4.701   1.388 -0.8446 -0.9190  0.0877
13246TIP3    H261154   4.051   4.846   1.419  0.4990 -1.2440  0.3226
13247TIP3   OH261155   0.839   0.560  13.150  0.2279  0.1364 -0.1731
13247TIP3    H161156   0.806   0.628  13.090 -0.0019 -1.3080 -1.7224
13247TIP3    H261157   0.867   0.489  13.092  0.6996 -0.9947  1.4204
13248TIP3   OH261158   6.458   0.601  16.261  0.1260 -0.6914  0.1770
13248TIP3    H161159   6.399   0.653  16.316 -0.1471 -1.1371  0.3150
13248TIP3    H261160   6.529   0.576  16.319  0.0850 -0.7520  0.2023
13249TIP3   OH261161   1.436   5.842   5.795  0.1541 -0.0583  0.4103
13249TIP3    H161162   1.429   5.871   5.704  0.8419 -0.6832  0.1531
13249TIP3    H261163   1.528   5.822   5.807  0.3247  1.4319  1.6946
13250TIP3   OH261164   1.303   3.234   6.024 -0.1953 -0.3978  0.1772
13250TIP3    H161165   1.259   3.150   6.010  0.2587 -0.6587  0.2892
13250TIP3    H261166   1.371   3.215   6.088  0.3911 -0.1099 -0.3542
13251TIP3   OH261167   1.376   4.150   1.967  0.2617  0.4216 -0.1394
13251TIP3    H161168   1.431   4.101   1.905  1.7311  0.5690  1.0137
13251TIP3    H261169   1.310   4.086   1.996 -0.4756  0.3735 -1.8866
13252TIP3   OH261170   2.952   3.225  11.657  0.0743  0.5398 -0.4924
13252TIP3    H161171   3.032   3.247  11.705  0.0593 -0.2145 -0.1078
13252TIP3    H261172   2.968   3.256  11.568  1.7079 -1.5614 -0.9816
13253TIP3   OH261173   3.782   0.374  11.200  0.2791 -0.5058  0.2672
13253TIP3    H161174   3.875   0.390  11.185  0.4445  0.1456  1.9151
13253TIP3    H261175   3.770   0.282  11.179  1.4324 -0.7596  0.6942
13254TIP3   OH261176   0.818   3.039   2.530 -0.8574 -0.1439 -0.2900
13254TIP3    H161177   0.783   2.953   2.507 -1.1586 -0.0380 -0.2246
13254TIP3    H261178   0.895   3.049   2.474  1.4335 -2.0780  2.3686
13255TIP3   OH261179   2.217   6.094  15.345  0.0903 -0.1691 -0.3253
13255TIP3    H161180   2.230   6.026  15.411  0.1280 -0.2910 -0.4580
13255TIP3    H261181   2.157   6.156  15.386  2.1045  1.0725  0.7732
13256TIP3   OH261182   4.706   5.788  14.866 -0.5582 -0.0302  0.2626
13256TIP3    H161183   4.697   5.694  14.882 -0.6510 -0.7884 -3.8490
13256TIP3    H261184   4.797   5.799  14.839 -0.9472  0.7869 -0.7554
13257TIP3   OH261185   3.454   3.602  16.562 -0.3163 -0.0119 -0.3983
13257TIP3    H161186   3.513   3.637  16.495  0.3708 -1.5987 -0.6469
13257TIP3    H261187   3.423   3.519  16.526 -0.1505 -0.7514  1.1066
13258TIP3   OH261188   6.610   5.889   0.004 -0.2654  0.2444 -0.4073
13258TIP3    H161189   6.640   5.934   0.083 -0.4499 -0.5004  0.0922
13258TIP3    H261190   6.592   5.800   0.033  0.8003 -0.3566 -1.5605
13259TIP3   OH261191   5.709   3.107  13.290 -0.1905  0.6694  0.2968
13259TIP3    H161192   5.794   3.139  13.259 -0.1126 -0.3422 -0.5914
13259TIP3    H261193   5.728   3.066  13.374 -0.1995  2.4520  1.1782
13260TIP3   OH261194   2.746   0.744  13.215 -0.3445  0.3708 -0.1907
13260TIP3    H161195   2.833   0.719  13.183 -0.4733  0.4990 -0.6543
13260TIP3    H261196   2.728   0.828  13.172  0.2957  1.5311  1.7488
13261TIP3   OH261197   5.591   4.884   5.795 -0.0838 -0.2614  0.0045
13261TIP3    H161198   5.559   4.895   5.705  1.2326 -1.5538 -0.6315
13261TIP3    H261199   5.667   4.827   5.787  1.4887  1.5183  1.6743
13262TIP3   OH261200   5.635   1.869   6.623  0.1793 -0.1049 -0.3232
13262TIP3    H161201   5.650   1.895   6.714  3.1922 -0.5741 -0.6080
13262TIP3    H261202   5.627   1.951   6.575  1.3202  0.1969 -0.0108
13263TIP3   OH261203   3.666   4.243   4.810 -0.0699 -0.1343 -0.1405
13263TIP3    H161204   3.733   4.175   4.802  0.3570  0.2947 -0.2537
13263TIP3    H261205   3.673   4.272   4.901 -0.4760 -0.4648  0.0015
13264TIP3   OH261206   2.734   1.632   1.818 -0.0575 -0.1294  0.5739
13264TIP3    H161207   2.715   1.539   1.825 -0.7450  0.1763  2.9986
13264TIP3    H261208   2.649   1.675   1.819  0.2046  0.5315 -1.2873
13265TIP3   OH261209   5.052   3.972   4.530  0.0156  0.2092  0.7595
13265TIP3    H161210   5.047   3.879   4.552  0.5500 -0.0494 -0.2134
13265TIP3    H261211   4.998   4.015   4.597  1.7359 -0.5488  2.6753
13266TIP3   OH261212   2.273   1.918  13.687  0.5340 -0.5820  0.8992
13266TIP3    H161213   2.322   1.936  13.607 -2.1848  2.4110 -0.1911
13266TIP3    H261214   2.206   1.855  13.660  0.2980 -0.4106  1.0871
13267TIP3   OH261215   4.685   0.892  15.600  0.9285 -0.3635  0.0804
13267TIP3    H161216   4.711   0.876  15.509 -0.2760  0.6464 -0.4623
13267TIP3    H261217   4.630   0.970  15.595 -0.5105 -1.2658  1.4591
13268TIP3   OH261218   4.926   6.016  14.272 -0.2267 -0.4902  0.3489
13268TIP3    H161219   4.859   5.963  14.315  0.0862 -1.5359 -0.4313
13268TIP3    H261220   4.917   6.103  14.311 -0.2495 -1.3008  2.1834
13269TIP3   OH261221   2.722   5.116  15.390  0.3211  0.3130  0.6942
13269TIP3    H161222   2.757   5.156  15.310  0.1412 -1.6649 -0.4337
13269TIP3    H261223   2.798   5.074  15.430  0.5135  1.7523  1.8685
13270TIP3   OH261224   5.557   0.292   4.116  0.0201  0.3100 -0.0965
13270TIP3    H161225   5.603   0.218   4.078 -0.1921  0.6581 -1.0335
13270TIP3    H261226   5.553   0.358   4.046 -0.7461  0.7858  0.3774
13271TIP3   OH261227   6.616   5.939  15.695 -0.2821 -0.0868 -0.0074
13271TIP3    H161228   6.628   5.860  15.749  1.5291  0.0769 -0.1583
13271TIP3    H261229   6.551   5.990  15.743 -1.6205 -1.7390  0.0081
13272TIP3   OH261230   2.166   2.975  13.632 -0.2652 -0.5355 -0.3938
13272TIP3    H161231   2.125   2.889  13.646  1.0313 -1.1247 -0.1287
13272TIP3    H261232   2.093   3.037  13.634 -1.0382 -1.4605  1.0290
13273TIP3   OH261233   1.851   0.503   0.591  0.2608  0.4644  0.4038
13273TIP3    H161234   1.790   0.576   0.601  0.3810  0.7521 -0.8728
13273TIP3    H261235   1.937   0.540   0.609  0.4170  0.8515 -1.0936
13274TIP3   OH261236   4.364   3.903   3.383 -0.8105 -0.2821  0.3178
13274TIP3    H161237   4.371   3.840   3.454  1.8073  0.1918  0.5317
13274TIP3    H261238   4.382   3.988   3.424  0.6255  0.0095 -0.8354
13275TIP3   OH261239   2.059   0.047  14.826  0.0988  0.4676  0.1338
13275TIP3    H161240   2.051   0.040  14.921 -1.0553 -0.6859 -0.0301
13275TIP3    H261241   2.152   0.059  14.810  0.2657  0.9407  1.4289
13276TIP3   OH261242   5.374   1.360   0.357  0.1796  0.5018  0.0426
13276TIP3    H161243   5.279   1.368   0.359 -0.3251 -4.0406  0.6412
13276TIP3    H261244   5.396   1.364   0.264 -0.8370 -0.1295 -0.2367
13277TIP3   OH261245   3.880   1.278  13.156 -0.0660  0.7710 -0.5968
13277TIP3    H161246   3.889   1.306  13.064  2.4637  2.4565  0.1159
13277TIP3    H261247   3.961   1.307  13.198  0.0794 -2.5635  1.5616
13278TIP3   OH261248   1.145   1.208  11.896 -0.3045  0.2058  0.1648
13278TIP3    H161249   1.202   1.274  11.856  0.7308 -0.7681  0.0100
13278TIP3    H261250   1.067   1.257  11.921  1.2504  1.8943  1.8966
13279TIP3   OH261251   0.736   5.344  14.399  0.3054 -0.0317 -0.2903
13279TIP3    H161252   0.662   5.292  14.431  0.1580  0.4251  0.1131
13279TIP3    H261253   0.701   5.396  14.327  1.1051 -2.5590 -2.5863
13280TIP3   OH261254   4.526   1.027  10.599 -0.0327 -0.0651 -0.0807
13280TIP3    H161255   4.566   1.039  10.685 -0.8520 -1.8245  0.5780
13280TIP3    H261256   4.559   0.942  10.569  0.5243  0.7003 -1.6681
13281TIP3   OH261257   2.847   0.376   4.377 -0.0753 -0.0468  0.0620
13281TIP3    H161258   2.902   0.446   4.412  0.9855 -0.9279  0.1854
13281TIP3    H261259   2.768   0.420   4.347  0.8976  1.3109 -0.5491
13282TIP3   OH261260   0.695   5.361  15.037  0.1827 -0.7643 -0.5891
13282TIP3    H161261   0.613   5.339  14.994 -0.5811  0.6921  0.0669
13282TIP3    H261262   0.729   5.278  15.070 -3.1377 -0.9143  2.7962
13283TIP3   OH261263   2.173   4.947  13.951 -0.3184  0.0599  0.2932
13283TIP3    H161264   2.206   4.889  14.019  0.3961  0.9817  0.7439
13283TIP3    H261265   2.166   5.033  13.994 -1.0349  0.3883 -0.4575
13284TIP3   OH261266   1.192   4.993   3.467  0.1282 -0.0433  1.0938
13284TIP3    H161267   1.230   4.934   3.532  0.4894  0.4011  1.2881
13284TIP3    H261268   1.164   5.070   3.518  1.5136  0.8299  0.5604
13285TIP3   OH261269   3.708   1.533   5.309  0.4769 -0.3720 -0.3883
13285TIP3    H161270   3.623   1.500   5.280 -0.6683  2.9771 -1.1471
13285TIP3    H261271   3.716   1.505   5.400 -2.1696  0.5126  0.1506
13286TIP3   OH261272   0.214   3.443  11.483  0.2074  0.2054  0.4183
13286TIP3    H161273   0.250   3.518  11.434 -1.5275  0.9808  0.3059
13286TIP3    H261274   0.239   3.460  11.574  0.5361  0.4891  0.2795
13287TIP3   OH261275   6.681   3.663  11.278  0.2341 -0.1775 -0.0247
13287TIP3    H161276   6.674   3.758  11.274 -0.0581 -0.1856  0.2740
13287TIP3    H261277   6.739   3.640  11.205 -0.4352  0.1455 -0.6637
13288TIP3   OH261278   6.197   6.324   1.967  0.4640 -0.0567  0.5884
13288TIP3    H161279   6.237   6.260   1.908 -1.2232 -0.5718 -0.0415
13288TIP3    H261280   6.227   6.409   1.936 -1.3911 -0.2456 -1.8185
13289TIP3   OH261281   4.418   4.237  11.795  0.1757  0.4719  0.8114
13289TIP3    H161282   4.349   4.185  11.837 -0.5992  1.4534  0.7524
13289TIP3    H261283   4.427   4.314  11.850  1.1746  0.3928  0.7704
13290TIP3   OH261284   2.480   3.770  15.404  0.2489 -0.0202  0.1256
13290TIP3    H161285   2.388   3.797  15.409  0.1460  0.1776 -2.1281
13290TIP3    H261286   2.476   3.675  15.399  0.2827 -0.1282  1.9241
13291TIP3   OH261287   0.470   0.021   0.362 -0.0110  0.1429  0.5360
13291TIP3    H161288   0.520  -0.059   0.374 -1.3091 -0.8198 -0.3347
13291TIP3    H261289   0.379  -0.008   0.353 -0.1481  1.4148 -3.0212
13292TIP3   OH261290   4.583   3.761   4.276 -0.2324 -0.2135 -0.5721
13292TIP3    H161291   4.552   3.748   4.187  1.3837 -3.8670 -0.6748
13292TIP3    H261292   4.663   3.812   4.266  1.1676 -2.4935 -1.4780
13293TIP3   OH261293   0.895   4.244  11.386  0.0961 -0.0554 -0.3811
13293TIP3    H161294   0.950   4.167  11.372 -1.4812 -1.0203 -1.4692
13293TIP3    H261295   0.953   4.308  11.428  2.2663 -0.7176 -2.2926
13294TIP3   OH261296   4.705   0.635  13.811 -0.2141  0.3779 -0.6891
13294TIP3    H161297   4.614   0.615  13.830  0.3478 -0.9095  0.7020
13294TIP3    H261298   4.721   0.595  13.725 -0.5728 -0.5879 -0.3043
13295TIP3   OH261299   4.414   4.443   6.227  0.3613 -0.0848  0.1164
13295TIP3    H161300   4.353   4.513   6.248  1.3935  0.7594  0.3174
13295TIP3    H261301   4.362   4.381   6.176 -0.2614  1.4253 -1.1356
13296TIP3   OH261302   3.887   6.475  16.721 -0.5805  0.1685 -0.1688
13296TIP3    H161303   3.829   6.551  16.712 -0.0941  1.0685  3.6370
13296TIP3    H261304   3.970   6.511  16.750 -0.2375 -1.7591  1.3590
13297TIP3   OH261305   1.788   1.489  12.768 -0.1734  0.0930  0.4747
13297TIP3    H161306   1.834   1.504  12.850 -1.0198  0.6936  0.8526
13297TIP3    H261307   1.739   1.408  12.782 -0.4173  0.2616  0.6229
13298TIP3   OH261308   0.601   0.768  15.178 -0.3526 -0.6520 -0.0217
13298TIP3    H161309   0.602   0.832  15.107 -1.1781 -0.9740 -0.3360
13298TIP3    H261310   0.513   0.775  15.215  0.2590 -0.0963  1.3401
13299TIP3   OH261311   0.186   0.123  13.375  0.2418  0.8213 -0.6507
13299TIP3    H161312   0.227   0.203  13.342 -0.2719  1.6008  0.5684
13299TIP3    H261313   0.254   0.080  13.426  0.1012  1.1615 -0.1829
13300TIP3   OH261314   2.065   0.808  13.651 -0.4303 -0.3494 -0.1157
13300TIP3    H161315   2.105   0.838  13.733 -0.2174 -1.5537  0.2375
13300TIP3    H261316   2.018   0.884  13.618  0.7888  0.6108  0.3084
13301TIP3   OH261317   2.181   0.785  17.176 -0.1950 -0.3535  0.3480
13301TIP3    H161318   2.145   0.768  17.263 -2.1941 -1.2091 -0.6270
13301TIP3    H261319   2.209   0.700  17.144  0.6660 -0.0206  0.1785
13302TIP3   OH261320   2.395   5.018  10.983 -0.3076  0.1359 -0.1746
13302TIP3    H161321   2.309   4.985  10.956  0.0296  0.7431 -2.0274
13302TIP3    H261322   2.457   4.957  10.945  0.1232 -0.1626  0.9683
13303TIP3   OH261323   3.695   1.742   5.086  0.2679  0.3868  0.2381
13303TIP3    H161324   3.668   1.791   5.163 -0.1077 -0.1246  0.4318
13303TIP3    H261325   3.738   1.664   5.121 -2.3523 -1.2487 -0.0261
13304TIP3   OH261326   1.098   5.155   1.012 -0.5370  0.8116  0.2914
13304TIP3    H161327   1.012   5.193   0.995 -1.0484 -0.6978 -0.6221
13304TIP3    H261328   1.160   5.226   0.995 -1.4473  1.1431 -1.7866
13305TIP3   OH261329   2.717   4.332  13.538  0.4925  0.7175 -0.0144
13305TIP3    H161330   2.644   4.327  13.476  1.1489  0.3272 -0.7569
13305TIP3    H261331   2.689   4.277  13.611 -0.8075  2.1573  0.5918
13306TIP3   OH261332   3.658   6.505  15.707  0.2963  0.4539 -0.8703
13306TIP3    H161333   3.729   6.568  15.721 -0.8169  1.2939  1.2767
13306TIP3    H261334   3.603   6.545  15.640  0.6631  0.8409 -0.9432
13307TIP3   OH261335   6.621   3.879   3.115 -0.4030  0.9604  0.0883
13307TIP3    H161336   6.582   3.909   3.197 -0.9163 -2.0153  0.9897
13307TIP3    H261337   6.606   3.952   3.054 -4.0855  1.4460  1.4040
13308TIP3   OH261338   3.594   5.685   4.805  0.0140 -0.1138 -0.1711
13308TIP3    H161339   3.588   5.589   4.801  1.6200 -0.2349  0.1569
13308TIP3    H261340   3.589   5.713   4.714  0.3733 -0.5563 -0.3251
13309TIP3   OH261341   0.639   3.251  15.753  0.3128  0.1277 -0.5286
13309TIP3    H161342   0.714   3.309  15.752  1.3755 -1.2034  0.3037
13309TIP3    H261343   0.563   3.309  15.761  1.3129  1.4189 -0.3241
13310TIP3   OH261344   1.605   4.984   5.509  0.5725  0.0608  0.0848
13310TIP3    H161345   1.572   5.053   5.567  1.0885  2.6882 -2.6384
13310TIP3    H261346   1.558   4.905   5.536 -3.4206  2.4028  0.3546
13311TIP3   OH261347   3.284   3.231  14.374 -0.5407 -0.3697  0.2484
13311TIP3    H161348   3.300   3.138  14.360 -0.4644 -0.3321  0.0881
13311TIP3    H261349   3.367   3.273  14.350 -0.4921 -0.2840  0.5690
13312TIP3   OH261350   0.529   1.266   1.406 -0.3639 -0.5376  0.1348
13312TIP3    H161351   0.477   1.266   1.325  1.2439  0.3700 -0.9471
13312TIP3    H261352   0.614   1.231   1.379  0.3505  0.2649  1.3118
13313TIP3   OH261353   0.253   2.451   1.080 -0.1654  0.3901  0.4641
13313TIP3    H161354   0.340   2.431   1.112  0.2154 -0.4034 -0.9827
13313TIP3    H261355   0.213   2.365   1.064 -0.9443  0.7447  0.4482
13314TIP3   OH261356   6.161   4.806  12.186  0.5530 -0.5910 -0.4731
13314TIP3    H161357   6.194   4.839  12.103  2.0848 -0.9529 -0.0143
13314TIP3    H261358   6.239   4.787  12.238 -0.3349 -2.4405  0.2471
13315TIP3   OH261359   1.512   4.076   0.434  0.1734  0.1698  0.7569
13315TIP3    H161360   1.488   4.089   0.526 -0.1758  1.3665  0.5052
13315TIP3    H261361   1.604   4.105   0.429 -0.5522  2.4758  0.2319
13316TIP3   OH261362   4.065   0.205  13.638 -0.0610  0.1483  0.0246
13316TIP3    H161363   4.084   0.167  13.724 -0.6142 -0.6149 -0.1848
13316TIP3    H261364   4.017   0.136  13.592 -0.3171  0.7911 -0.6697
13317TIP3   OH261365   1.393   0.500   2.309 -0.1820 -0.1742  0.5186
13317TIP3    H161366   1.399   0.427   2.247 -0.7895 -0.2001  0.4848
13317TIP3    H261367   1.312   0.484   2.358 -1.7616  1.8471 -1.2902
13318TIP3   OH261368   0.642   1.462  11.531  0.1507  0.7585 -0.0339
13318TIP3    H161369   0.598   1.543  11.506 -0.7550  1.1691  2.7485
13318TIP3    H261370   0.736   1.483  11.527 -0.0532  1.6231 -0.3600
13319TIP3   OH261371   4.273   4.902  13.072 -0.0613 -0.1666 -0.0427
13319TIP3    H161372   4.245   4.953  13.149  0.0347 -0.3869  0.1380
13319TIP3    H261373   4.213   4.929  13.003 -1.0008 -0.9484  0.4585
13320TIP3   OH261374   4.200   5.565  11.344  0.2787 -0.8785 -0.4696
13320TIP3    H161375   4.170   5.655  11.352  0.4988 -0.8876  0.5322
13320TIP3    H261376   4.266   5.567  11.274  0.1601 -0.2977 -0.5609
13321TIP3   OH261377   0.914   2.820   5.344  0.4736  0.2906  0.2773
13321TIP3    H161378   0.866   2.902   5.334 -0.2967 -0.1429  0.3951
13321TIP3    H261379   0.921   2.807   5.439  2.0273  1.0491  0.2781
13322TIP3   OH261380   0.330   0.414   3.051  0.1771  0.4413 -0.0629
13322TIP3    H161381   0.395   0.397   3.119 -0.8475  0.3282  0.9216
13322TIP3    H261382   0.365   0.372   2.973  0.6710 -0.7509  0.7802
13323TIP3   OH261383   3.026   2.184  11.047  0.2527 -0.5875  0.1246
13323TIP3    H161384   2.961   2.231  11.098  0.3355 -0.7521  0.3805
13323TIP3    H261385   3.028   2.230  10.963  2.0942  1.4037  1.2142
13324TIP3   OH261386   2.033   0.441  14.110 -0.0488  0.5554  0.3493
13324TIP3    H161387   2.106   0.483  14.064 -0.9568  2.1578  0.3442
13324TIP3    H261388   2.072   0.363  14.150  1.4259  0.8022 -0.5666
13325TIP3   OH261389   5.150   5.671   2.296 -0.2484 -0.0110 -0.0003
13325TIP3    H161390   5.184   5.761   2.299 -1.1255  0.3924 -1.5674
13325TIP3    H261391   5.076   5.671   2.357  1.3442 -0.3943  1.9957
13326TIP3   OH261392   0.952   6.045   3.097  0.3217  0.0824 -0.3888
13326TIP3    H161393   0.967   5.966   3.045  0.8498  0.0428 -0.1740
13326TIP3    H261394   0.905   6.104   3.038  0.1372 -0.2995 -0.6271
13327TIP3   OH261395   4.610   5.792  12.044 -0.7776 -0.1650  0.0093
13327TIP3    H161396   4.580   5.758  11.959 -0.6319 -0.5420  0.1041
13327TIP3    H261397   4.700   5.821  12.027  0.8062 -4.1306  0.9825
13328TIP3   OH261398   6.612   2.493  13.859  0.0301  0.6694  0.6321
13328TIP3    H161399   6.541   2.554  13.839  0.9351  0.9341 -1.8482
13328TIP3    H261400   6.682   2.548  13.895  0.1009  0.8298  0.2509
13329TIP3   OH261401   3.978   0.692  11.973  0.3096 -0.0761  0.1658
13329TIP3    H161402   3.949   0.769  12.021 -1.1413 -0.6592  0.2577
13329TIP3    H261403   3.966   0.619  12.034  1.3771 -0.4202 -0.0243
13330TIP3   OH261404   5.548   2.669   3.179  0.1757  0.8054 -0.4238
13330TIP3    H161405   5.536   2.634   3.091  0.8788  0.3542 -0.3450
13330TIP3    H261406   5.488   2.743   3.184 -0.2336  0.5230 -1.1093
13331TIP3   OH261407   2.011   3.799   2.165  0.7154 -0.1364  0.6680
13331TIP3    H161408   1.999   3.723   2.108  0.7434  0.4917 -0.1723
13331TIP3    H261409   2.038   3.761   2.249 -1.5149 -1.2086  0.9323
13332TIP3   OH261410   2.393   1.264   1.018 -0.0723 -0.1539  0.3286
13332TIP3    H161411   2.451   1.254   1.093 -0.2360 -0.4144  0.4217
13332TIP3    H261412   2.448   1.242   0.942  0.3276  0.9447  0.2974
13333TIP3   OH261413   2.824   3.347  13.473 -0.0944  0.3700 -0.2113
13333TIP3    H161414   2.901   3.292  13.489 -0.8768  0.5480  4.9269
13333TIP3    H261415   2.822   3.407  13.547 -2.5748  3.4903 -2.7087
13334TIP3   OH261416   5.089   1.739  12.253  0.2430 -0.3405  0.0388
13334TIP3    H161417   5.002   1.779  12.263  0.6217  0.3607  0.5944
13334TIP3    H261418   5.085   1.694  12.169 -0.7115 -0.4476  0.1325
13335TIP3   OH261419   3.636   0.376  12.740 -0.3780  0.5739  0.1409
13335TIP3    H161420   3.686   0.363  12.660 -0.0993  1.3316  0.1876
13335TIP3    H261421   3.671   0.458  12.777  0.8647 -0.7763  2.0459
13336TIP3   OH261422   4.481   5.238   2.261 -0.1376 -0.1289 -0.0311
13336TIP3    H161423   4.474   5.168   2.196  0.7193 -0.7147  0.4788
13336TIP3    H261424   4.391   5.252   2.291 -0.6578  0.7300 -1.9197
13337TIP3   OH261425   0.822   0.990  16.374  0.1506  0.0448 -0.0050
13337TIP3    H161426   0.810   1.068  16.427  0.8358 -1.1443  1.9490
13337TIP3    H261427   0.739   0.943  16.380  1.2445 -1.6875  2.7568
13338TIP3   OH261428   4.970   2.690  12.491  0.4521  0.1431 -0.0770
13338TIP3    H161429   4.971   2.635  12.568 -0.9512 -0.0917 -0.2193
13338TIP3    H261430   4.915   2.644  12.428  0.6545  0.8764 -0.8111
13339TIP3   OH261431   0.479   0.835   5.753 -0.2295 -0.2506 -0.7841
13339TIP3    H161432   0.434   0.762   5.795 -0.2312 -0.6362 -1.4433
13339TIP3    H261433   0.503   0.802   5.666  0.4147  0.2906 -0.8205
13340TIP3   OH261434   0.373   2.046  13.013 -0.1344 -0.0539 -0.2932
13340TIP3    H161435   0.281   2.044  13.039 -0.4288 -0.4819 -1.3035
13340TIP3    H261436   0.405   1.959  13.033 -0.2329 -0.2312 -0.8932
13341TIP3   OH261437   3.741   3.421  14.555  0.3276 -0.6991 -0.4486
13341TIP3    H161438   3.709   3.489  14.614  1.4317 -2.1004  1.8448
13341TIP3    H261439   3.831   3.448  14.534  0.6654 -1.2570  0.2318
13342TIP3   OH261440   1.241   2.976   6.047 -0.3060 -0.1796  0.2691
13342TIP3    H161441   1.320   2.933   6.081  1.1678  1.0098 -1.5912
13342TIP3    H261442   1.196   2.907   5.997  0.4311 -0.4013 -0.0934
13343TIP3   OH261443   2.907   4.048   4.269 -0.1762 -0.2826  0.0381
13343TIP3    H161444   2.886   3.969   4.318 -0.5557 -1.1926 -1.5598
13343TIP3    H261445   2.949   4.106   4.333 -1.3620 -1.1335  1.6025
13344TIP3   OH261446   0.990   4.472  12.339  0.6602  0.0479  0.4556
13344TIP3    H161447   1.038   4.390  12.329  1.2126  0.5231 -0.9911
13344TIP3    H261448   0.975   4.480  12.433  0.0236 -2.0295  0.5541
13345TIP3   OH261449   0.347   0.127   1.364  0.3642  0.2329 -0.0405
13345TIP3    H161450   0.300   0.049   1.391  0.0383 -0.2916 -2.0086
13345TIP3    H261451   0.434   0.119   1.402  1.1179 -2.2970 -2.1730
13346TIP3   OH261452   5.995   1.226  15.424 -0.0267  0.7166  0.0013
13346TIP3    H161453   6.067   1.163  15.434 -2.5946 -2.2925  0.2987
13346TIP3    H261454   6.010   1.266  15.338  1.9268  0.0845  0.0188
13347TIP3   OH261455   2.153   1.301   2.390 -0.0461  0.2439 -0.2261
13347TIP3    H161456   2.146   1.253   2.308  1.9990 -0.9771  0.2708
13347TIP3    H261457   2.201   1.381   2.367  0.9473 -0.3226 -0.1510
13348TIP3   OH261458   1.481   0.940  12.788  0.3254  0.6336  0.5886
13348TIP3    H161459   1.554   0.955  12.849  0.0519  0.6656  0.9069
13348TIP3    H261460   1.524   0.930  12.703  0.7459  0.1196  0.8553
13349TIP3   OH261461   0.730   2.630   3.373 -0.8209  0.0581  0.1096
13349TIP3    H161462   0.655   2.576   3.399  0.0477 -1.4852 -0.5223
13349TIP3    H261463   0.788   2.628   3.449  0.9125 -3.0108 -1.1966
13350TIP3   OH261464   2.342   6.026  12.824  0.1084 -0.4862  0.5930
13350TIP3    H161465   2.414   6.086  12.839  1.0587 -1.3215 -0.4997
13350TIP3    H261466   2.384   5.941  12.810 -1.0663 -0.9468 -0.2445
13351TIP3   OH261467   6.088   6.517  13.368  0.5796 -0.0846 -0.1169
13351TIP3    H161468   6.021   6.505  13.435 -0.6610  0.5696 -1.2204
13351TIP3    H261469   6.126   6.602  13.387 -0.3379  0.4668 -0.7288
13352TIP3   OH261470   6.091   0.885  12.113  0.6202 -0.1863 -0.6783
13352TIP3    H161471   6.135   0.969  12.125  1.8714 -0.5432 -2.4829
13352TIP3    H261472   6.121   0.831  12.186  1.0905  0.4240 -0.4171
13353TIP3   OH261473   3.542   1.782  10.788  0.3552  0.0445 -0.5160
13353TIP3    H161474   3.580   1.743  10.709 -0.5475  1.4339 -1.6529
13353TIP3    H261475   3.449   1.762  10.782  0.6395 -1.9843  1.4721
13354TIP3   OH261476   0.347   0.605  16.227 -0.7143  0.1077  0.2223
13354TIP3    H161477   0.306   0.652  16.154 -0.4375 -0.6345 -0.4213
13354TIP3    H261478   0.441   0.623  16.218 -0.5553 -0.9931 -0.3393
13355TIP3   OH261479   3.056   3.262   1.937 -0.1771  0.7053 -0.1635
13355TIP3    H161480   3.140   3.298   1.966  0.3769 -0.5004 -0.2221
13355TIP3    H261481   3.057   3.273   1.842  0.7398 -0.9824 -0.3675
13356TIP3   OH261482   2.959   2.135   6.052  0.2571  0.3344 -0.3613
13356TIP3    H161483   2.882   2.114   6.106  0.1404 -0.3394 -0.7910
13356TIP3    H261484   2.998   2.050   6.031  2.0808  0.7598  1.2358
13357TIP3   OH261485   5.465   4.465   3.227 -0.5670 -0.5674 -0.5074
13357TIP3    H161486   5.543   4.424   3.189  0.4938  0.9138  0.0112
13357TIP3    H261487   5.435   4.403   3.293  0.4049 -0.9957 -0.4539
13358TIP3   OH261488   3.410   1.080   2.322 -0.7115  0.2852  0.2275
13358TIP3    H161489   3.491   1.125   2.348 -0.5891 -1.3230  2.8512
13358TIP3    H261490   3.387   1.118   2.237  2.2778  1.4294 -0.1110
13359TIP3   OH261491   3.254   0.371  12.250 -0.4149  0.3856 -0.0850
13359TIP3    H161492   3.194   0.296  12.251 -0.7191  0.6295  1.0044
13359TIP3    H261493   3.218   0.431  12.316  0.2163  1.1771 -0.4574
13360TIP3   OH261494   5.188   5.277   2.337 -0.5240 -0.1973 -0.1973
13360TIP3    H161495   5.119   5.222   2.301 -0.6500 -0.0857 -0.1260
13360TIP3    H261496   5.165   5.287   2.430 -0.1229 -0.6088 -0.0520
13361TIP3   OH261497   5.136   2.452   4.101 -0.0090  0.7446 -0.3958
13361TIP3    H161498   5.195   2.377   4.086  0.7855  1.4791 -1.0308
13361TIP3    H261499   5.190   2.514   4.150  0.6059  2.5120 -3.2445
13362TIP3   OH261500   2.551   4.610  14.297  0.5728 -0.4910 -0.4755
13362TIP3    H161501   2.574   4.701  14.315  2.3299 -1.3871  2.3028
13362TIP3    H261502   2.635   4.567  14.280 -0.0654 -1.8836 -0.1860
13363TIP3   OH261503   1.147   6.443  11.198 -0.2103  0.6159  0.0619
13363TIP3    H161504   1.086   6.379  11.235  0.8496  0.0256  0.8192
13363TIP3    H261505   1.232   6.419  11.234  0.6872  0.6886 -1.9243
13364TIP3   OH261506   0.771   3.495  15.767 -0.4116  0.1900  0.2860
13364TIP3    H161507   0.864   3.472  15.766 -0.5447 -0.3307 -1.2470
13364TIP3    H261508   0.746   3.490  15.859  0.9942 -0.0180  0.6663
13365TIP3   OH261509   5.593   0.188  15.592  0.1274 -0.0742 -0.1440
13365TIP3    H161510   5.599   0.283  15.603 -0.2197 -0.1304  0.5614
13365TIP3    H261511   5.503   0.174  15.561  0.2821 -0.1466 -0.5638
13366TIP3   OH261512   2.324   0.971  15.229 -0.0502 -0.5375 -0.0530
13366TIP3    H161513   2.353   1.062  15.227 -0.2035 -0.4796  0.4206
13366TIP3    H261514   2.239   0.972  15.184 -0.6733 -0.2234  1.1196
13367TIP3   OH261515   0.966   4.465   0.301  0.0964  0.1103 -0.2322
13367TIP3    H161516   0.922   4.533   0.250  1.2589  1.6243  0.7536
13367TIP3    H261517   1.019   4.418   0.236  0.4666  1.1236 -0.6740
13368TIP3   OH261518   2.528   6.249  12.591 -0.2385 -0.2472  0.2741
13368TIP3    H161519   2.584   6.326  12.593 -0.4091 -0.0030 -2.1313
13368TIP3    H261520   2.536   6.210  12.678  1.4450  1.3497  0.8542
13369TIP3   OH261521   4.522   6.567  11.891 -0.5573 -0.6912 -0.1658
13369TIP3    H161522   4.576   6.613  11.955 -0.0060 -0.5041 -0.7605
13369TIP3    H261523   4.498   6.634  11.827 -0.0441 -1.1482 -0.8414
13370TIP3   OH261524   4.939   0.982   5.916  0.0686  0.0093 -0.1782
13370TIP3    H161525   4.863   1.019   5.962  0.0239 -2.3097  1.7009
13370TIP3    H261526   5.014   1.026   5.956 -0.2247  2.1401 -1.8803
13371TIP3   OH261527   3.894   3.546  12.842  0.0863 -0.2066  0.3378
13371TIP3    H161528   3.983   3.575  12.862 -0.2018  0.4388  0.7053
13371TIP3    H261529   3.883   3.465  12.893  0.7479 -0.7573 -0.3724
13372TIP3   OH261530   5.942   2.718   1.663 -0.3486  0.0079 -0.5862
13372TIP3    H161531   5.873   2.683   1.720 -0.1327 -1.2051 -1.0564
13372TIP3    H261532   6.023   2.680   1.697 -0.0711  0.3434 -0.8705
13373TIP3   OH261533   1.710   4.475   6.009 -0.2179  0.3171 -0.0737
13373TIP3    H161534   1.798   4.441   5.992 -0.7236 -0.4655 -1.1976
13373TIP3    H261535   1.701   4.470   6.104  1.1338  0.8662  0.0929
13374TIP3   OH261536   5.188   2.304  14.600 -0.0585  0.2041 -0.0887
13374TIP3    H161537   5.166   2.314  14.693  1.5566 -1.4351  0.4808
13374TIP3    H261538   5.189   2.394  14.567 -1.4420  0.7512  1.2785
13375TIP3   OH261539   4.304   6.300   2.082  0.4035  0.1721  0.2137
13375TIP3    H161540   4.354   6.263   2.009 -0.6360 -1.9499  0.5595
13375TIP3    H261541   4.353   6.276   2.160 -0.0456 -0.1133  0.4107
13376TIP3   OH261542   2.427   5.592  10.585 -0.1334  0.1814 -0.4602
13376TIP3    H161543   2.425   5.686  10.570 -2.2989  0.5286  1.7186
13376TIP3    H261544   2.521   5.570  10.584  0.4675  2.5380  0.0028
13377TIP3   OH261545   5.951   2.875   3.565 -0.0626  0.6350  0.1246
13377TIP3    H161546   5.901   2.883   3.646  0.0850 -3.0170  0.6566
13377TIP3    H261547   6.036   2.916   3.586  0.1811 -0.7703  2.0406
13378TIP3   OH261548   6.343   0.194   0.896  0.2343 -0.3311  0.2958
13378TIP3    H161549   6.425   0.155   0.866  1.1247 -0.0486  2.2530
13378TIP3    H261550   6.326   0.264   0.834  0.8861 -1.1134 -0.7792
13379TIP3   OH261551   1.173   1.408  11.467  0.0182 -0.4834 -0.0445
13379TIP3    H161552   1.203   1.365  11.548  1.2412  2.5423  1.1746
13379TIP3    H261553   1.248   1.401  11.408  0.0395 -0.4642 -0.0194
13380TIP3   OH261554   1.874   0.053   2.253 -0.5217  0.0943 -0.3002
13380TIP3    H161555   1.907   0.143   2.248  1.0335 -0.1463  3.7471
13380TIP3    H261556   1.779   0.063   2.254 -0.4551  1.4550 -2.5304
13381TIP3   OH261557   4.147   1.156  13.572 -0.1206 -0.4848  0.1896
13381TIP3    H161558   4.060   1.116  13.570  1.1631 -3.4998  1.3689
13381TIP3    H261559   4.136   1.236  13.623 -2.0756 -1.2074  0.9259
13382TIP3   OH261560   0.299   6.080  17.135 -0.7530  0.2336 -0.0797
13382TIP3    H161561   0.239   6.009  17.112  0.1265 -0.3636 -0.5826
13382TIP3    H261562   0.276   6.104  17.225 -2.9394  1.2549 -0.8877
13383TIP3   OH261563   1.073   4.586   1.290 -0.0575 -0.4220  0.3016
13383TIP3    H161564   0.997   4.544   1.330  0.0468 -0.6382  0.2742
13383TIP3    H261565   1.053   4.588   1.196 -0.0762 -0.3829  0.3063
13384TIP3   OH261566   2.735   6.197  12.407  0.1100 -0.1183  0.2370
13384TIP3    H161567   2.711   6.224  12.318 -2.2254 -0.8404  0.6184
13384TIP3    H261568   2.663   6.228  12.462  0.6257 -1.3262  1.6229
13385TIP3   OH261569   1.707   2.179  11.174 -0.1709  0.0448 -0.0204
13385TIP3    H161570   1.642   2.113  11.199  1.2426 -0.4036  2.7448
13385TIP3    H261571   1.752   2.141  11.099 -0.2775 -1.5932  0.7117
13386TIP3   OH261572   0.566   2.705   0.818  0.4206  0.4015 -0.0640
13386TIP3    H161573   0.578   2.800   0.810  0.4277  0.5121  1.2672
13386TIP3    H261574   0.476   2.694   0.846  0.2130 -0.0216 -0.8917
13387TIP3   OH261575   6.244   5.800   0.779  0.1552 -0.5065  0.0835
13387TIP3    H161576   6.172   5.756   0.733  0.7013 -0.9889 -0.3118
13387TIP3    H261577   6.321   5.746   0.761  0.2710 -1.0815  2.0643
13388TIP3   OH261578   2.313   1.503   2.331  0.2797  0.0099  0.1144
13388TIP3    H161579   2.396   1.549   2.342  0.4780 -0.3987  0.2974
13388TIP3    H261580   2.334   1.426   2.278 -0.3965  1.1659 -1.8992
13389TIP3   OH261581   0.164   1.398   0.865 -0.0923  0.5734 -0.0979
13389TIP3    H161582   0.108   1.454   0.811  1.0379  1.4489 -0.3822
13389TIP3    H261583   0.178   1.449   0.945  1.7738  1.1633 -0.7796
13390TIP3   OH261584   2.798   3.800  14.640  0.3658 -0.0968  0.2728
13390TIP3    H161585   2.864   3.790  14.572  0.0842 -0.9941  0.1230
13390TIP3    H261586   2.826   3.740  14.709  1.1695  1.4964  1.3725
13391TIP3   OH261587   4.354   0.368  10.855 -0.2328 -0.0023  0.3916
13391TIP3    H161588   4.432   0.376  10.910  0.0269  2.5414 -0.2492
13391TIP3    H261589   4.283   0.351  10.916  0.4910 -0.0450  1.2306
13392TIP3   OH261590   0.467   0.224  11.359 -0.1420  0.6957  0.4593
13392TIP3    H161591   0.487   0.185  11.444 -3.7391  0.8248  1.4606
13392TIP3    H261592   0.457   0.318  11.377  0.1235  0.8777 -0.3173
13393TIP3   OH261593   1.778   1.827  16.951  0.3255 -0.4515  0.2267
13393TIP3    H161594   1.693   1.860  16.923 -0.4888 -0.9330  2.0555
13393TIP3    H261595   1.814   1.896  17.007 -0.9141 -2.1274  3.1862
13394TIP3   OH261596   2.981   5.539  11.207  0.0400 -0.6177 -0.2325
13394TIP3    H161597   2.948   5.587  11.131 -2.9196 -0.3417  1.1660
13394TIP3    H261598   3.038   5.471  11.170 -1.7348 -0.8095 -2.7119
13395TIP3   OH261599   3.941   1.363  15.936 -0.3065 -0.6004 -0.6681
13395TIP3    H161600   4.016   1.423  15.933 -0.3440 -0.5181 -0.0791
13395TIP3    H261601   3.960   1.307  16.011 -1.5731  0.3883  0.4057
13396TIP3   OH261602   3.215   4.738   4.224  0.5184  0.7917 -0.3568
13396TIP3    H161603   3.239   4.803   4.158  0.9134  1.4652  0.4394
13396TIP3    H261604   3.292   4.682   4.232 -0.4792 -0.9775 -2.4143
13397TIP3   OH261605   1.121   4.977   2.238  0.1558 -0.0048 -0.0321
13397TIP3    H161606   1.121   4.905   2.301 -0.6356 -1.6205 -1.8559
13397TIP3    H261607   1.035   5.019   2.250 -0.0194 -0.3483 -0.1004
13398TIP3   OH261608   0.461   6.270  15.918 -0.5590 -0.1784 -0.2242
13398TIP3    H161609   0.445   6.354  15.875 -1.3074 -1.2064 -1.9748
13398TIP3    H261610   0.545   6.282  15.961  0.5188  0.6940 -2.4755
13399TIP3   OH261611   0.853   2.627   3.129  0.4844 -0.0669 -0.6065
13399TIP3    H161612   0.812   2.661   3.208  2.0565  0.5846 -0.0428
13399TIP3    H261613   0.904   2.551   3.159 -0.4825 -1.0136 -1.3282
13400TIP3   OH261614   6.765   0.656   0.476  0.0924 -0.0981  0.3103
13400TIP3    H161615   6.758   0.688   0.386  1.1680  1.2646  0.7031
13400TIP3    H261616   6.685   0.686   0.519 -0.2160 -0.3717 -0.0697
13401TIP3   OH261617   6.407   0.042  16.325 -0.4088 -0.3525  0.5265
13401TIP3    H161618   6.439   0.112  16.269  1.4192 -1.0939  0.6101
13401TIP3    H261619   6.326   0.076  16.363  0.6104  1.8257  0.8006
13402TIP3   OH261620   3.459   1.862  14.997 -0.2952  0.1687 -0.2018
13402TIP3    H161621   3.463   1.849  14.903  1.9137 -0.9427  0.0009
13402TIP3    H261622   3.478   1.955  15.010  1.2138 -0.0516 -0.7681
13403TIP3   OH261623   3.416   2.772   4.147 -0.4621  0.0419 -0.2595
13403TIP3    H161624   3.456   2.758   4.061 -1.3465 -0.1928 -0.6272
13403TIP3    H261625   3.388   2.685   4.176 -1.1903  0.2885 -0.2280
13404TIP3   OH261626   1.354   3.933  11.917 -0.4489  0.1175  0.1576
13404TIP3    H161627   1.351   4.028  11.918  0.5035  0.1497  1.1426
13404TIP3    H261628   1.267   3.905  11.943 -0.3237  0.7320  1.2602
13405TIP3   OH261629   0.043   1.914   1.777  0.0283 -0.0699 -0.7691
13405TIP3    H161630   0.065   1.979   1.844 -1.9904  0.0509 -0.2094
13405TIP3    H261631   0.127   1.874   1.755  0.9574  1.0662  0.6086
13406TIP3   OH261632   2.799   3.180   4.218  0.4560  0.1474 -0.1087
13406TIP3    H161633   2.756   3.265   4.215  0.9857  0.4204  0.0245
13406TIP3    H261634   2.879   3.195   4.267 -0.4099 -0.8726  1.6497
13407TIP3   OH261635   1.780   1.363  10.368  0.0774 -0.5470 -0.6309
13407TIP3    H161636   1.825   1.371  10.283  0.3284  0.0514 -0.4427
13407TIP3    H261637   1.851   1.351  10.431  0.0690  1.8053 -0.1487
13408TIP3   OH261638   4.018   3.187   1.635 -0.0257  0.1871 -0.1746
13408TIP3    H161639   3.949   3.127   1.608  2.0962 -1.8497 -1.2646
13408TIP3    H261640   4.030   3.245   1.560 -1.2506  1.2414  0.4239
13409TIP3   OH261641   6.449   6.639  14.588 -0.2916  0.3016  0.4127
13409TIP3    H161642   6.414   6.608  14.505 -0.0475  0.8267  0.1144
13409TIP3    H261643   6.379   6.691  14.626 -1.1204 -1.5055  1.4276
13410TIP3   OH261644   1.325   4.258  13.258 -0.9661 -0.4557 -0.1566
13410TIP3    H161645   1.336   4.295  13.171 -2.2590  2.0998  0.7251
13410TIP3    H261646   1.230   4.256  13.272 -0.7976 -1.3126  1.0067
13411TIP3   OH261647   5.701   6.355   4.762 -0.1593 -0.3278  0.4715
13411TIP3    H161648   5.664   6.365   4.850 -1.4293  0.0577 -0.0980
13411TIP3    H261649   5.628   6.370   4.703  0.3652 -2.0231 -0.6419
13412TIP3   OH261650   2.316   3.165  10.775 -0.0793  0.9212 -1.0247
13412TIP3    H161651   2.224   3.148  10.752 -0.4522  0.1465  0.8771
13412TIP3    H261652   2.345   3.084  10.817  0.7381  2.0080  0.5534
13413TIP3   OH261653   3.623   4.352   5.432  0.1151 -0.3962  0.1442
13413TIP3    H161654   3.549   4.374   5.489 -0.7658  0.0363 -1.1304
13413TIP3    H261655   3.685   4.424   5.444 -1.2907  1.1332 -1.5071
13414TIP3   OH261656   2.806   3.669  11.823  0.1203  0.3174  0.1173
13414TIP3    H161657   2.844   3.588  11.859 -0.5792 -0.4211 -0.7613
13414TIP3    H261658   2.736   3.638  11.765  0.2745  1.5383 -0.7266
13415TIP3   OH261659   6.272   5.365   1.777  0.0641  0.1268 -0.4145
13415TIP3    H161660   6.179   5.379   1.759 -0.2784 -1.5421  0.0063
13415TIP3    H261661   6.273   5.305   1.851  1.4660 -1.0018 -1.3328
13416TIP3   OH261662   5.380   4.390   1.020 -0.0093 -0.0304  0.0616
13416TIP3    H161663   5.310   4.455   1.015 -0.5862 -0.5906  0.7396
13416TIP3    H261664   5.345   4.322   1.077  1.5842  0.3019  1.4898
13417TIP3   OH261665   1.435   0.763  16.235  0.3633  0.7184  0.6591
13417TIP3    H161666   1.403   0.790  16.149  1.8213  0.0779 -0.0907
13417TIP3    H261667   1.528   0.747  16.222  0.7760  1.4877  2.5725
13418TIP3   OH261668   6.105   6.524   4.925  0.3198 -0.1801 -0.5724
13418TIP3    H161669   6.090   6.502   5.017 -0.4203 -0.7190 -0.8108
13418TIP3    H261670   6.196   6.552   4.922  0.1223  0.6387  0.4704
13419TIP3   OH261671   5.257   6.460  13.464 -0.7671 -0.4327  0.1330
13419TIP3    H161672   5.285   6.430  13.550 -2.9328 -1.1921  0.6142
13419TIP3    H261673   5.270   6.554  13.465 -0.4116 -0.4919  1.1498
13420TIP3   OH261674   2.856   2.441  12.932  0.2875 -0.1119 -0.2267
13420TIP3    H161675   2.834   2.511  12.993 -0.2090 -2.4815  2.4172
13420TIP3    H261676   2.950   2.453  12.915  0.7114 -0.1266  1.9865
13421TIP3   OH261677   4.296   2.925  16.554 -0.4610  0.4276 -0.5359
13421TIP3    H161678   4.340   2.854  16.507 -1.4767 -1.5910  1.4544
13421TIP3    H261679   4.212   2.887  16.580 -0.1212  1.6299  2.4340
13422TIP3   OH261680   4.361   5.955   3.606 -0.3934  0.2766  0.5373
13422TIP3    H161681   4.270   5.926   3.615 -0.1114 -0.3817  1.2534
13422TIP3    H261682   4.408   5.879   3.573 -0.1611  0.7243 -0.1868
13423TIP3   OH261683   2.364   4.149  15.421  0.3649 -0.1043  0.4251
13423TIP3    H161684   2.406   4.151  15.506 -0.2280 -0.3946  0.7292
13423TIP3    H261685   2.290   4.209  15.429  2.6921  3.1124 -1.1695
13424TIP3   OH261686   0.765   6.132   4.041  0.2500 -0.5004  0.3085
13424TIP3    H161687   0.728   6.090   3.963  1.6883 -0.7326 -0.2669
13424TIP3    H261688   0.848   6.170   4.011 -0.5961  2.0100  1.0297
13425TIP3   OH261689   4.189   5.023   2.417 -0.5800  0.0164 -0.0947
13425TIP3    H161690   4.102   5.059   2.435 -0.3049  0.1601  0.9947
13425TIP3    H261691   4.250   5.092   2.447 -0.0505 -1.2137  1.7084
13426TIP3   OH261692   5.148   0.087   4.068 -0.4321  0.5557 -0.2388
13426TIP3    H161693   5.210   0.160   4.067 -1.5896  1.6137  1.3586
13426TIP3    H261694   5.118   0.079   3.978  2.7535 -0.6319 -1.2321
13427TIP3   OH261695   1.571   5.242  13.059  0.5500  0.0999  0.3639
13427TIP3    H161696   1.518   5.222  12.982 -0.4133  1.5169  0.6427
13427TIP3    H261697   1.522   5.204  13.132 -0.3395  1.7988  0.6741
13428TIP3   OH261698   1.626   5.284   5.950 -0.3164  0.5212 -0.3034
13428TIP3    H161699   1.637   5.326   6.035 -4.0186  1.3421 -0.1840
13428TIP3    H261700   1.671   5.200   5.959 -0.5346  0.6710  2.4077
13429TIP3   OH261701   5.478   1.414  16.659  0.1604 -0.6981 -0.0228
13429TIP3    H161702   5.569   1.396  16.683  0.3438 -0.4836 -0.5522
13429TIP3    H261703   5.484   1.468  16.581 -0.4076  0.2667  0.5953
13430TIP3   OH261704   5.714   6.531  13.965  0.3451  0.1999 -0.2821
13430TIP3    H161705   5.658   6.607  13.973 -2.8666 -2.0840 -0.2491
13430TIP3    H261706   5.763   6.546  13.884 -0.3367  2.2113 -0.3429
13431TIP3   OH261707   4.757   5.070  16.022 -0.5407  0.7652 -0.1389
13431TIP3    H161708   4.836   5.040  16.066 -0.3755 -0.9863 -1.5419
13431TIP3    H261709   4.685   5.031  16.072 -0.3536 -1.2122 -1.3265
13432TIP3   OH261710   4.959   3.613   0.780  0.0756  0.4574  0.7635
13432TIP3    H161711   4.969   3.678   0.710 -1.9882 -0.0088 -0.0203
13432TIP3    H261712   4.870   3.628   0.814 -0.3215 -1.7186  0.7765
13433TIP3   OH261713   0.295   4.096  14.025  0.4276  0.1900  0.0331
13433TIP3    H161714   0.202   4.093  14.001  0.6541 -2.4600 -0.6261
13433TIP3    H261715   0.340   4.061  13.948  1.7401 -1.2528  1.4367
13434TIP3   OH261716   3.967   4.861   0.418 -0.3239  0.6132  0.4778
13434TIP3    H161717   4.004   4.820   0.339 -2.4959  0.3636 -0.4471
13434TIP3    H261718   3.987   4.799   0.488 -1.2498 -0.7774 -0.4639
13435TIP3   OH261719   3.789   6.074   0.373  0.2528  0.2877 -0.7115
13435TIP3    H161720   3.847   6.014   0.325  1.9291  0.1295  1.4245
13435TIP3    H261721   3.732   6.016   0.423  1.6190  0.4108  1.0546
13436TIP3   OH261722   6.127   3.414  12.160  0.6825  0.2910  0.1658
13436TIP3    H161723   6.218   3.433  12.183  0.1221  2.8441  0.3746
13436TIP3    H261724   6.119   3.438  12.068  0.2597 -0.1630  0.0766
13437TIP3   OH261725   2.467   0.630   6.305 -0.7110  0.1799  0.0592
13437TIP3    H161726   2.529   0.641   6.377  0.3157 -1.7879 -0.4996
13437TIP3    H261727   2.482   0.706   6.249 -1.5466  1.7444  1.9024
13438TIP3   OH261728   1.135   0.652   1.710  0.2156  0.1912  0.2864
13438TIP3    H161729   1.170   0.648   1.800 -0.2199 -0.4217  0.4324
13438TIP3    H261730   1.185   0.585   1.663 -0.7035 -0.6575  0.4843
13439TIP3   OH261731   5.386   6.275   5.359 -0.1186  0.1370  0.4261
13439TIP3    H161732   5.331   6.293   5.283 -0.6950  0.4982  0.9240
13439TIP3    H261733   5.332   6.299   5.434  0.4707 -0.1511  0.9497
13440TIP3   OH261734   2.827   3.532  14.476  0.2317  0.0800  0.4721
13440TIP3    H161735   2.914   3.502  14.449 -0.7921 -3.0719  0.4519
13440TIP3    H261736   2.800   3.470  14.543 -2.2373  0.6708  0.0635
13441TIP3   OH261737   3.193   4.601  15.725 -0.1757 -0.5730  0.5231
13441TIP3    H161738   3.234   4.666  15.668  0.9808 -1.4420  0.3496
13441TIP3    H261739   3.118   4.647  15.763 -1.2275 -0.1162 -2.0054
13442TIP3   OH261740   4.483   3.027  13.423 -0.2568  0.2831 -0.8302
13442TIP3    H161741   4.542   3.002  13.352 -0.4022 -1.4762 -0.3774
13442TIP3    H261742   4.405   3.062  13.379 -1.1918 -2.6522 -1.6833
13443TIP3   OH261743   2.923   4.645  15.808  0.0136  0.0753 -0.3292
13443TIP3    H161744   2.836   4.678  15.831  0.0606  0.2734 -0.4363
13443TIP3    H261745   2.908   4.552  15.787 -0.0471 -0.0779  0.3786
13444TIP3   OH261746   0.523   2.649   5.736 -0.3445 -0.2560 -0.0709
13444TIP3    H161747   0.522   2.620   5.645 -0.7041 -1.6757  0.3667
13444TIP3    H261748   0.471   2.583   5.782  0.4791  0.0256  1.2852
13445TIP3   OH261749   5.297   5.849  10.150 -0.6888  0.2647  0.6213
13445TIP3    H161750   5.300   5.944  10.160 -0.6735  0.1754  1.4801
13445TIP3    H261751   5.207   5.829  10.127 -1.5173  0.1719  3.7785
13446TIP3   OH261752   2.114   5.882   1.439 -0.0822 -0.5031  0.2519
13446TIP3    H161753   2.165   5.962   1.427  0.1212 -0.5701  0.6526
13446TIP3    H261754   2.041   5.891   1.379  1.1859 -1.0766 -1.4169
13447TIP3   OH261755   6.700   6.222  15.574 -0.4816 -0.0927  0.1496
13447TIP3    H161756   6.611   6.229  15.607 -0.8731 -3.5263 -0.0425
13447TIP3    H261757   6.752   6.193  15.649  0.0018 -0.5068 -0.3385
13448TIP3   OH261758   1.055   4.029  11.443  0.3883  0.2932 -0.2033
13448TIP3    H161759   1.124   4.045  11.378  1.0917 -0.3215  0.3921
13448TIP3    H261760   1.100   3.991  11.518 -0.3919  1.2533  0.7606
13449TIP3   OH261761   0.950   3.106  15.532  0.2421  0.3076 -0.1295
13449TIP3    H161762   0.927   3.034  15.474 -2.8869  2.3535 -1.5445
13449TIP3    H261763   0.999   3.168  15.477  1.3505  0.1120  0.6170
13450TIP3   OH261764   0.194   3.530  15.925 -0.2275 -0.1737  0.1653
13450TIP3    H161765   0.133   3.509  15.995 -0.3755  2.2027  0.7819
13450TIP3    H261766   0.237   3.611  15.953 -0.0272  0.6326 -2.3167
13451TIP3   OH261767   1.062   3.605   3.568 -0.3617 -0.2995 -0.6586
13451TIP3    H161768   1.082   3.523   3.524  1.8668  0.6100 -1.4222
13451TIP3    H261769   1.082   3.588   3.660  2.2735 -0.0160 -1.1168
13452TIP3   OH261770   5.694   1.760  12.198 -0.3348 -0.1457  0.1103
13452TIP3    H161771   5.600   1.765  12.219 -0.0433  1.7927  1.0191
13452TIP3    H261772   5.720   1.850  12.182  1.2991 -0.7274 -0.5861
13453TIP3   OH261773   1.124   3.133   2.783  0.1079 -0.3775 -0.0547
13453TIP3    H161774   1.098   3.199   2.847  0.2413 -1.9833  1.7015
13453TIP3    H261775   1.044   3.084   2.765  0.7128 -1.9271  1.3092
13454TIP3   OH261776   0.837   6.730   1.638  0.3944 -0.1540  0.1423
13454TIP3    H161777   0.746   6.718   1.665  0.7042 -0.4416  1.0614
13454TIP3    H261778   0.863   6.813   1.677  0.5486 -0.1023 -0.0676
13455TIP3   OH261779   0.444   1.553  14.148 -0.7356 -0.3625  0.3283
13455TIP3    H161780   0.387   1.572  14.074 -0.7045 -1.1273  0.1055
13455TIP3    H261781   0.479   1.638  14.175  0.5101 -0.2721 -1.5378
13456TIP3   OH261782   6.435   1.734   5.429 -0.3143 -0.1481 -0.2648
13456TIP3    H161783   6.481   1.652   5.410  0.0298  0.4171 -1.9750
13456TIP3    H261784   6.490   1.779   5.492  0.2754 -0.5451 -0.4922
13457TIP3   OH261785   0.047   5.132  15.001  0.7028 -0.1873 -0.5233
13457TIP3    H161786   0.132   5.174  15.015  1.4955 -1.6575 -0.7966
13457TIP3    H261787   0.001   5.192  14.941  0.2394  2.2484  2.1546
13458TIP3   OH261788   6.537   5.635  11.900  0.0061 -0.0930 -0.0232
13458TIP3    H161789   6.476   5.628  11.826  0.2410  0.5490 -0.2771
13458TIP3    H261790   6.598   5.563  11.887  0.0696  0.0395 -0.4730
13459TIP3   OH261791   6.169   5.080   0.320 -0.1565 -0.3129  0.6657
13459TIP3    H161792   6.214   5.066   0.237  0.0233 -2.5636  1.1102
13459TIP3    H261793   6.232   5.129   0.373  0.3627 -0.2847  0.0332
13460TIP3   OH261794   4.760   5.018  14.665  0.3140 -0.2266  0.2312
13460TIP3    H161795   4.782   4.942  14.610  0.5332 -0.0729  0.1053
13460TIP3    H261796   4.844   5.049  14.698  0.2053 -0.1583  0.4413
13461TIP3   OH261797   6.003   1.155  10.921  0.4164  0.4783 -0.2627
13461TIP3    H161798   6.046   1.238  10.945 -0.7121  0.9755  0.0728
13461TIP3    H261799   6.019   1.146  10.827  1.5369  0.4839 -0.0815
13462TIP3   OH261800   0.255   6.707  11.908 -0.3921  0.2788  0.6210
13462TIP3    H161801   0.299   6.792  11.903 -0.7929  0.4498 -0.0305
13462TIP3    H261802   0.203   6.701  11.827  1.0123 -1.3375 -0.2071
13463TIP3   OH261803   2.752   5.905   4.105  0.5899  0.0486 -0.2165
13463TIP3    H161804   2.665   5.874   4.081 -0.6434  2.2583  1.2459
13463TIP3    H261805   2.784   5.842   4.169 -0.2514 -0.3334 -0.1757
13464TIP3   OH261806   5.521   3.622  12.135 -0.1918 -0.2326 -0.2485
13464TIP3    H161807   5.471   3.541  12.149 -1.2494  0.2356 -1.2372
13464TIP3    H261808   5.602   3.593  12.093 -0.6455 -0.7543 -0.7648
13465TIP3   OH261809   4.291   2.258  17.196  0.2270  0.1558 -0.1514
13465TIP3    H161810   4.366   2.199  17.203 -0.4568 -0.8952 -1.4177
13465TIP3    H261811   4.220   2.212  17.240  0.6578  1.7870  2.3391
13466TIP3   OH261812   4.082   5.506   0.519 -0.0719  0.4579 -0.1561
13466TIP3    H161813   4.097   5.433   0.458  1.6922  1.6155 -1.1517
13466TIP3    H261814   4.130   5.480   0.598 -0.8990 -0.2519  0.1130
13467TIP3   OH261815   1.280   1.581  15.554  0.1628 -0.3237 -0.2092
13467TIP3    H161816   1.334   1.645  15.600 -1.2329  1.0813 -0.5154
13467TIP3    H261817   1.217   1.551  15.620 -0.5260  0.1694 -0.6402
13468TIP3   OH261818   4.376   2.079  11.825  0.0308 -0.0637 -0.1019
13468TIP3    H161819   4.447   2.079  11.889  0.0134  1.4648 -0.0589
13468TIP3    H261820   4.411   2.130  11.751 -1.2474  1.3171  0.2123
13469TIP3   OH261821   0.280   5.805   2.393 -0.3149  0.2790 -0.1818
13469TIP3    H161822   0.369   5.832   2.371 -0.4907  1.2604  0.2465
13469TIP3    H261823   0.290   5.751   2.471 -0.0973  0.4542 -0.0857
13470TIP3   OH261824   5.251   2.056   5.555  0.5363 -0.2578 -0.0791
13470TIP3    H161825   5.335   2.083   5.592  0.1473  2.0388 -0.7567
13470TIP3    H261826   5.196   2.035   5.631  0.9542  0.6504  0.4781
13471TIP3   OH261827   2.532   3.057  17.023  0.2828 -0.0684  0.0512
13471TIP3    H161828   2.576   3.062  16.939 -1.0825 -2.3015 -0.8559
13471TIP3    H261829   2.481   2.976  17.018 -1.3383  0.7665  2.2829
13472TIP3   OH261830   2.312   5.960  10.818  0.4769 -0.0258  0.8653
13472TIP3    H161831   2.398   5.989  10.787  0.6362 -0.2209  1.1158
13472TIP3    H261832   2.273   5.916  10.742 -0.0239  1.3763  0.2999
13473TIP3   OH261833   3.086   2.117   1.046 -0.2985 -0.4031 -0.5868
13473TIP3    H161834   3.165   2.080   1.008 -1.4963 -2.8773 -0.7839
13473TIP3    H261835   3.053   2.177   0.980  1.2103  0.3939 -0.6425
13474TIP3   OH261836   5.278   4.051   4.389 -0.3756 -0.3377 -0.2926
13474TIP3    H161837   5.251   4.143   4.392  1.3000  0.1478  1.2679
13474TIP3    H261838   5.217   4.006   4.446  0.6027  0.3414  1.3248
13475TIP3   OH261839   1.224   6.573   0.347 -0.5625  0.3110 -0.3891
13475TIP3    H161840   1.131   6.549   0.341 -0.8556  1.4008 -0.3336
13475TIP3    H261841   1.223   6.661   0.385  0.5926 -0.4766  1.5122
13476TIP3   OH261842   2.997   5.383  16.175 -0.1421 -0.1154  0.3236
13476TIP3    H161843   3.054   5.430  16.113  0.4620 -1.9038 -0.5062
13476TIP3    H261844   2.926   5.349  16.121 -0.1968 -0.7654  0.7983
13477TIP3   OH261845   1.029   3.898  16.319 -0.0598  0.8030  0.0032
13477TIP3    H161846   0.964   3.873  16.253 -1.1518  0.4222  1.2228
13477TIP3    H261847   0.989   3.971  16.366 -0.3732 -0.6148  1.9547
13478TIP3   OH261848   5.362   0.229   6.158 -0.8812 -0.3274 -0.5729
13478TIP3    H161849   5.313   0.147   6.166  0.0710 -1.1269 -2.5228
13478TIP3    H261850   5.399   0.226   6.070  0.2904  1.5874 -0.1793
13479TIP3   OH261851   5.056   6.305  14.837  0.7893  0.0638  0.6212
13479TIP3    H161852   5.146   6.276  14.857  0.8637  0.3201  0.6583
13479TIP3    H261853   5.003   6.227  14.854  1.0964 -0.3163 -0.1557
13480TIP3   OH261854   1.776   2.997   3.837 -0.3768  0.0122  0.3494
13480TIP3    H161855   1.842   2.928   3.826 -0.3484  0.1080 -0.0850
13480TIP3    H261856   1.827   3.076   3.853 -0.3562  0.2730 -0.9911
13481TIP3   OH261857   6.142   4.060  15.926 -0.0828  0.0103 -0.1437
13481TIP3    H161858   6.230   4.023  15.931 -0.9661 -2.2990 -1.1693
13481TIP3    H261859   6.123   4.087  16.016  1.7259  0.7214  0.0482
13482TIP3   OH261860   6.601   2.278   0.899  0.6727 -0.0628  0.2967
13482TIP3    H161861   6.589   2.195   0.945 -0.3729  0.7439  1.5185
13482TIP3    H261862   6.525   2.330   0.923 -0.1744  0.2313 -2.7898
13483TIP3   OH261863   0.962   1.546   3.281  0.7966  0.2281  0.3361
13483TIP3    H161864   0.917   1.575   3.361 -0.2556 -1.7226  0.4760
13483TIP3    H261865   1.051   1.528   3.310  0.9455  1.3964  0.6485
13484TIP3   OH261866   2.180   1.969  10.757  0.0501  0.0355  0.2102
13484TIP3    H161867   2.115   2.010  10.699 -0.1261 -0.2613  0.1987
13484TIP3    H261868   2.245   2.038  10.771 -0.8410  0.7131  1.1209
13485TIP3   OH261869   1.096   6.390  12.851 -0.4058 -0.4880  0.2563
13485TIP3    H161870   1.072   6.414  12.940  0.8527 -1.5464  0.9013
13485TIP3    H261871   1.019   6.410  12.799 -1.8303 -1.6201  1.8870
13486TIP3   OH261872   0.112   4.697  11.746 -0.1161  0.4705 -1.0301
13486TIP3    H161873   0.177   4.722  11.680  1.0855  1.2026  0.4081
13486TIP3    H261874   0.082   4.610  11.717 -0.4848  1.2653 -3.1630
13487TIP3   OH261875   3.644   0.399   3.051 -0.5188  0.1832 -0.6395
13487TIP3    H161876   3.681   0.315   3.026  0.7360  0.1503  1.2062
13487TIP3    H261877   3.581   0.419   2.983 -0.1465 -1.8028 -1.5972
13488TIP3   OH261878   0.521   4.869  11.660  0.3427 -0.4075 -0.1128
13488TIP3    H161879   0.531   4.834  11.748  1.4726 -0.0837 -0.1095
13488TIP3    H261880   0.604   4.851  11.617 -0.7506 -2.0114 -1.6322
13489TIP3   OH261881   1.300   2.302  13.603 -0.3010 -0.0600  0.7076
13489TIP3    H161882   1.382   2.344  13.628 -1.4474  1.7238  1.5726
13489TIP3    H261883   1.292   2.320  13.509  0.6621 -0.9214  0.4473
13490TIP3   OH261884   0.739   0.598   1.958 -0.0737  0.0208  0.4916
13490TIP3    H161885   0.821   0.579   2.004  0.0681 -0.0103  0.2305
13490TIP3    H261886   0.670   0.577   2.021  0.1396  0.9358  1.0411
13491TIP3   OH261887   3.647   5.255  11.502  0.3912 -0.0512 -0.1833
13491TIP3    H161888   3.632   5.167  11.537  0.9179  0.0424  0.2873
13491TIP3    H261889   3.734   5.251  11.462 -0.1956 -0.1429 -1.4554
13492TIP3   OH261890   1.889   1.546   5.610 -0.4685  0.4843  0.6225
13492TIP3    H161891   1.888   1.554   5.514  3.1441 -1.5959  0.3402
13492TIP3    H261892   1.838   1.467   5.628  0.5902 -0.3159  0.2058
13493TIP3   OH261893   5.564   2.065  15.156 -0.0223 -0.3558 -0.7792
13493TIP3    H161894   5.525   2.148  15.183  0.9693 -0.1298 -0.0296
13493TIP3    H261895   5.583   2.077  15.063  2.2044  1.0900 -0.1752
13494TIP3   OH261896   6.683   4.201   1.448  0.2781 -0.4630  0.4035
13494TIP3    H161897   6.609   4.261   1.452 -0.2664 -0.9772 -1.5268
13494TIP3    H261898   6.760   4.258   1.446 -0.2251  0.1783 -1.1984
13495TIP3   OH261899   6.539   1.153   2.441  0.4058  0.1714 -0.1706
13495TIP3    H161900   6.552   1.147   2.536 -1.5182  0.1877  0.1258
13495TIP3    H261901   6.526   1.062   2.414 -3.4344  0.4962  0.3126
13496TIP3   OH261902   3.184   6.395   4.172  0.5809  0.7756 -0.2840
13496TIP3    H161903   3.244   6.373   4.102  0.6171 -0.3629  0.1007
13496TIP3    H261904   3.172   6.490   4.165  1.3583  0.8049 -1.1957
13497TIP3   OH261905   0.156   4.870  14.469 -0.4467  0.3336  0.0748
13497TIP3    H161906   0.065   4.843  14.456  0.6699 -3.2507 -0.7952
13497TIP3    H261907   0.206   4.811  14.414  2.5176  1.5880  1.3482
13498TIP3   OH261908   4.171   1.679  11.704 -0.0107  0.0072  0.0694
13498TIP3    H161909   4.112   1.754  11.701 -0.6042 -0.4269  0.6513
13498TIP3    H261910   4.119   1.606  11.670 -0.3742 -0.7345  2.1104
13499TIP3   OH261911   4.740   0.120   2.129  0.3898  0.2240 -0.0435
13499TIP3    H161912   4.668   0.117   2.065  0.8519 -2.4645 -0.4883
13499TIP3    H261913   4.703   0.167   2.204 -0.7839  1.7100 -1.5053
13500TIP3   OH261914   2.330   0.013   0.443  0.4193  0.1287  0.6199
13500TIP3    H161915   2.413  -0.027   0.468  0.8992  0.2741 -0.7002
13500TIP3    H261916   2.355   0.095   0.399 -0.4509  0.5409  0.8805
13501TIP3   OH261917   1.993   4.735   6.609 -0.5132  0.3497  0.2958
13501TIP3    H161918   2.079   4.733   6.568 -0.3036 -2.0999  0.7742
13501TIP3    H261919   1.932   4.720   6.537 -0.4484  0.5930  0.1889
13502TIP3   OH261920   1.488   1.722  13.896  0.0052  0.3432  0.0759
13502TIP3    H161921   1.494   1.678  13.981  1.6021 -1.1634 -0.7667
13502TIP3    H261922   1.498   1.651  13.832 -0.7001  1.5173 -1.3656
13503TIP3   OH261923   0.906   0.939   4.701 -0.6723  0.1997  0.0334
13503TIP3    H161924   0.868   0.909   4.783 -0.5002 -0.1080  0.0008
13503TIP3    H261925   0.865   0.883   4.634 -1.8622  1.3497 -0.2469
13504TIP3   OH261926   1.994   2.193   0.271  0.0514  0.7722 -0.2474
13504TIP3    H161927   1.926   2.126   0.263  0.2904  0.7090 -1.9306
13504TIP3    H261928   1.949   2.269   0.308  0.0042 -0.6224  2.6791
13505TIP3   OH261929   3.918   2.376   4.178  0.0589  0.1480  0.3371
13505TIP3    H161930   3.831   2.398   4.144 -0.3059  1.6946  2.1313
13505TIP3    H261931   3.948   2.457   4.220  1.1659 -1.1856  2.1770
13506TIP3   OH261932   4.747   0.155   2.579  0.0697  0.0258 -0.0344
13506TIP3    H161933   4.835   0.128   2.554  0.1020 -0.0828  0.1948
13506TIP3    H261934   4.745   0.249   2.562 -0.2044 -0.1988 -1.3091
13507TIP3   OH261935   4.564   5.005   5.711  0.1850 -0.6128  0.1936
13507TIP3    H161936   4.640   4.947   5.715  0.1813 -0.4082  4.7275
13507TIP3    H261937   4.490   4.946   5.698  0.6237 -1.2240  0.4621
13508TIP3   OH261938   6.295   6.050   2.538  0.0684 -0.5003  0.4254
13508TIP3    H161939   6.309   6.011   2.625  0.0548 -2.2688 -0.3540
13508TIP3    H261940   6.365   6.014   2.484 -0.1094  0.3543 -0.3801
13509TIP3   OH261941   1.217   4.850   5.985  0.0857 -0.3517  0.3132
13509TIP3    H161942   1.247   4.939   6.004  0.2292 -0.1934 -0.6267
13509TIP3    H261943   1.130   4.861   5.948  0.7181 -0.4740 -1.2665
13510TIP3   OH261944   2.391   5.446   1.804 -0.3283 -0.1833  0.1377
13510TIP3    H161945   2.327   5.476   1.739 -0.1894  0.8781  0.4847
13510TIP3    H261946   2.474   5.445   1.757 -0.4398 -0.6642 -0.0543
13511TIP3   OH261947   0.697   2.395  12.315  0.5105 -0.4189 -0.4808
13511TIP3    H161948   0.742   2.431  12.238  1.4301  0.2935  0.3664
13511TIP3    H261949   0.614   2.442  12.319 -0.7780 -2.4546 -2.6385
13512TIP3   OH261950   4.520   5.688   5.785  0.0228  0.9810  0.0562
13512TIP3    H161951   4.478   5.734   5.713  0.3712  1.1443 -0.0463
13512TIP3    H261952   4.582   5.752   5.821  2.8250 -0.4401 -2.0769
13513TIP3   OH261953   3.007   1.168  14.966  0.5398 -0.1264  0.5081
13513TIP3    H161954   3.039   1.081  14.940 -0.8988 -0.5221  0.0010
13513TIP3    H261955   2.917   1.171  14.933  1.4585  2.6176 -1.9944
13514TIP3   OH261956   5.352   2.103   6.229  0.0180 -0.0657  0.4697
13514TIP3    H161957   5.301   2.030   6.266 -0.8746  0.5335  0.4467
13514TIP3    H261958   5.334   2.176   6.288 -0.3103  0.5368 -0.3759
13515TIP3   OH261959   3.884   3.591  17.094  0.0252  0.2469  0.7115
13515TIP3    H161960   3.818   3.590  17.025  0.5487  1.6227  0.1589
13515TIP3    H261961   3.834   3.586  17.176 -0.5611 -2.0040  0.2324
13516TIP3   OH261962   6.096   4.672   2.556  0.4968  0.1374  0.4835
13516TIP3    H161963   6.128   4.732   2.489 -0.0731 -0.6137 -0.4724
13516TIP3    H261964   6.173   4.655   2.611  0.9845  0.6906 -0.0227
13517TIP3   OH261965   2.710   3.915  15.399 -0.3042  0.1222  0.3201
13517TIP3    H161966   2.625   3.878  15.376  0.1211 -1.1214  0.6890
13517TIP3    H261967   2.725   3.983  15.335 -2.0881  1.1210  0.9313
13518TIP3   OH261968   3.970   5.997   1.156 -0.0221 -0.6518 -0.0144
13518TIP3    H161969   4.061   6.020   1.140  0.2097 -2.7856 -2.1040
13518TIP3    H261970   3.939   5.964   1.072 -3.3232  1.8489  0.1551
13519TIP3   OH261971   6.624   5.718   2.763 -0.1251  0.4360  0.5356
13519TIP3    H161972   6.598   5.810   2.751 -1.1688  0.2441  1.2578
13519TIP3    H261973   6.684   5.701   2.690  1.1570  2.0954  1.1761
13520TIP3   OH261974   2.015   3.860   3.245  0.2696  0.2823  0.3008
13520TIP3    H161975   1.979   3.772   3.257  0.2131  0.3966  1.0445
13520TIP3    H261976   1.988   3.887   3.158 -0.3903 -0.1233  0.3833
13521TIP3   OH261977   6.616   4.306   5.373  0.6383  0.2219 -0.1849
13521TIP3    H161978   6.635   4.223   5.330 -0.2905 -0.0385 -0.1083
13521TIP3    H261979   6.530   4.293   5.412  0.4498  1.2573 -0.2501
13522TIP3   OH261980   4.391   5.882  11.502  0.2972 -0.0244 -0.5389
13522TIP3    H161981   4.420   5.967  11.533 -0.2246  0.0260 -0.2086
13522TIP3    H261982   4.471   5.829  11.501  0.2905 -0.0763  1.0228
13523TIP3   OH261983   4.852   5.484   4.924 -0.2731  0.5785  0.2800
13523TIP3    H161984   4.867   5.393   4.948 -1.7322  0.4026  0.5562
13523TIP3    H261985   4.865   5.533   5.005 -1.1594  0.4316  0.5111
13524TIP3   OH261986   0.237   5.443   2.196  0.7564  0.1053 -0.1662
13524TIP3    H161987   0.174   5.482   2.256  1.5954  0.5784  0.4272
13524TIP3    H261988   0.186   5.422   2.118 -0.0449  0.8907  0.1296
13525TIP3   OH261989   4.220   1.060   2.582  0.2525 -0.4697  0.4610
13525TIP3    H161990   4.238   1.076   2.490 -0.4767 -1.3230  0.1716
13525TIP3    H261991   4.253   0.972   2.599 -0.9172 -0.8866  0.6540
13526TIP3   OH261992   4.600   1.705  14.181 -0.0087  0.2704 -0.2004
13526TIP3    H161993   4.507   1.702  14.160 -0.1131  0.1734  0.2735
13526TIP3    H261994   4.612   1.637  14.248  0.1638  1.1259  0.6423
13527TIP3   OH261995   3.970   6.742   1.769 -0.4206 -0.3489 -0.1230
13527TIP3    H161996   4.024   6.704   1.700  0.2736  2.0209 -0.9205
13527TIP3    H261997   3.887   6.763   1.725  0.0964  1.3548 -0.3246
13528TIP3   OH261998   1.574   3.530  15.615  0.0543 -0.2295  0.0552
13528TIP3    H161999   1.559   3.588  15.689 -1.1758  0.3534 -0.6480
13528TIP3    H262000   1.519   3.454  15.631  2.6806 -1.8747  1.6695
13529TIP3   OH262001   0.472   1.343   0.274  0.2038  0.3168  0.0754
13529TIP3    H162002   0.545   1.342   0.212  1.3621 -0.8449  1.4274
13529TIP3    H262003   0.402   1.389   0.228  2.1345  2.4129 -0.8224
13530TIP3   OH262004   5.415   6.012  15.439  0.4879  0.2611 -0.1289
13530TIP3    H162005   5.460   5.935  15.405  1.0133  0.8858 -0.8643
13530TIP3    H262006   5.482   6.081  15.441 -0.3873  1.1687 -1.1447
13531TIP3   OH262007   4.474   5.733  11.755  0.1874  0.0187  0.9125
13531TIP3    H162008   4.516   5.659  11.799 -0.6733 -1.1415 -0.1743
13531TIP3    H262009   4.417   5.693  11.690 -1.8453  1.5869  1.6684
13532TIP3   OH262010   2.838   3.258  15.901 -0.2607 -0.4955  0.0334
13532TIP3    H162011   2.797   3.183  15.943  0.8290 -1.2437 -0.1962
13532TIP3    H262012   2.861   3.318  15.972 -1.2272 -0.3272  0.2059
13533TIP3   OH262013   0.244   0.171  16.769 -0.2154  0.3816  0.2594
13533TIP3    H162014   0.183   0.126  16.828 -0.6272  0.4605 -0.1026
13533TIP3    H262015   0.187   0.213  16.704  0.1973  0.9171  0.2458
13534TIP3   OH262016   4.924   5.796  16.105 -0.3871  0.0604 -0.4108
13534TIP3    H162017   5.012   5.835  16.103  0.0811 -1.0470 -2.8144
13534TIP3    H262018   4.931   5.719  16.050 -2.4623 -1.0027  0.7610
13535TIP3   OH262019   6.134   4.766   3.263 -0.2764 -0.1304  0.6340
13535TIP3    H162020   6.058   4.807   3.224 -1.0386 -2.6101 -0.5833
13535TIP3    H262021   6.100   4.720   3.340 -0.0329 -1.2151  0.1098
13536TIP3   OH262022   3.635   3.442   4.582  0.5440 -0.4412  0.2872
13536TIP3    H162023   3.730   3.449   4.585  0.5810 -0.6397 -0.3765
13536TIP3    H262024   3.606   3.468   4.669  1.1751  0.1322  0.3275
13537TIP3   OH262025   4.488   6.212  13.686 -0.0521 -0.8069  0.3799
13537TIP3    H162026   4.557   6.187  13.625  0.7378 -1.4661  1.5143
13537TIP3    H262027   4.496   6.307  13.694  3.1455 -1.1842  3.2357
13538TIP3   OH262028   0.110   2.471  12.753 -0.3336  0.1740  0.4213
13538TIP3    H162029   0.093   2.515  12.837 -0.3267 -1.8694  1.5334
13538TIP3    H262030   0.086   2.380  12.769  3.2101 -1.0349 -0.6473
13539TIP3   OH262031   0.462   0.560  13.431 -0.5023 -0.3354 -0.0633
13539TIP3    H162032   0.388   0.620  13.417 -1.0218 -1.1688 -0.9856
13539TIP3    H262033   0.484   0.529  13.344 -1.3479 -2.7681  0.5459
13540TIP3   OH262034   1.680   0.928   6.466  0.1332 -0.1260  0.2491
13540TIP3    H162035   1.722   1.010   6.492 -0.2237  0.8233 -2.0173
13540TIP3    H262036   1.617   0.910   6.535  0.5769  1.2333  1.0324
13541TIP3   OH262037   6.305   6.226  13.965 -0.3553  0.2403 -0.5310
13541TIP3    H162038   6.228   6.264  14.006 -0.5253  0.0583 -0.6814
13541TIP3    H262039   6.379   6.263  14.014 -0.6098 -1.6721  1.3457
13542TIP3   OH262040   4.005   4.197  15.426  0.3344  0.1589  0.0961
13542TIP3    H162041   4.069   4.221  15.359 -0.3748  0.3067 -0.5331
13542TIP3    H262042   3.938   4.148  15.379 -0.2652  0.4288  0.6641
13543TIP3   OH262043   6.264   3.209   4.591  0.2154  0.3166  0.0809
13543TIP3    H162044   6.200   3.166   4.647 -0.0355  1.7145  0.8933
13543TIP3    H262045   6.348   3.172   4.617  0.1676  1.3773  1.8075
13544TIP3   OH262046   0.610   3.272  11.468 -0.5190 -0.0352  0.0982
13544TIP3    H162047   0.537   3.212  11.455  0.4570 -1.5456  1.4454
13544TIP3    H262048   0.621   3.277  11.563  0.7049  0.7189 -0.0709
13545TIP3   OH262049   4.644   2.716   0.487  0.6588  0.1631  0.3626
13545TIP3    H162050   4.576   2.746   0.427  0.2086 -0.3580  0.6089
13545TIP3    H262051   4.624   2.623   0.502  1.4527 -0.0043  0.3917
13546TIP3   OH262052   6.500   4.913   5.971 -0.0362  0.2746 -0.2656
13546TIP3    H162053   6.537   4.925   6.058 -1.5387 -0.4158  0.4918
13546TIP3    H262054   6.505   4.819   5.955  0.5235  0.4332 -1.0638
13547TIP3   OH262055   2.202   2.602   3.097 -0.2367 -0.5253 -0.2412
13547TIP3    H162056   2.283   2.646   3.122  0.5623 -1.2057 -1.6057
13547TIP3    H262057   2.140   2.674   3.082  0.6829  0.0878 -1.1491
13548TIP3   OH262058   1.872   3.706   1.462  0.2299  0.1697  0.6467
13548TIP3    H162059   1.870   3.618   1.423  0.5360  0.1555  0.6645
13548TIP3    H262060   1.922   3.759   1.400 -0.7521  0.5618  0.1679
13549TIP3   OH262061   6.720   2.886   1.643  0.2027  0.0546 -0.7852
13549TIP3    H162062   6.772   2.882   1.563  1.0598 -0.5448 -0.2209
13549TIP3    H262063   6.757   2.817   1.698  0.4568  1.2689  0.6077
13550TIP3   OH262064   0.432   1.777  13.017  0.1861 -0.2615  0.2335
13550TIP3    H162065   0.424   1.711  12.949  0.6179 -1.7218  1.5897
13550TIP3    H262066   0.343   1.789  13.049 -0.0004  0.3457 -0.4990
13551TIP3   OH262067   3.411   5.236  16.776  0.0977  0.0099 -0.4348
13551TIP3    H162068   3.333   5.211  16.826 -0.2531  0.5819 -0.6872
13551TIP3    H262069   3.377   5.261  16.691  0.6589 -0.5902 -0.8387
13552TIP3   OH262070   2.544   2.523  15.734 -0.0967 -0.1487  0.2397
13552TIP3    H162071   2.509   2.612  15.726 -0.1291 -0.1504  0.3697
13552TIP3    H262072   2.472   2.467  15.703  0.4383 -0.0508 -1.2298
13553TIP3   OH262073   4.438   5.948   0.226  0.1109  0.2828 -0.0001
13553TIP3    H162074   4.476   5.866   0.258 -0.5987 -0.0499  0.0044
13553TIP3    H262075   4.497   6.016   0.259  0.5971 -0.2081  0.1610
13554TIP3   OH262076   6.255   0.311  10.791  0.4023  0.2540 -0.5012
13554TIP3    H162077   6.288   0.378  10.732 -0.0741  1.3130  0.4139
13554TIP3    H262078   6.323   0.302  10.858  1.3323 -1.5491 -1.6246
13555TIP3   OH262079   2.023   5.338   1.958 -0.5827 -0.0142 -0.2536
13555TIP3    H162080   2.089   5.327   2.026 -0.6036  0.4465 -0.1535
13555TIP3    H262081   2.058   5.291   1.883 -0.4394 -0.3097 -0.0048
13556TIP3   OH262082   1.141   5.787   0.286 -0.4653  0.2329  0.0623
13556TIP3    H162083   1.190   5.714   0.249 -1.6289 -1.2406  1.3679
13556TIP3    H262084   1.207   5.854   0.304  0.5775 -0.3976 -1.3508
13557TIP3   OH262085   0.010   3.903   5.886  0.4706 -0.4471 -0.4732
13557TIP3    H162086  -0.005   3.991   5.921 -1.3559 -0.6727 -0.6174
13557TIP3    H262087   0.078   3.914   5.820  0.7885  0.7330  0.0443
13558TIP3   OH262088   2.526   3.338  12.470 -0.0914 -0.0815  0.3051
13558TIP3    H162089   2.463   3.271  12.445 -1.2082  0.5073  1.5027
13558TIP3    H262090   2.540   3.324  12.564  0.1633  0.9360  0.4272
13559TIP3   OH262091   2.172   4.055   1.803 -0.2060 -0.1439 -0.7958
13559TIP3    H162092   2.211   4.141   1.786 -1.0034  0.4134  0.1673
13559TIP3    H262093   2.206   4.030   1.889 -1.0678 -0.1737 -0.4606
13560TIP3   OH262094   6.478   2.938  10.299 -0.3780  0.8461  0.1367
13560TIP3    H162095   6.430   2.859  10.324  0.1491  0.4790 -0.0167
13560TIP3    H262096   6.432   3.009  10.344 -1.0350  0.4913  0.0370
13561TIP3   OH262097   5.675   3.544   4.633 -0.1116  0.4967 -0.0149
13561TIP3    H162098   5.742   3.482   4.602  0.2027  0.0946  1.4438
13561TIP3    H262099   5.628   3.569   4.554  0.1266 -1.1689 -0.7052
13562TIP3   OH262100   1.096   4.716   2.930  0.2484  0.0364 -0.1812
13562TIP3    H162101   1.094   4.624   2.956  0.0800  0.3299  0.8855
13562TIP3    H262102   1.030   4.723   2.862  0.8300 -0.7962 -0.8451
13563TIP3   OH262103   4.561   0.701  10.766 -0.7695  0.0941 -0.3464
13563TIP3    H162104   4.590   0.775  10.820 -0.7377 -1.5442  1.9383
13563TIP3    H262105   4.633   0.687  10.705  0.5412  0.0779  1.1629
13564TIP3   OH262106   2.536   4.069   6.569  0.0221 -0.0616 -0.5942
13564TIP3    H162107   2.475   4.012   6.617 -0.7022 -1.1934 -2.8220
13564TIP3    H262108   2.612   4.077   6.627 -1.2616 -0.5333  1.2035
13565TIP3   OH262109   5.374   4.361   2.507  0.0785  0.2591  0.0630
13565TIP3    H162110   5.400   4.408   2.586  0.2259 -0.9156  0.7188
13565TIP3    H262111   5.291   4.319   2.530 -0.9564  1.6016 -1.0818
13566TIP3   OH262112   0.891   2.067  11.667  0.7672  0.3593 -0.5127
13566TIP3    H162113   0.892   2.143  11.609 -0.5800  1.6626  1.1276
13566TIP3    H262114   0.911   2.102  11.754  0.7875 -1.2577  0.1606
13567TIP3   OH262115   3.365   5.840  14.265 -0.1932 -0.0947  0.1760
13567TIP3    H162116   3.301   5.770  14.272 -0.1293 -0.2514 -0.7769
13567TIP3    H262117   3.326   5.914  14.311 -0.2959 -0.7268  1.1132
13568TIP3   OH262118   2.692   4.110  14.657  0.2667  0.5249 -0.5466
13568TIP3    H162119   2.742   4.106  14.739  2.5733  1.1789 -1.8529
13568TIP3    H262120   2.759   4.110  14.589 -1.5539  1.6344 -2.3895
13569TIP3   OH262121   3.459   3.306   3.915 -0.2384 -0.0294 -0.1265
13569TIP3    H162122   3.371   3.277   3.889  0.1856 -0.7822 -0.7681
13569TIP3    H262123   3.476   3.260   3.997 -0.4029  0.0424 -0.0507
13570TIP3   OH262124   0.745   0.946   2.801  0.0854 -0.1547  0.2854
13570TIP3    H162125   0.702   0.872   2.758 -0.6451 -0.0155  0.7679
13570TIP3    H262126   0.794   0.907   2.873 -0.1229 -0.1913  0.4069
13571TIP3   OH262127   5.217   4.609  16.921 -0.2667 -0.1770  0.5387
13571TIP3    H162128   5.278   4.587  16.851 -1.9498  1.1708 -1.3857
13571TIP3    H262129   5.192   4.700  16.905 -2.1081 -0.4270  1.7905
13572TIP3   OH262130   6.629   0.456  11.292  0.3299 -0.3253  0.1304
13572TIP3    H162131   6.534   0.472  11.293  0.6153  1.8316 -1.4278
13572TIP3    H262132   6.639   0.368  11.255 -1.0739 -0.5699  0.3177
13573TIP3   OH262133   1.837   3.603  17.137 -0.5134  0.4727 -0.7094
13573TIP3    H162134   1.832   3.535  17.205  2.7718 -1.2813 -2.0804
13573TIP3    H262135   1.763   3.586  17.080 -0.2317 -1.4599 -0.5383
13574TIP3   OH262136   3.629   5.187  15.256 -0.5847  0.4503 -0.1138
13574TIP3    H162137   3.621   5.142  15.340  0.5215 -0.8543 -0.6986
13574TIP3    H262138   3.649   5.278  15.280  2.4415 -0.4435  1.0670
13575TIP3   OH262139   3.348   2.821   2.771 -0.2224 -0.1805  0.0932
13575TIP3    H162140   3.298   2.899   2.747  0.5294  0.2293 -0.1593
13575TIP3    H262141   3.423   2.854   2.819  0.6980 -0.6547 -0.9835
13576TIP3   OH262142   1.570   4.719  15.535 -0.2408  0.0716  0.1422
13576TIP3    H162143   1.622   4.797  15.514 -1.1920  0.8821  0.7313
13576TIP3    H262144   1.515   4.705  15.458 -0.0471 -0.0347  0.0231
13577TIP3   OH262145   3.969   1.257  11.292 -0.4866  0.2461  0.0267
13577TIP3    H162146   4.062   1.243  11.308 -0.4365  0.2129 -0.2899
13577TIP3    H262147   3.954   1.223  11.204 -0.7228  0.5833 -0.0654
13578TIP3   OH262148   5.337   5.177  15.287 -0.1818 -0.3886  0.0187
13578TIP3    H162149   5.249   5.214  15.278 -0.4364 -0.6466  1.2465
13578TIP3    H262150   5.329   5.089  15.251 -0.0878  0.0559 -1.0849
13579TIP3   OH262151   3.337   2.366  16.253  0.0474 -0.0466  0.8867
13579TIP3    H162152   3.252   2.332  16.282  0.0408 -0.8218 -0.0353
13579TIP3    H262153   3.337   2.354  16.158  0.7970  0.8438  0.7704
13580TIP3   OH262154   0.724   2.350   3.721  0.2088  0.0422  0.1832
13580TIP3    H162155   0.798   2.296   3.694 -0.1587 -1.2590  1.6890
13580TIP3    H262156   0.763   2.423   3.768  0.5743 -0.5033  0.7470
13581TIP3   OH262157   1.705   6.066   3.140  0.5295 -0.8258  0.2108
13581TIP3    H162158   1.746   6.054   3.054  0.3396 -0.4144  0.0570
13581TIP3    H262159   1.614   6.088   3.119  0.4951 -0.6787  0.5161
13582TIP3   OH262160   3.550   4.164  12.849  0.2518 -0.0491  0.0609
13582TIP3    H162161   3.538   4.257  12.830 -0.3058 -0.3755 -1.1895
13582TIP3    H262162   3.615   4.135  12.785  0.4405 -0.5189  0.4614
13583TIP3   OH262163   2.815   0.618   5.073  0.1226  0.4084  0.0360
13583TIP3    H162164   2.794   0.710   5.093  1.7812  1.4901 -2.8804
13583TIP3    H262165   2.740   0.588   5.022 -1.1727 -0.4110  2.3423
13584TIP3   OH262166   6.065   6.707  13.054  0.0671 -0.5309 -0.0689
13584TIP3    H162167   6.102   6.793  13.034 -0.0570 -0.6832 -0.9740
13584TIP3    H262168   5.971   6.719  13.043  0.0499 -0.7778 -0.1764
13585TIP3   OH262169   0.838   1.494   4.335  0.0210 -0.1812 -0.0773
13585TIP3    H162170   0.893   1.506   4.258 -1.1854  0.3430 -0.8773
13585TIP3    H262171   0.809   1.582   4.358 -0.4118 -0.4406  0.3906
13586TIP3   OH262172   0.696   5.537   3.868  0.5836 -0.3909 -0.2323
13586TIP3    H162173   0.684   5.544   3.773 -2.0820 -0.6112  0.0359
13586TIP3    H262174   0.659   5.618   3.903 -1.3484 -1.6774  0.8002
13587TIP3   OH262175   3.917   2.866  13.718 -0.3697 -0.0725 -0.8560
13587TIP3    H162176   3.937   2.959  13.705  0.4110 -0.2745 -1.1606
13587TIP3    H262177   3.939   2.849  13.810  0.9584 -0.3024 -1.1990
13588TIP3   OH262178   4.108   0.210   1.727  0.0806 -0.3546 -0.0644
13588TIP3    H162179   4.040   0.276   1.743 -0.0043 -0.1072 -1.3444
13588TIP3    H262180   4.061   0.127   1.728  0.2174 -0.4215  1.7386
13589TIP3   OH262181   3.328   4.980   3.478 -0.7632 -0.4172  0.1162
13589TIP3    H162182   3.261   4.912   3.491 -2.1192  0.9449  0.3441
13589TIP3    H262183   3.369   4.990   3.564 -0.6659 -0.8078  0.1203
13590TIP3   OH262184   6.538   4.440   6.305  0.4090  0.1668  0.1936
13590TIP3    H162185   6.543   4.451   6.210 -0.3178 -1.0534 -0.0011
13590TIP3    H262186   6.627   4.418   6.332  0.5386  0.1295 -0.2601
13591TIP3   OH262187   4.376   0.283  14.383 -0.2583 -0.4947 -0.0189
13591TIP3    H162188   4.283   0.308  14.382 -0.3897 -1.0455 -1.4276
13591TIP3    H262189   4.385   0.219  14.313  1.0025 -1.1642  0.7344
13592TIP3   OH262190   0.291   4.203   0.548 -0.6500 -0.4260  0.2348
13592TIP3    H162191   0.355   4.176   0.614 -0.3756  2.4990  1.2402
13592TIP3    H262192   0.343   4.218   0.469 -0.2550  0.6411  0.6829
13593TIP3   OH262193   0.522   3.787   3.099 -0.3701 -0.1027 -0.5933
13593TIP3    H162194   0.516   3.869   3.148  0.6711  1.3455 -2.7943
13593TIP3    H262195   0.595   3.740   3.139 -1.4558 -0.3128  1.1654
13594TIP3   OH262196   3.127   0.911  14.934  0.0572  0.3592 -0.2565
13594TIP3    H162197   3.106   0.818  14.945  0.0576  0.3545 -0.2969
13594TIP3    H262198   3.205   0.924  14.989  0.3035  0.2439 -0.5747
13595TIP3   OH262199   5.383   6.141  13.499 -0.5824  0.0573  0.4220
13595TIP3    H162200   5.288   6.126  13.504 -0.8112  1.5560  0.8070
13595TIP3    H262201   5.406   6.176  13.585  0.1790  0.4379  0.0643
13596TIP3   OH262202   5.929   3.513   3.160  0.9880 -0.2692  0.4947
13596TIP3    H162203   5.865   3.580   3.184 -0.3885 -1.4929  0.3191
13596TIP3    H262204   5.883   3.430   3.173  2.2439 -1.1464 -0.5201
13597TIP3   OH262205   5.620   3.191  11.309  0.2375  0.9102 -0.2570
13597TIP3    H162206   5.698   3.178  11.256 -1.0184 -0.3515 -1.8462
13597TIP3    H262207   5.561   3.241  11.253 -0.3911  1.1901  0.6416
13598TIP3   OH262208   6.288   2.872   3.876 -0.6371  0.3535 -0.4114
13598TIP3    H162209   6.231   2.896   3.950 -1.4719  1.9198 -1.5147
13598TIP3    H262210   6.372   2.853   3.916 -1.4687 -0.2966  1.0933
13599TIP3   OH262211   0.559   6.444  12.850 -0.3257 -0.3638  0.1251
13599TIP3    H162212   0.604   6.511  12.798 -1.5494 -0.0922 -0.5899
13599TIP3    H262213   0.467   6.451  12.825 -0.3003 -3.1812 -0.8941
13600TIP3   OH262214   0.131   3.600   4.704  0.0692  0.3183 -0.2405
13600TIP3    H162215   0.106   3.638   4.619  1.2275  0.7317 -0.4039
13600TIP3    H262216   0.169   3.515   4.683  0.0573  0.2779 -0.1016
13601TIP3   OH262217   6.064   0.802  13.120  0.0052  1.1566 -0.6403
13601TIP3    H162218   6.070   0.845  13.034  0.2426  0.5686 -0.9171
13601TIP3    H262219   6.114   0.859  13.179  0.0458  1.4321 -0.9390
13602TIP3   OH262220   1.368   3.904  10.604  0.4517 -0.3104  0.0998
13602TIP3    H162221   1.321   3.975  10.649  0.1775 -0.6865  0.4009
13602TIP3    H262222   1.460   3.919  10.626  0.1545 -1.5299  2.2329
13603TIP3   OH262223   5.849   6.383  10.428 -0.6914 -0.7231  0.8882
13603TIP3    H162224   5.810   6.470  10.438 -3.4330 -1.4654 -2.4615
13603TIP3    H262225   5.914   6.394  10.359 -1.1564 -1.3519  0.3480
13604TIP3   OH262226   3.710   0.314  12.049  0.3721 -0.1321 -0.4035
13604TIP3    H162227   3.718   0.354  11.962 -0.0279  1.3416  0.2225
13604TIP3    H262228   3.638   0.361  12.091 -1.1294 -2.5603 -0.1839
13605TIP3   OH262229   6.006   2.885  16.252  0.2110 -0.2538  0.1142
13605TIP3    H162230   6.051   2.962  16.288  1.2170 -0.9484  0.3714
13605TIP3    H262231   5.931   2.871  16.310 -0.0969  0.6549 -0.0561
13606TIP3   OH262232   0.767   0.958   3.991 -0.5312 -0.0733  0.3391
13606TIP3    H162233   0.747   0.969   3.898  2.3732  0.8587 -0.2043
13606TIP3    H262234   0.682   0.968   4.035 -1.6833  1.0357 -2.0699
13607TIP3   OH262235   2.739   2.374   1.561 -0.2391 -0.2906 -0.2621
13607TIP3    H162236   2.828   2.349   1.588 -1.0840 -3.1495  0.0303
13607TIP3    H262237   2.683   2.345   1.633 -1.4162  1.8397 -0.2723
13608TIP3   OH262238   2.371   2.349  12.955 -0.0069  0.2871  0.0536
13608TIP3    H162239   2.413   2.298  13.024 -1.5191  0.9214  1.4729
13608TIP3    H262240   2.422   2.329  12.877  2.1876  0.1289  1.4804
13609TIP3   OH262241   1.151   5.376   2.182  0.0549 -0.1669  0.5447
13609TIP3    H162242   1.094   5.395   2.256 -0.8924 -0.1922 -0.1716
13609TIP3    H262243   1.224   5.438   2.192 -0.5875  0.5380  0.9115
13610TIP3   OH262244   2.722   0.316  16.484  0.0134  0.0866  0.2512
13610TIP3    H162245   2.794   0.316  16.548 -0.3182  1.4906  0.6343
13610TIP3    H262246   2.704   0.223  16.470  0.6985 -0.2656  1.5207
13611TIP3   OH262247   1.523   2.438  13.727  0.3761 -0.3292  0.0070
13611TIP3    H162248   1.606   2.437  13.776  0.6689 -0.2015 -0.4789
13611TIP3    H262249   1.469   2.501  13.774  0.3681 -0.7926  0.6286
13612TIP3   OH262250   4.027   6.500  12.000 -0.2034 -0.2479 -0.3148
13612TIP3    H162251   4.023   6.447  12.080  0.1115  1.3575  0.7790
13612TIP3    H262252   3.940   6.491  11.961 -0.1533 -1.5631 -0.1425
13613TIP3   OH262253   3.193   0.771   2.202  0.0531  0.2937  0.2478
13613TIP3    H162254   3.254   0.796   2.272 -0.5918  0.3035  0.8165
13613TIP3    H262255   3.159   0.686   2.230 -0.4373  0.4400  0.0952
13614TIP3   OH262256   4.055   1.921  14.036  0.3984 -0.3359 -0.2559
13614TIP3    H162257   4.078   1.922  13.943 -0.5413  0.0365 -0.4828
13614TIP3    H262258   4.066   1.829  14.063  1.1988 -0.3464 -0.5934
13615TIP3   OH262259   5.486   6.604  13.224 -0.3626 -0.4562  0.4361
13615TIP3    H162260   5.537   6.526  13.204  0.9674  1.0290 -2.0822
13615TIP3    H262261   5.550   6.669  13.252 -1.0399  0.8867 -1.0641
13616TIP3   OH262262   6.614   4.706  13.516 -0.6684  0.0915 -0.8295
13616TIP3    H162263   6.556   4.760  13.570  0.3341 -0.1453  0.5071
13616TIP3    H262264   6.615   4.621  13.559  1.5482  0.4105 -0.1685
13617TIP3   OH262265   0.895   2.978   2.801  0.2510  0.7717 -0.2857
13617TIP3    H162266   0.825   2.941   2.854  1.4748 -1.6656 -0.3346
13617TIP3    H262267   0.851   3.004   2.720 -0.9678  1.2321  0.5018
13618TIP3   OH262268   0.204   0.823   0.249 -0.4993  0.0580  0.0527
13618TIP3    H162269   0.295   0.795   0.255 -0.5713  0.1314  1.9543
13618TIP3    H262270   0.157   0.747   0.215  0.4720  0.5205 -2.4358
13619TIP3   OH262271   5.730   2.813  11.142 -0.0323 -0.1464 -0.2578
13619TIP3    H162272   5.719   2.720  11.122  1.1905 -0.0201 -1.5726
13619TIP3    H262273   5.706   2.858  11.062 -1.8342  0.7726  0.7589
13620TIP3   OH262274   4.843   1.409   3.319  0.5317  0.6516  0.3476
13620TIP3    H162275   4.889   1.428   3.238  0.0737 -0.3320 -0.1508
13620TIP3    H262276   4.789   1.333   3.299 -1.8782  2.2149  0.7315
13621TIP3   OH262277   3.106   0.115   2.810 -0.3415  0.2942  0.0672
13621TIP3    H162278   3.188   0.129   2.764  0.8131 -1.8548  1.3651
13621TIP3    H262279   3.070   0.035   2.770 -0.8653  0.1843  0.7491
13622TIP3   OH262280   3.632   6.421  14.790  0.3253 -0.6392 -0.4068
13622TIP3    H162281   3.698   6.428  14.860  0.0621  0.1366 -0.2315
13622TIP3    H262282   3.653   6.492  14.730  0.5318 -1.2847 -1.1149
13623TIP3   OH262283   3.880   0.888   3.477 -0.0034  0.2467 -0.0270
13623TIP3    H162284   3.907   0.845   3.558  1.0797  1.4869  0.2850
13623TIP3    H262285   3.842   0.970   3.505  3.2542  2.1537 -0.8985
13624TIP3   OH262286   6.211   2.261  16.604 -0.2732 -0.0859 -0.6297
13624TIP3    H162287   6.117   2.280  16.601 -0.3364 -0.3860 -0.5699
13624TIP3    H262288   6.216   2.170  16.635  0.0607  0.1133 -0.1023
13625TIP3   OH262289   3.538   4.932   3.325  0.2283 -0.0222  0.2619
13625TIP3    H162290   3.449   4.926   3.360  0.5775  1.7535  1.4708
13625TIP3    H262291   3.557   5.025   3.322  2.4199 -0.4229  0.9287
13626TIP3   OH262292   0.305   2.548  12.563 -0.2738 -0.3327 -0.1515
13626TIP3    H162293   0.240   2.515  12.624 -0.3354 -1.3562 -0.7635
13626TIP3    H262294   0.334   2.631  12.601 -3.3716  1.1651 -0.8503
13627TIP3   OH262295   2.174   2.073  11.886 -0.3096  0.2738 -0.0781
13627TIP3    H162296   2.081   2.091  11.874 -0.2442  0.5907 -0.1058
13627TIP3    H262297   2.214   2.159  11.897 -0.0265  0.1347 -0.0143
13628TIP3   OH262298   4.224   2.607  12.035 -0.1558  0.4132 -0.3082
13628TIP3    H162299   4.158   2.559  12.084  0.6699  0.6543  1.0639
13628TIP3    H262300   4.188   2.695  12.026  0.0367  0.5876  0.5772
13629TIP3   OH262301   3.907   2.665  14.809  0.0699 -0.8385 -0.5960
13629TIP3    H162302   3.992   2.626  14.829  0.5787  0.1999 -0.7194
13629TIP3    H262303   3.918   2.705  14.723 -0.6866 -1.0962 -0.8185
13630TIP3   OH262304   3.203   1.994   2.865 -0.0351  0.4864  0.0607
13630TIP3    H162305   3.109   2.010   2.873  0.0700  0.9443  0.3605
13630TIP3    H262306   3.226   1.941   2.941  0.1774  1.3787  0.6172
13631TIP3   OH262307   2.613   2.402   4.713 -0.1240 -0.8815  0.1313
13631TIP3    H162308   2.696   2.381   4.756  0.3147  0.2509 -0.1410
13631TIP3    H262309   2.638   2.434   4.627 -0.8141  0.0688  0.2790
13632TIP3   OH262310   3.909   1.161  11.046 -0.7637  0.0870  0.1997
13632TIP3    H162311   3.883   1.071  11.066 -1.6594  0.5400  1.1233
13632TIP3    H262312   3.827   1.210  11.045 -0.0451  1.4472  2.6608
13633TIP3   OH262313   6.083   3.892  15.228  0.7064  0.0061 -0.2887
13633TIP3    H162314   6.122   3.913  15.143 -1.2939 -1.7017 -1.7028
13633TIP3    H262315   6.119   3.806  15.250 -0.8845 -0.8003 -0.7705
13634TIP3   OH262316   2.368   1.517  10.833 -0.1547  0.7469 -0.1585
13634TIP3    H162317   2.389   1.444  10.774  1.1282  0.3483  0.7660
13634TIP3    H262318   2.416   1.591  10.798  0.7803  0.4572  0.5015
13635TIP3   OH262319   5.480   2.320   1.451 -0.5343  0.5947 -0.2668
13635TIP3    H162320   5.424   2.339   1.376  1.1894  0.8532 -1.5191
13635TIP3    H262321   5.502   2.227   1.442  1.0923  1.0448 -1.0759
13636TIP3   OH262322   5.673   0.453  13.236  0.3977 -0.0364  0.4963
13636TIP3    H162323   5.628   0.462  13.152  1.3813 -0.1410 -0.0468
13636TIP3    H262324   5.616   0.396  13.288  0.0530 -0.4134 -0.2918
13637TIP3   OH262325   6.479   5.096  15.316 -0.4748 -0.5477  0.0724
13637TIP3    H162326   6.572   5.072  15.325  0.1263  2.2645  2.0485
13637TIP3    H262327   6.434   5.041  15.379 -0.0102 -1.1722 -0.1326
13638TIP3   OH262328   2.183   0.227  13.768 -0.7711  0.0674 -0.6312
13638TIP3    H162329   2.278   0.216  13.759 -0.8729  1.0280 -3.1894
13638TIP3    H262330   2.155   0.150  13.818  1.3760 -0.1021  0.3560
13639TIP3   OH262331   5.890   2.954   5.081  0.0516 -0.0449  0.1459
13639TIP3    H162332   5.930   3.020   5.024 -0.9423 -1.0128 -1.7557
13639TIP3    H262333   5.859   2.887   5.020 -1.3540 -0.9606  1.8304
13640TIP3   OH262334   5.000   6.574  11.319 -0.6655 -0.1193 -0.4400
13640TIP3    H162335   4.909   6.550  11.337 -1.4848  2.7245 -0.6247
13640TIP3    H262336   5.019   6.643  11.382  0.3851  1.4041 -2.3767
13641TIP3   OH262337   6.496   3.450  16.443 -0.4004 -0.4441  0.0818
13641TIP3    H162338   6.482   3.512  16.515 -0.9547 -2.0460  1.3843
13641TIP3    H262339   6.556   3.495  16.384 -0.5686  1.2202  1.1410
13642TIP3   OH262340   4.298   5.562  15.565  0.1116  0.1017  0.7244
13642TIP3    H162341   4.208   5.591  15.579 -0.1518  0.6135 -1.8835
13642TIP3    H262342   4.352   5.637  15.588 -0.0989 -0.2785  2.5052
13643TIP3   OH262343   6.311   0.839  11.917  0.0016  0.7267  0.2262
13643TIP3    H162344   6.374   0.808  11.982 -0.4200  0.5159  0.5369
13643TIP3    H262345   6.231   0.855  11.967 -0.5045 -0.0132 -0.3288
13644TIP3   OH262346   1.383   6.630   1.072 -0.4553 -0.4016  0.4344
13644TIP3    H162347   1.418   6.716   1.049  1.0933 -0.8573  1.0517
13644TIP3    H262348   1.368   6.635   1.167 -0.7910 -0.6691  0.3963
13645TIP3   OH262349   4.434   2.596   3.935 -0.3134  0.4387  0.1566
13645TIP3    H162350   4.510   2.648   3.962 -0.2607 -0.1297  1.0982
13645TIP3    H262351   4.367   2.617   3.999 -0.8054  0.5636 -0.3934
13646TIP3   OH262352   4.794   3.702   3.400  0.0474 -0.3216  1.0129
13646TIP3    H162353   4.883   3.722   3.430 -0.3479  0.0095  1.9767
13646TIP3    H262354   4.777   3.765   3.331  0.1562  0.3282  1.5755
13647TIP3   OH262355   3.395   5.444   4.692 -0.6459 -0.5471  0.3434
13647TIP3    H162356   3.371   5.381   4.760 -1.3472 -1.5378 -0.8071
13647TIP3    H262357   3.326   5.437   4.626  0.7076 -0.5633 -1.1074
13648TIP3   OH262358   4.963   1.904  14.995  0.1309  0.7573 -0.1886
13648TIP3    H162359   4.981   1.824  15.045 -0.3156 -0.4012 -1.8376
13648TIP3    H262360   5.027   1.904  14.924 -1.2097  0.7637 -1.4208
13649TIP3   OH262361   0.136   1.322   1.374  0.2104  0.3687  0.0424
13649TIP3    H162362   0.111   1.302   1.284 -0.3739  0.3618  0.2036
13649TIP3    H262363   0.058   1.303   1.426 -0.1341  2.3525  0.2973
13650TIP3   OH262364   0.394   4.766  15.166 -0.1142  0.3296 -0.0027
13650TIP3    H162365   0.350   4.850  15.167 -1.0044 -0.1064  2.3146
13650TIP3    H262366   0.324   4.702  15.152  0.4145 -0.0761 -0.8005
13651TIP3   OH262367   3.983   1.521   2.497 -0.0819  0.5561 -0.4852
13651TIP3    H162368   3.948   1.588   2.439  1.0078  1.6611  0.0951
13651TIP3    H262369   3.922   1.519   2.571  0.7688  2.1223  0.2927
13652TIP3   OH262370   0.811   4.043   3.546 -0.9740 -0.4772 -0.0090
13652TIP3    H162371   0.794   4.045   3.641  1.0503  0.9386  0.3623
13652TIP3    H262372   0.748   4.105   3.510  0.1845  1.2352  0.8000
13653TIP3   OH262373   3.785   0.441  11.785  0.6265 -0.4259  0.1309
13653TIP3    H162374   3.742   0.419  11.702 -1.9218  0.3565  1.1669
13653TIP3    H262375   3.776   0.536  11.792 -1.0970 -0.6922  2.2585
13654TIP3   OH262376   6.498   4.370   1.439  0.6707  0.0072 -0.6113
13654TIP3    H162377   6.489   4.442   1.502 -1.6190 -1.3677  0.7020
13654TIP3    H262378   6.458   4.405   1.359  0.9522  0.7283 -0.4465
13655TIP3   OH262379   4.003   2.612  13.427 -0.0419  0.3367 -0.4722
13655TIP3    H162380   3.968   2.523  13.430 -1.2162  0.7676 -0.9633
13655TIP3    H262381   4.089   2.606  13.468 -1.1023 -0.5625  1.6676
13656TIP3   OH262382   2.932   6.377   1.212  0.2389 -0.3902 -0.1531
13656TIP3    H162383   2.930   6.285   1.187 -1.1170 -1.3135  3.0625
13656TIP3    H262384   2.873   6.420   1.149 -0.1258 -1.9426 -0.8962
13657TIP3   OH262385   5.420   2.788   0.870  0.2880 -0.2151 -0.3632
13657TIP3    H162386   5.445   2.741   0.790 -2.1738 -1.0404 -0.6992
13657TIP3    H262387   5.410   2.879   0.842 -0.0643 -0.4149 -0.8886
13658TIP3   OH262388   1.195   1.665  15.310 -0.4194 -0.1180  0.0724
13658TIP3    H162389   1.106   1.635  15.289  0.2718 -0.6759 -2.2229
13658TIP3    H262390   1.212   1.630  15.398 -2.5045  0.1171  0.6034
13659TIP3   OH262391   2.073   2.448  13.592 -0.1403 -0.4695 -1.1590
13659TIP3    H162392   2.099   2.359  13.614  0.5406 -0.0444 -0.2138
13659TIP3    H262393   2.024   2.478  13.669  0.0409  0.1339 -1.2746
13660TIP3   OH262394   1.008   4.039   1.075 -0.0435 -0.1015 -0.4544
13660TIP3    H162395   0.986   4.036   0.982 -0.2858  0.2252 -0.4107
13660TIP3    H262396   1.076   3.973   1.087  1.2120  1.0535 -1.1902
13661TIP3   OH262397   3.086   3.542  14.663  0.2617 -1.0124  0.1460
13661TIP3    H162398   3.010   3.550  14.721 -0.8872 -0.7237 -1.3585
13661TIP3    H262399   3.055   3.488  14.590  1.4562 -0.7399 -0.5771
13662TIP3   OH262400   4.334   4.860  16.828 -0.2090  0.3279  0.3565
13662TIP3    H162401   4.346   4.904  16.913  0.5379 -0.2106  0.5277
13662TIP3    H262402   4.377   4.776  16.838 -0.6243  0.0239 -0.3767
13663TIP3   OH262403   4.587   0.193  14.529  0.1722 -0.1573  0.9910
13663TIP3    H162404   4.547   0.114  14.567  0.6887 -1.6743 -1.5128
13663TIP3    H262405   4.515   0.238  14.486  0.0696  0.2361  1.5611
13664TIP3   OH262406   2.942   0.469  15.196 -0.0213  0.1655 -0.1473
13664TIP3    H162407   2.895   0.400  15.243 -1.2999  2.4685  2.0879
13664TIP3    H262408   2.898   0.550  15.221 -0.1591  1.6554 -4.6245
13665TIP3   OH262409   4.102   0.952   4.272  0.0833  0.8760  0.0523
13665TIP3    H162410   4.152   0.933   4.192 -2.5426 -0.1451 -1.3982
13665TIP3    H262411   4.078   1.044   4.264 -0.3293  0.7275 -0.4223
13666TIP3   OH262412   0.696   2.301   1.948  0.6061 -0.4951 -0.2201
13666TIP3    H162413   0.778   2.341   1.920  0.1335 -0.8239 -2.1324
13666TIP3    H262414   0.698   2.307   2.043  3.2602 -1.3308 -0.1894
13667TIP3   OH262415   3.503   0.309   1.138  0.5603 -0.4062  0.8948
13667TIP3    H162416   3.475   0.227   1.178 -1.4348  0.2643  0.9413
13667TIP3    H262417   3.535   0.362   1.211  0.8170 -0.7207  1.0125
13668TIP3   OH262418   1.270   3.768  15.139  0.3951 -0.2173 -0.0194
13668TIP3    H162419   1.237   3.722  15.216  0.4362  1.1623  0.8495
13668TIP3    H262420   1.206   3.750  15.070  0.1499 -1.1424  0.4465
13669TIP3   OH262421   1.797   1.696   2.956  0.1513 -0.5246 -0.1891
13669TIP3    H162422   1.703   1.705   2.940  0.0675  0.3237  0.7070
13669TIP3    H262423   1.826   1.785   2.978  0.7926 -1.1108  1.4098
13670TIP3   OH262424   3.457   1.595   5.983 -0.1983 -0.1219 -0.5495
13670TIP3    H162425   3.392   1.527   5.996 -1.5233  1.3230  0.6257
13670TIP3    H262426   3.497   1.607   6.069 -0.7458  1.3234 -0.4794
13671TIP3   OH262427   2.166   5.161  12.026 -0.2355 -0.2723 -0.7232
13671TIP3    H162428   2.195   5.134  11.940 -3.2906 -1.0692 -1.5478
13671TIP3    H262429   2.199   5.094  12.086 -0.0052 -0.9121 -1.5704
13672TIP3   OH262430   6.634   0.106  17.058 -0.0960  0.2101 -0.2664
13672TIP3    H162431   6.590   0.024  17.035  0.7161  0.0840 -1.3999
13672TIP3    H262432   6.669   0.139  16.975  0.3669  1.2400  0.3259
13673TIP3   OH262433   5.939   1.688   2.947  0.5398 -0.0412  0.8048
13673TIP3    H162434   5.960   1.658   3.035 -0.4779 -1.1929  0.6555
13673TIP3    H262435   6.016   1.738   2.920  0.9644  0.0913  2.2360
13674TIP3   OH262436   2.870   1.934   3.226  0.2910  0.1412  0.0469
13674TIP3    H162437   2.795   1.962   3.173  1.0531  0.0814 -1.0943
13674TIP3    H262438   2.833   1.872   3.289 -0.4122 -0.9414 -1.3975
13675TIP3   OH262439   1.600   4.081  11.772  0.4054 -0.3511 -0.0370
13675TIP3    H162440   1.560   4.040  11.849  1.0351  0.0878  0.5286
13675TIP3    H262441   1.693   4.085  11.793  0.4378  0.7783 -0.3558
13676TIP3   OH262442   0.766   2.702  13.856 -0.4904 -0.2149 -0.0460
13676TIP3    H162443   0.759   2.638  13.785 -2.3418  0.6001 -0.6250
13676TIP3    H262444   0.734   2.656  13.934 -1.2065 -0.2035 -0.3327
13677TIP3   OH262445   6.476   0.392   1.373 -0.3927 -0.7040  0.4751
13677TIP3    H162446   6.570   0.397   1.389 -0.8007  0.3861  2.7526
13677TIP3    H262447   6.464   0.312   1.322  2.0413  0.5127 -2.1562
13678TIP3   OH262448   3.770   1.042  12.148 -0.0084 -0.2054  0.0112
13678TIP3    H162449   3.694   1.062  12.202 -0.0721 -2.1308  0.6478
13678TIP3    H262450   3.811   0.967  12.190  1.6013  0.0910 -0.9825
13679TIP3   OH262451   2.326   2.553  16.786 -0.6391  0.8937 -0.3983
13679TIP3    H162452   2.292   2.541  16.698 -1.0730 -0.4731 -0.0516
13679TIP3    H262453   2.248   2.565  16.841 -0.5602 -1.5432  0.2950
13680TIP3   OH262454   4.400   0.365   0.947 -0.1006  0.0046  0.0431
13680TIP3    H162455   4.365   0.381   0.860  1.0285 -0.5900 -0.5314
13680TIP3    H262456   4.488   0.401   0.945  0.4670 -1.3310  0.4640
13681TIP3   OH262457   4.184   2.583  15.246  0.6152 -0.2968 -0.0458
13681TIP3    H162458   4.228   2.667  15.262  0.7555 -0.3255 -0.2749
13681TIP3    H262459   4.106   2.585  15.301  1.0462 -0.3582  0.5770
13682TIP3   OH262460   4.355   4.614   0.744 -0.2429  0.3005  0.5249
13682TIP3    H162461   4.333   4.694   0.790  0.5999  0.0750  1.3282
13682TIP3    H262462   4.402   4.643   0.665 -0.2290  0.6133  0.6511
13683TIP3   OH262463   5.009   5.412   6.020  0.4764  0.4569 -0.0083
13683TIP3    H162464   5.050   5.493   6.051  0.6855 -0.2229  1.5125
13683TIP3    H262465   5.082   5.350   6.012  0.3522  0.4772 -1.3878
13684TIP3   OH262466   4.922   2.480  10.828  0.1267  0.2670 -0.0976
13684TIP3    H162467   4.973   2.402  10.851  2.5171  1.5106 -1.0101
13684TIP3    H262468   4.873   2.455  10.750 -0.7570 -0.9660  0.8236
13685TIP3   OH262469   0.144   3.585   0.994 -0.2337  0.3249  0.0153
13685TIP3    H162470   0.121   3.589   0.901  0.9706 -2.0804 -0.4259
13685TIP3    H262471   0.237   3.562   0.995  0.0850  1.5685  1.8220
13686TIP3   OH262472   1.848   6.398  15.859 -0.5006 -0.2479 -0.2332
13686TIP3    H162473   1.927   6.451  15.873 -0.4281 -0.4663  0.1760
13686TIP3    H262474   1.802   6.444  15.788 -0.7589  0.7166  0.5500
13687TIP3   OH262475   5.400   3.010  11.108 -0.3782 -0.1678 -0.0739
13687TIP3    H162476   5.428   3.101  11.111  0.5534 -0.5053  2.8426
13687TIP3    H262477   5.308   3.014  11.081 -0.3487  1.6193  0.0378
13688TIP3   OH262478   5.919   2.528  12.653  0.0307  0.1692  0.6372
13688TIP3    H162479   5.919   2.521  12.557 -0.8098  1.8092  0.4996
13688TIP3    H262480   5.845   2.586  12.672  0.4904  0.2262  2.2490
13689TIP3   OH262481   6.556   0.079  16.771  0.4471  0.1530 -0.5207
13689TIP3    H162482   6.514   0.016  16.713 -0.2671  1.1454 -1.0950
13689TIP3    H262483   6.650   0.062  16.761  0.2303 -3.3208  2.1566
13690TIP3   OH262484   6.073   3.823   1.414  0.3465  0.1085 -0.4072
13690TIP3    H162485   6.023   3.786   1.341 -0.6882  1.8970 -0.6355
13690TIP3    H262486   6.017   3.811   1.490  0.7384 -0.3157 -0.1859
13691TIP3   OH262487   4.769   3.020   4.999 -0.8006  0.0756 -0.4801
13691TIP3    H162488   4.845   2.981   5.042 -0.0615  0.9645 -0.9740
13691TIP3    H262489   4.792   3.022   4.907 -0.8105  1.7280 -0.4580
13692TIP3   OH262490   3.562   5.863   6.555 -0.1689 -0.0325 -0.6571
13692TIP3    H162491   3.543   5.954   6.577  0.7354  0.2157 -0.8596
13692TIP3    H262492   3.657   5.861   6.544 -0.0514 -1.2494  0.4737
13693TIP3   OH262493   4.534   2.288   5.261 -0.6117  0.0441  0.0099
13693TIP3    H162494   4.482   2.220   5.219  0.6702 -0.0034 -1.5766
13693TIP3    H262495   4.517   2.366   5.210  2.3985 -0.4259 -1.8395
13694TIP3   OH262496   2.322   4.474   2.800  0.0734 -0.0391  0.1429
13694TIP3    H162497   2.367   4.552   2.831  0.2700  0.1625 -0.6320
13694TIP3    H262498   2.385   4.403   2.811  0.5484  0.2204 -0.8167
13695TIP3   OH262499   2.572   6.704  12.191 -0.8409 -0.3889  0.2828
13695TIP3    H162500   2.572   6.689  12.096 -1.0525 -1.4357  0.4371
13695TIP3    H262501   2.534   6.791  12.202 -0.9246 -0.3135 -0.5889
13696TIP3   OH262502   0.180   4.677  16.777 -0.4045  0.1932 -0.2184
13696TIP3    H162503   0.159   4.598  16.727  2.2112 -0.6275 -0.1015
13696TIP3    H262504   0.215   4.738  16.712  0.7357  0.0077  0.2163
13697TIP3   OH262505   6.168   2.670  16.317 -0.4847 -0.1496  0.1848
13697TIP3    H162506   6.103   2.635  16.378 -0.0119  1.2157  1.4806
13697TIP3    H262507   6.120   2.734  16.265 -1.0113 -1.6663 -1.2666
13698TIP3   OH262508   6.051   1.884   5.578 -0.0302  0.4021 -0.0546
13698TIP3    H162509   6.115   1.916   5.514  0.3094 -0.7670 -0.3015
13698TIP3    H262510   6.039   1.958   5.638  0.6929  1.0252 -0.6592
13699TIP3   OH262511   6.757   4.600   0.028  0.3073  0.1124 -0.2674
13699TIP3    H162512   6.793   4.674  -0.021  0.2749  1.5251  1.7807
13699TIP3    H262513   6.830   4.570   0.083 -0.2979  0.0167  0.4919
13700TIP3   OH262514   2.647   0.541   0.307  0.1332  0.2076 -0.2642
13700TIP3    H162515   2.622   0.631   0.285  0.4313  0.7441  1.4860
13700TIP3    H262516   2.575   0.508   0.360  1.1549  0.2943  1.2131
13701TIP3   OH262517   4.164   4.515   1.290  0.3203  0.2215  0.0763
13701TIP3    H162518   4.232   4.580   1.270 -0.2527  0.5702 -0.7545
13701TIP3    H262519   4.115   4.506   1.209  1.3351 -2.4009 -0.3013
13702TIP3   OH262520   4.778   0.679  11.154  0.1343 -0.3072  0.2766
13702TIP3    H162521   4.686   0.673  11.128  0.5258  0.0137 -1.1898
13702TIP3    H262522   4.801   0.590  11.180 -0.8463 -0.2054  1.5648
13703TIP3   OH262523   5.156   4.837  11.047  0.1453  0.0362 -0.8665
13703TIP3    H162524   5.113   4.918  11.020 -1.2554 -0.5085 -0.2892
13703TIP3    H262525   5.229   4.827  10.986  0.4767  1.8628 -0.7943
13704TIP3   OH262526   6.700   0.571  10.959  0.4741 -0.3938  0.1945
13704TIP3    H162527   6.693   0.662  10.989  0.8217  0.0574 -1.0658
13704TIP3    H262528   6.706   0.520  11.040 -2.3422  0.4493  0.9956
13705TIP3   OH262529   3.308   1.139   4.446  0.3802 -0.1578 -0.1977
13705TIP3    H162530   3.318   1.234   4.451 -2.5324  0.1765  0.0934
13705TIP3    H262531   3.341   1.107   4.530  1.8765  0.5300 -0.5115
13706TIP3   OH262532   1.862   3.410  15.829 -0.2506  0.7390  0.1809
13706TIP3    H162533   1.831   3.427  15.917 -0.7261 -0.9232  0.3472
13706TIP3    H262534   1.784   3.384  15.780  0.1673  0.7278 -0.4956
13707TIP3   OH262535   5.760   0.484   1.065 -0.1327  0.6626 -0.1644
13707TIP3    H162536   5.738   0.501   0.973 -0.5761  2.0925  0.1972
13707TIP3    H262537   5.837   0.540   1.082  0.5947 -0.3861  0.0491
13708TIP3   OH262538   1.826   2.307  13.940 -0.5426  0.0648 -0.0972
13708TIP3    H162539   1.836   2.396  13.972  0.8296 -0.0463 -0.1906
13708TIP3    H262540   1.749   2.274  13.985 -0.6646  1.0736  0.4429
13709TIP3   OH262541   1.517   4.299  16.244 -0.0802 -0.5943  0.3404
13709TIP3    H162542   1.444   4.334  16.296  1.7659  0.9928  1.9420
13709TIP3    H262543   1.492   4.316  16.153 -1.4393  0.4886  0.8926
13710TIP3   OH262544   5.471   6.247  16.947  0.0389 -0.4760  0.2595
13710TIP3    H162545   5.379   6.268  16.931 -0.1101 -1.7733 -0.6874
13710TIP3    H262546   5.479   6.242  17.043 -0.5322  1.0709  0.3978
13711TIP3   OH262547   6.566   3.990  12.601  0.3402 -0.1770 -0.4919
13711TIP3    H162548   6.590   4.081  12.622  0.1186  0.0673 -1.3049
13711TIP3    H262549   6.550   3.990  12.507 -1.4849 -0.6612 -0.1910
13712TIP3   OH262550   3.316   4.426  17.114 -0.2686 -0.1285 -0.2350
13712TIP3    H162551   3.299   4.491  17.183 -0.3611  1.3906 -1.6700
13712TIP3    H262552   3.411   4.425  17.106 -0.3053  0.4107 -0.7556
13713TIP3   OH262553   5.479   2.685  12.934 -0.1122 -0.0773 -0.0040
13713TIP3    H162554   5.527   2.658  12.856  0.6574  0.9437  0.1133
13713TIP3    H262555   5.539   2.668  13.007 -0.6016 -0.4579  0.3204
13714TIP3   OH262556   0.769   0.860  16.638 -0.3284  0.6005 -0.7897
13714TIP3    H162557   0.701   0.850  16.704  0.9972 -0.9421  0.3604
13714TIP3    H262558   0.721   0.871  16.556 -1.9927  2.3525  0.3528
13715TIP3   OH262559   1.176   2.550   1.261 -0.2441  0.1879  0.3974
13715TIP3    H162560   1.194   2.482   1.325 -1.9432 -0.2364  0.4401
13715TIP3    H262561   1.190   2.508   1.176  3.9889  1.2954  0.4337
13716TIP3   OH262562   4.480   0.146  12.032 -0.3078  0.4633 -0.2553
13716TIP3    H162563   4.384   0.148  12.042 -0.5217  0.5147 -2.0697
13716TIP3    H262564   4.493   0.113  11.943  1.3468  1.3752 -0.3586
13717TIP3   OH262565   2.531   4.696   0.335 -0.8105  0.6387 -0.3105
13717TIP3    H162566   2.496   4.758   0.399 -0.0403  0.9641 -0.2009
13717TIP3    H262567   2.460   4.633   0.321 -1.0988  0.7479  0.6331
13718TIP3   OH262568   5.852   1.903  11.291  0.2184  0.2502 -0.4973
13718TIP3    H162569   5.778   1.923  11.234 -0.2250 -0.8966 -0.3428
13718TIP3    H262570   5.840   1.959  11.367 -0.8223 -0.3657 -0.2084
13719TIP3   OH262571   0.970   2.376   3.496  0.3048 -0.0977  0.0337
13719TIP3    H162572   0.900   2.362   3.432 -0.2044 -1.6671  0.8952
13719TIP3    H262573   0.972   2.470   3.510 -0.9898  0.0568 -0.7463
13720TIP3   OH262574   4.532   3.324  14.784  0.1164 -0.2439 -0.6119
13720TIP3    H162575   4.530   3.411  14.823  1.1731 -1.1691  1.5813
13720TIP3    H262576   4.523   3.339  14.690  1.0844  2.2660 -0.3237
13721TIP3   OH262577   0.474   4.966  17.037 -0.1739 -0.4156 -0.1383
13721TIP3    H162578   0.522   4.956  16.955  0.1678  2.4386 -0.3480
13721TIP3    H262579   0.382   4.971  17.010 -0.3800 -2.8839 -0.0023
13722TIP3   OH262580   6.305   4.117   5.938 -0.5168 -0.4886  0.3783
13722TIP3    H162581   6.265   4.068   6.011 -0.0266  0.2011  1.1246
13722TIP3    H262582   6.381   4.159   5.978 -2.2643  2.8183  0.3137
13723TIP3   OH262583   0.190   4.040   3.660 -0.2166  0.5261 -0.5510
13723TIP3    H162584   0.279   4.035   3.694 -0.1816 -0.4370 -0.7721
13723TIP3    H262585   0.174   4.134   3.646  0.9344  0.6563 -0.9916
13724TIP3   OH262586   6.536   3.436  11.213 -0.1650 -0.4954 -0.1704
13724TIP3    H162587   6.532   3.430  11.117  2.0094 -1.1849 -0.2571
13724TIP3    H262588   6.582   3.518  11.230 -2.5105  0.7353  0.3536
13725TIP3   OH262589   3.250   2.885   0.115 -0.0140 -0.1093 -0.6559
13725TIP3    H162590   3.343   2.907   0.115  0.2974 -1.3198  0.6307
13725TIP3    H262591   3.212   2.937   0.185 -0.5146  1.1009 -1.7935
13726TIP3   OH262592   2.128   6.522   4.229  0.1189 -0.4442 -0.5284
13726TIP3    H162593   2.069   6.558   4.295 -0.0800 -0.7481 -0.5382
13726TIP3    H262594   2.074   6.458   4.181  0.4301 -0.6588 -0.5937
13727TIP3   OH262595   2.515   6.210  13.425 -0.0569 -0.7687  0.1779
13727TIP3    H162596   2.468   6.292  13.414  1.1433  0.1616  1.7036
13727TIP3    H262597   2.465   6.162  13.490  0.0623 -0.5862  0.4061
13728TIP3   OH262598   3.299   3.361   2.080  0.3880 -0.7904  0.6224
13728TIP3    H162599   3.379   3.323   2.045  1.1222  2.5622 -1.5683
13728TIP3    H262600   3.328   3.418   2.152 -0.0323  0.2199  0.0098
13729TIP3   OH262601   4.446   6.449   5.120  0.0555  0.5251 -0.3877
13729TIP3    H162602   4.449   6.408   5.207 -0.1760  3.5682  1.1391
13729TIP3    H262603   4.463   6.541   5.137 -0.5859  1.2781 -3.5426
13730TIP3   OH262604   4.698   4.388  13.518 -0.1159 -0.4982  0.2897
13730TIP3    H162605   4.794   4.380  13.516 -0.0599 -0.1002  1.4263
13730TIP3    H262606   4.671   4.339  13.595 -0.6048  1.6131  1.4808
13731TIP3   OH262607   4.372   1.892   2.866 -0.5976 -0.2456 -0.4862
13731TIP3    H162608   4.344   1.876   2.776 -0.0389 -0.3986 -0.6347
13731TIP3    H262609   4.467   1.900   2.861 -0.6420  0.6760 -0.0458
13732TIP3   OH262610   4.472   3.188   1.955 -0.1364 -0.2112 -0.1755
13732TIP3    H162611   4.528   3.259   1.922  1.5037 -2.6002 -2.7338
13732TIP3    H262612   4.385   3.207   1.919 -0.0730  1.2979  0.4352
13733TIP3   OH262613   3.372   4.075   0.238  0.0237 -0.0854 -0.3153
13733TIP3    H162614   3.313   4.034   0.302  2.2194  0.1352  1.9206
13733TIP3    H262615   3.408   4.001   0.189  0.0087 -0.4340  0.1906
13734TIP3   OH262616   3.978   6.559  15.813 -0.2083 -0.6400 -0.9955
13734TIP3    H162617   4.071   6.566  15.790  0.1213 -0.0527  0.4188
13734TIP3    H262618   3.933   6.615  15.750 -0.0649 -3.8704 -4.1290
13735TIP3   OH262619   6.628   0.115  10.836  0.5635  0.5045  0.3927
13735TIP3    H162620   6.668   0.028  10.840 -0.7268 -0.0289  2.3329
13735TIP3    H262621   6.616   0.131  10.742  3.5130 -0.1155 -0.1448
13736TIP3   OH262622   5.211   0.931   3.901  0.2170  0.3099 -0.0601
13736TIP3    H162623   5.207   0.857   3.961  0.4183  1.1574  1.0174
13736TIP3    H262624   5.303   0.936   3.875 -0.1698 -1.0687 -1.7411
13737TIP3   OH262625   4.719   4.195  10.641 -0.5645  0.6311  0.5908
13737TIP3    H162626   4.706   4.286  10.668 -1.2863  0.4267  0.9533
13737TIP3    H262627   4.631   4.159  10.635 -0.2502 -0.2479  1.1526
13738TIP3   OH262628   3.281   3.149   4.319 -0.1398 -0.1728  0.2078
13738TIP3    H162629   3.338   3.182   4.388 -1.0689  0.7650  0.5489
13738TIP3    H262630   3.268   3.057   4.339  1.4105 -0.4496  0.0067
13739TIP3   OH262631   3.192   2.516  16.551  0.5992 -0.4379  0.4938
13739TIP3    H162632   3.263   2.562  16.506  2.7214 -0.1793  3.9393
13739TIP3    H262633   3.184   2.433  16.504  1.8160  0.3471 -1.1669
13740TIP3   OH262634   0.734   2.390  16.206  0.2463 -0.1524  0.2229
13740TIP3    H162635   0.827   2.406  16.188  0.1612 -0.2214 -0.2699
13740TIP3    H262636   0.729   2.295  16.222 -0.0079 -0.4263 -1.3846
13741TIP3   OH262637   6.316   2.176   0.338 -1.1518 -0.0523  0.3559
13741TIP3    H162638   6.298   2.083   0.332 -0.5578 -0.2654  1.6597
13741TIP3    H262639   6.378   2.184   0.411 -0.8634  1.3101 -0.0145
13742TIP3   OH262640   2.877   0.167  13.117 -0.3963  0.5006  0.0311
13742TIP3    H162641   2.806   0.107  13.098  0.8402 -0.9067 -0.2546
13742TIP3    H262642   2.925   0.176  13.035  2.6694 -2.5440  1.3392
13743TIP3   OH262643   5.207   1.497  16.072 -1.2050  0.2922 -0.2071
13743TIP3    H162644   5.150   1.431  16.111 -1.8272 -0.2979 -2.0417
13743TIP3    H262645   5.291   1.452  16.060 -1.0492  0.4378  0.3347
13744TIP3   OH262646   3.732   2.145  15.612  0.1360  0.1911 -0.8458
13744TIP3    H162647   3.763   2.099  15.690  2.0786  0.4863 -1.4005
13744TIP3    H262648   3.676   2.215  15.646  0.5387 -0.0047  0.2577
13745TIP3   OH262649   0.738   2.031  14.046  0.2318  0.2293 -0.2344
13745TIP3    H162650   0.814   2.085  14.025  1.0935 -0.7224  0.4382
13745TIP3    H262651   0.774   1.946  14.070 -1.0569 -0.3027 -0.1530
13746TIP3   OH262652   3.596   5.748  13.370 -0.5322  0.2433 -0.5004
13746TIP3    H162653   3.661   5.756  13.300 -0.9449  1.4601 -0.7472
13746TIP3    H262654   3.627   5.807  13.439  0.0536 -1.1952  0.5157
13747TIP3   OH262655   0.731   0.225  12.995  0.3375 -0.0180 -0.4623
13747TIP3    H162656   0.663   0.178  13.043  1.6623 -1.3371  0.1463
13747TIP3    H262657   0.812   0.209  13.044  1.1359  1.3982 -1.2563
13748TIP3   OH262658   3.498   5.971   4.200  0.1548  0.1384  0.2281
13748TIP3    H162659   3.427   6.035   4.211  1.3827  1.4673  0.5844
13748TIP3    H262660   3.482   5.934   4.113 -1.3851 -0.1013  0.5934
13749TIP3   OH262661   0.553   2.882   5.883  0.3741  0.6728 -0.6746
13749TIP3    H162662   0.573   2.795   5.849  0.7926  0.5279 -0.0634
13749TIP3    H262663   0.460   2.896   5.862  0.8641  0.9930 -2.7529
13750TIP3   OH262664   2.325   4.268   0.235 -0.7557  0.2141  0.3252
13750TIP3    H162665   2.393   4.283   0.301 -1.6408 -0.8228  1.4956
13750TIP3    H262666   2.367   4.291   0.152  1.1915 -0.8579  0.9658
13751TIP3   OH262667   3.459   2.402   1.972 -0.4748  0.1576  0.4178
13751TIP3    H162668   3.372   2.378   2.005  0.0381  0.6578  2.1951
13751TIP3    H262669   3.520   2.366   2.036  0.6904 -1.0530 -1.3549
13752TIP3   OH262670   1.674   4.181  13.917 -0.7290  0.4710  0.2498
13752TIP3    H162671   1.633   4.176  14.003 -0.0250  0.7588  0.6117
13752TIP3    H262672   1.686   4.089  13.891 -2.4629  0.3853 -0.2964
13753TIP3   OH262673   3.036   5.538  16.730  0.0973 -0.4212 -0.5232
13753TIP3    H162674   2.985   5.504  16.656  0.1766 -0.7146 -0.4457
13753TIP3    H262675   3.104   5.472  16.743  0.8444  0.2419 -0.9861
13754TIP3   OH262676   6.738   1.496   0.152  0.8443 -0.2319  0.1546
13754TIP3    H162677   6.736   1.577   0.202  0.3293  0.3733 -0.8337
13754TIP3    H262678   6.660   1.449   0.179  0.1966  0.4075 -0.5820
13755TIP3   OH262679   6.148   2.964  11.920 -0.3852  0.4811 -0.7779
13755TIP3    H162680   6.232   3.003  11.941 -0.5742  0.8333 -0.6665
13755TIP3    H262681   6.084   3.022  11.961 -0.6465 -0.3358 -0.0058
13756TIP3   OH262682   3.925   1.799   0.001  0.0003 -0.0393  0.5388
13756TIP3    H162683   3.888   1.718  -0.036  1.6207 -0.6658  0.2683
13756TIP3    H262684   3.932   1.780   0.095 -2.2637  0.8340  0.9095
13757TIP3   OH262685   3.604   3.394  12.106  0.4723 -0.3669  0.1600
13757TIP3    H162686   3.632   3.440  12.186 -1.2751 -2.3222  1.9567
13757TIP3    H262687   3.683   3.349  12.076  1.3451  1.0113  0.3471
13758TIP3   OH262688   3.359   6.369   1.131 -1.1034 -0.3227  0.1731
13758TIP3    H162689   3.277   6.369   1.082 -1.9205  0.2145  1.5340
13758TIP3    H262690   3.334   6.349   1.221  0.2033  0.2594  0.6784
13759TIP3   OH262691   3.885   1.816  14.505  0.5733 -0.3353 -0.0082
13759TIP3    H162692   3.925   1.736  14.471  0.6739 -0.5194  0.5363
13759TIP3    H262693   3.930   1.832  14.587  1.6453  1.1486 -0.8584
13760TIP3   OH262694   5.297   4.532  14.323 -0.2682  0.1042 -0.0495
13760TIP3    H162695   5.266   4.512  14.234  0.2139  0.9145 -0.4132
13760TIP3    H262696   5.233   4.594  14.357 -0.0997  0.2954 -0.0785
13761TIP3   OH262697   2.574   0.101   1.919 -0.3854 -0.4324  0.1340
13761TIP3    H162698   2.576   0.064   2.007 -0.3317  1.5247  0.9644
13761TIP3    H262699   2.662   0.086   1.885 -0.9171 -2.8132 -0.2968
13762TIP3   OH262700   5.027   5.119  12.630  0.6678  0.5948  0.4888
13762TIP3    H162701   4.990   5.186  12.688 -0.0896  0.7592 -0.1753
13762TIP3    H262702   5.112   5.155  12.605  1.0261  0.4943  1.5431
13763TIP3   OH262703   1.698   2.811   2.710  0.3788  0.8584  0.1490
13763TIP3    H162704   1.758   2.750   2.666 -2.0971 -0.4751 -1.5036
13763TIP3    H262705   1.754   2.884   2.738  3.2412 -1.6283  1.1997
13764TIP3   OH262706   1.655   2.597   2.875  0.9284  0.1176  0.5699
13764TIP3    H162707   1.664   2.670   2.814  2.1763 -0.5077 -0.0015
13764TIP3    H262708   1.563   2.570   2.867  0.8173  0.7199 -0.2351
13765TIP3   OH262709   4.144   4.666  12.388  0.6771  0.3001 -0.0744
13765TIP3    H162710   4.161   4.697  12.299 -2.1318  0.4368 -0.6142
13765TIP3    H262711   4.117   4.745  12.435 -2.0226 -0.4713 -0.2588
13766TIP3   OH262712   5.800   4.065   1.713 -0.2653  0.0413  0.1758
13766TIP3    H162713   5.747   4.010   1.771 -1.6309  2.2517  1.0578
13766TIP3    H262714   5.865   4.104   1.771 -0.8817  1.3191  0.0115
13767TIP3   OH262715   4.940   4.869  14.275 -0.7159  0.0171  0.2780
13767TIP3    H162716   5.021   4.879  14.224 -1.7558 -0.1264 -1.4626
13767TIP3    H262717   4.880   4.823  14.215 -1.5124 -1.4632  2.1649
13768TIP3   OH262718   0.909   4.935  14.095  0.0142 -0.1056 -0.4240
13768TIP3    H162719   0.940   4.926  14.005 -0.5668 -1.6795 -0.4690
13768TIP3    H262720   0.895   5.030  14.105 -0.5735  0.0207 -2.2041
13769TIP3   OH262721   4.984   2.389  12.501 -0.3231  0.3078  0.4194
13769TIP3    H162722   4.910   2.377  12.441  0.1834 -1.1128  0.0678
13769TIP3    H262723   5.004   2.301  12.532  1.3694  0.6512  0.3298
13770TIP3   OH262724   5.476   1.072   2.966  0.4166 -0.5712  0.1052
13770TIP3    H162725   5.506   1.135   2.901 -0.0471 -0.2134  0.2369
13770TIP3    H262726   5.413   1.017   2.919  1.1288 -1.1916 -0.1167
13771TIP3   OH262727   5.180   4.902  14.630  0.1890  0.0273 -0.2256
13771TIP3    H162728   5.130   4.934  14.705 -1.5380 -2.4792 -0.2256
13771TIP3    H262729   5.176   4.973  14.566 -1.3261  0.8237  0.7312
13772TIP3   OH262730   4.469   4.847   1.491 -0.2767 -0.6178 -0.9616
13772TIP3    H162731   4.481   4.767   1.439 -2.3209 -1.3410 -0.3692
13772TIP3    H262732   4.462   4.917   1.426  0.6658 -1.0177 -1.5161
13773TIP3   OH262733   5.078   3.321  14.531 -0.1756  0.1000  0.1145
13773TIP3    H162734   5.005   3.328  14.592 -1.0752  0.8058 -1.0010
13773TIP3    H262735   5.056   3.247  14.474 -0.2250  0.5597 -0.4746
13774TIP3   OH262736   6.560   5.658   0.185 -0.1476  0.4639 -0.1947
13774TIP3    H162737   6.547   5.745   0.223  1.8636  1.7735 -2.3624
13774TIP3    H262738   6.655   5.644   0.188 -0.0687 -0.0162 -3.2370
13775TIP3   OH262739   4.366   4.905  12.276 -0.1997  0.0901  0.2756
13775TIP3    H162740   4.383   4.911  12.370 -0.2659 -2.7317  0.5135
13775TIP3    H262741   4.355   4.995  12.248 -0.0854  0.9892  2.9687
13776TIP3   OH262742   0.619   0.342  14.322 -0.0264  0.7975 -0.0386
13776TIP3    H162743   0.624   0.366  14.229  1.9607  0.9880  0.1171
13776TIP3    H262744   0.641   0.422  14.369 -0.2570  0.4928  0.5929
13777TIP3   OH262745   5.326   3.530  14.562  0.0091 -0.2493 -0.4796
13777TIP3    H162746   5.281   3.474  14.499  0.5004  1.3358 -2.3095
13777TIP3    H262747   5.393   3.474  14.601 -1.5573 -1.7817  0.0386
13778TIP3   OH262748   6.509   4.512  12.437 -0.0529  0.3475 -0.4273
13778TIP3    H162749   6.591   4.468  12.416 -0.1751 -0.5989  1.0330
13778TIP3    H262750   6.446   4.441  12.450 -0.9463  1.0498 -0.8501
13779TIP3   OH262751   1.851   4.839  14.867  0.1427  0.6176 -0.7267
13779TIP3    H162752   1.879   4.916  14.817  3.0119 -0.5094 -0.9317
13779TIP3    H262753   1.815   4.875  14.948  2.1641  2.1613 -0.4805
13780TIP3   OH262754   3.533   3.591  12.791 -0.4413 -0.4674  0.1405
13780TIP3    H162755   3.568   3.678  12.811 -0.9989 -0.6090  1.8423
13780TIP3    H262756   3.548   3.541  12.872 -0.4627 -1.8421 -0.6989
13781TIP3   OH262757   3.609   2.641   1.803 -0.1392  0.1287  0.0206
13781TIP3    H162758   3.595   2.705   1.873 -0.1781 -1.8747  1.8979
13781TIP3    H262759   3.576   2.558   1.839  2.3258 -1.5049 -1.3431
13782TIP3   OH262760   0.620   1.554  15.818  0.5703 -0.2778  0.1465
13782TIP3    H162761   0.615   1.462  15.844 -1.5344  0.2478  1.7125
13782TIP3    H262762   0.531   1.576  15.789  1.0744  1.2291 -0.3094
13783TIP3   OH262763   2.701   2.713  12.052 -0.6758 -0.3571  0.1324
13783TIP3    H162764   2.760   2.765  11.996  1.1292 -1.5043  0.9237
13783TIP3    H262765   2.757   2.645  12.089 -1.9401  0.0855  2.9732
13784TIP3   OH262766   4.087   1.547   0.588 -0.4491  0.2176  0.0910
13784TIP3    H162767   4.067   1.498   0.669  0.7544  0.7307  0.7190
13784TIP3    H262768   4.017   1.612   0.581 -2.3115 -1.8535 -0.9838
13785TIP3   OH262769   5.976   2.625   3.428  0.4027 -0.1021 -0.0316
13785TIP3    H162770   6.015   2.679   3.497 -0.3723 -0.7606  0.9342
13785TIP3    H262771   6.033   2.548   3.424  1.1696  0.4919 -1.0091
13786TIP3   OH262772   5.770   2.999  14.750  0.0260 -0.1927 -0.3734
13786TIP3    H162773   5.742   3.077  14.701  1.3223  0.1397 -0.6038
13786TIP3    H262774   5.690   2.967  14.792 -0.7639  0.5133 -1.3254
13787TIP3   OH262775   4.580   0.178   4.340 -0.2048  0.7918  0.7665
13787TIP3    H162776   4.505   0.216   4.385 -1.1456 -0.9502  0.7133
13787TIP3    H262777   4.591   0.092   4.380  0.2645  0.0709 -0.8694
13788TIP3   OH262778   4.936   1.212  17.084 -0.0143  0.0893 -0.4098
13788TIP3    H162779   4.878   1.287  17.084  1.6270  1.3896  0.0421
13788TIP3    H262780   5.004   1.233  17.148  1.7552 -0.7397 -1.9487
13789TIP3   OH262781   1.825   5.611  14.781  0.0462 -0.4160 -0.1893
13789TIP3    H162782   1.866   5.525  14.788  0.1329 -0.2517  1.4098
13789TIP3    H262783   1.867   5.651  14.704  2.1965 -0.6327  0.8276
13790TIP3   OH262784   1.848   0.899   6.225 -0.5305 -0.3407  0.0751
13790TIP3    H162785   1.807   0.912   6.310  0.8772 -1.3822  0.9485
13790TIP3    H262786   1.856   0.804   6.216  1.0751 -0.1914 -0.3365
13791TIP3   OH262787   1.590   2.210  16.231  0.3577 -0.2541  0.3318
13791TIP3    H162788   1.584   2.283  16.292 -1.8378 -0.3233  0.2352
13791TIP3    H262789   1.625   2.249  16.151  0.0216  0.5344  0.5592
13792TIP3   OH262790   4.453   2.416  15.988  0.3698 -0.0737 -0.0940
13792TIP3    H162791   4.419   2.390  15.902  0.3794  0.6942 -0.3341
13792TIP3    H262792   4.423   2.507  15.999 -0.6015 -0.5373  1.2171
13793TIP3   OH262793   0.542   3.818  14.214 -0.0315  0.2924 -0.4097
13793TIP3    H162794   0.565   3.896  14.165 -0.7239  0.0226 -1.1776
13793TIP3    H262795   0.578   3.833  14.301  0.3615  1.1999 -0.7234
13794TIP3   OH262796   0.458   0.840   5.014 -0.0900 -0.3119 -0.5278
13794TIP3    H162797   0.502   0.916   4.976 -1.5889 -0.7159 -3.2138
13794TIP3    H262798   0.514   0.814   5.087  1.7394  1.8877 -1.0936
13795TIP3   OH262799   2.871   3.473   3.350 -0.1869  0.2430 -0.1681
13795TIP3    H162800   2.827   3.394   3.383 -1.1092  1.0571  0.5835
13795TIP3    H262801   2.832   3.488   3.264 -0.0676 -0.0796 -0.2794
13796TIP3   OH262802   5.129   5.654   6.160 -0.0914  0.2810 -0.6111
13796TIP3    H162803   5.139   5.734   6.212 -0.1647  0.0525 -0.2401
13796TIP3    H262804   5.218   5.633   6.132  0.3150 -0.8721  1.3715
13797TIP3   OH262805   0.768   6.636  12.840 -0.2953  0.2398 -0.3997
13797TIP3    H162806   0.749   6.656  12.932  3.0711 -0.4603  0.5014
13797TIP3    H262807   0.801   6.718  12.803 -1.4526  0.4668 -0.9596
13798TIP3   OH262808   4.599   3.309  12.391 -0.3199  0.3603 -0.3317
13798TIP3    H162809   4.568   3.391  12.353  0.1785  1.2160  1.0554
13798TIP3    H262810   4.693   3.307  12.371 -0.7143 -0.9520 -2.2444
13799TIP3   OH262811   1.737   3.486   1.978  0.8036  0.0522 -0.3801
13799TIP3    H162812   1.787   3.533   2.045 -1.1711  2.9742 -0.8567
13799TIP3    H262813   1.792   3.489   1.900  1.0442  0.9282 -0.1855
13800TIP3   OH262814   0.518   3.872   3.392  0.4801 -0.3761 -0.4278
13800TIP3    H162815   0.550   3.914   3.471 -1.5687  0.5170 -0.0336
13800TIP3    H262816   0.550   3.782   3.397 -0.2469 -0.5365  1.7885
13801TIP3   OH262817   2.782   5.702   2.330  0.0485  0.4053  0.1595
13801TIP3    H162818   2.746   5.623   2.289  0.0431 -0.3336  1.5694
13801TIP3    H262819   2.710   5.765   2.325  0.6217  0.9132 -2.5328
13802TIP3   OH262820   5.305   6.295   5.632  0.4132  0.4977  0.7139
13802TIP3    H162821   5.387   6.344   5.632  0.7520 -0.0460  1.9711
13802TIP3    H262822   5.290   6.271   5.724 -1.5918  1.3006  0.6298
13803TIP3   OH262823   3.991   2.508  15.065 -0.6841 -0.2435 -0.0360
13803TIP3    H162824   4.062   2.502  15.130 -0.9881  2.4742  0.6453
13803TIP3    H262825   4.025   2.462  14.988  1.7605  0.7988  0.3514
13804TIP3   OH262826   3.127   5.157  13.805 -0.3205  0.0523  1.3304
13804TIP3    H162827   3.059   5.101  13.766  0.0074  0.3495  0.2998
13804TIP3    H262828   3.127   5.236  13.750  2.8460 -1.1304 -0.5576
13805TIP3   OH262829   6.541   1.706  10.983 -0.4694 -0.0758  0.7773
13805TIP3    H162830   6.515   1.778  11.041 -1.2381  0.0826  0.2387
13805TIP3    H262831   6.459   1.663  10.960 -0.1263 -0.3811  0.1274
13806TIP3   OH262832   0.768   2.256  16.546  0.5019  0.1431  0.5421
13806TIP3    H162833   0.696   2.269  16.607  1.5581  0.6009  1.6984
13806TIP3    H262834   0.731   2.200  16.477 -1.2412  1.2183  0.5806
13807TIP3   OH262835   5.343   4.706   2.738 -0.4700 -0.0627 -0.2162
13807TIP3    H162836   5.360   4.750   2.655 -0.3124 -1.9559 -1.2188
13807TIP3    H262837   5.417   4.646   2.750 -1.2755 -0.9454  0.4900
13808TIP3   OH262838   3.925   4.453   5.540  0.4190  0.1310  0.0702
13808TIP3    H162839   3.878   4.522   5.494  0.7475 -1.7109 -3.1902
13808TIP3    H262840   4.007   4.494   5.567 -0.6307  1.8030  0.8142
13809TIP3   OH262841   5.098   5.635  11.296 -0.1958  0.1029 -0.0401
13809TIP3    H162842   5.145   5.557  11.325  0.6971  0.2178 -1.1386
13809TIP3    H262843   5.048   5.606  11.219 -0.3080  0.4801 -0.1135
13810TIP3   OH262844   2.353   0.392   0.760  0.0320 -0.2659  0.1450
13810TIP3    H162845   2.428   0.340   0.730 -0.6258 -1.2511  0.1872
13810TIP3    H262846   2.280   0.330   0.760 -1.0125  0.9421 -0.9084
13811TIP3   OH262847   3.403   1.892   4.207  0.1122 -0.5307  0.5144
13811TIP3    H162848   3.441   1.843   4.135 -0.1165  0.6623 -0.4395
13811TIP3    H262849   3.330   1.838   4.237  1.2976 -1.8726  1.0345
13812TIP3   OH262850   0.280   0.924   2.432 -0.1090 -0.3851  0.1447
13812TIP3    H162851   0.212   0.877   2.383 -1.3481  0.2852  1.1714
13812TIP3    H262852   0.231   0.974   2.498  1.1841  2.2040 -0.8186
13813TIP3   OH262853   1.817   6.666   4.147 -0.4290 -0.8113 -0.0307
13813TIP3    H162854   1.880   6.650   4.217  2.3357  2.5633 -1.5524
13813TIP3    H262855   1.747   6.716   4.189 -0.0848 -1.0995  0.8954
13814TIP3   OH262856   4.808   3.255   1.334 -0.5101  0.6979  0.2657
13814TIP3    H162857   4.751   3.226   1.406  0.2487 -1.2811  0.0900
13814TIP3    H262858   4.838   3.174   1.293  2.0140  1.7280  0.0116
13815TIP3   OH262859   3.463   1.097  11.601  0.0522  0.2770  0.3124
13815TIP3    H162860   3.456   1.010  11.641  0.7574 -0.1018 -0.3847
13815TIP3    H262861   3.553   1.102  11.569  0.9970  2.4760  3.0922
13816TIP3   OH262862   4.411   0.104  14.167  0.1165 -0.1341 -0.1154
13816TIP3    H162863   4.387   0.177  14.111 -0.9618  0.4242  1.0458
13816TIP3    H262864   4.406   0.027  14.110  0.2826  0.5726 -1.0951
13817TIP3   OH262865   4.606   4.754   4.526 -0.0570 -0.4968  0.7183
13817TIP3    H162866   4.576   4.834   4.569  0.0973  0.4702 -0.9119
13817TIP3    H262867   4.694   4.739   4.561 -0.8029 -0.9961  2.4032
13818TIP3   OH262868   1.802   5.608  12.499  0.0518 -0.0475  0.0319
13818TIP3    H162869   1.811   5.519  12.465  1.3319  0.4821 -1.0574
13818TIP3    H262870   1.831   5.602  12.590  2.5356 -0.2728 -0.7545
13819TIP3   OH262871   1.669   2.528   5.025 -0.1146 -0.2002 -0.7753
13819TIP3    H162872   1.640   2.597   5.085 -1.2225 -1.7124  0.4794
13819TIP3    H262873   1.676   2.571   4.940  1.8674  2.0835  0.4997
13820TIP3   OH262874   6.090   3.041  11.665 -0.0833 -0.4292  0.5990
13820TIP3    H162875   6.029   2.996  11.606 -1.4633  1.0930  0.8232
13820TIP3    H262876   6.074   3.002  11.751 -2.3854  1.4642  1.1015
13821TIP3   OH262877   3.145   1.836   4.691 -0.2338  0.3994  0.2363
13821TIP3    H162878   3.081   1.906   4.705 -1.2050 -0.2515 -0.8229
13821TIP3    H262879   3.093   1.756   4.696  0.8431 -0.2489  1.2767
13822TIP3   OH262880   2.663   1.496  15.178 -0.4319 -0.5843  0.4054
13822TIP3    H162881   2.637   1.518  15.089 -0.5133 -1.3705  0.2308
13822TIP3    H262882   2.745   1.543  15.192  0.1536 -1.3307 -0.4681
13823TIP3   OH262883   6.123   5.870  13.711 -0.0730 -0.0125  0.2181
13823TIP3    H162884   6.171   5.858  13.629 -0.3192  2.0388 -0.2489
13823TIP3    H262885   6.109   5.965  13.717 -4.4863 -0.5961  0.1383
13824TIP3   OH262886   4.470   6.776   1.299 -0.4551  0.0078 -0.0230
13824TIP3    H162887   4.507   6.810   1.217  0.0769 -0.4376  0.0329
13824TIP3    H262888   4.442   6.687   1.278  0.5698 -0.4559  0.5289
13825TIP3   OH262889   3.421   0.176  17.062 -0.1538 -0.1820  0.0483
13825TIP3    H162890   3.470   0.259  17.063 -0.5326  0.0357  0.3924
13825TIP3    H262891   3.330   0.202  17.046 -0.4082 -0.4643  1.0460
13826TIP3   OH262892   3.463   6.741   2.126  0.1048 -0.1115 -0.0639
13826TIP3    H162893   3.375   6.761   2.094 -0.1194 -1.0826 -0.0776
13826TIP3    H262894   3.500   6.826   2.150 -0.8087  0.3104 -0.1272
13827TIP3   OH262895   4.716   1.718   1.347  0.0954  0.1521  0.2361
13827TIP3    H162896   4.781   1.788   1.343  0.1322 -0.0188 -2.4318
13827TIP3    H262897   4.673   1.731   1.432  0.0691  3.4249 -0.2164
13828TIP3   OH262898   1.378   2.574  13.879  0.6295 -0.1033 -0.7442
13828TIP3    H162899   1.390   2.657  13.926 -1.6136  0.9910 -1.9851
13828TIP3    H262900   1.375   2.508  13.948 -1.2836  1.2995  0.5886
13829TIP3   OH262901   1.184   1.693  11.421  0.3968  0.3810 -0.3607
13829TIP3    H162902   1.166   1.717  11.330 -1.5093  2.7448  0.5975
13829TIP3    H262903   1.184   1.597  11.421 -0.6770  0.3583 -2.6326
13830TIP3   OH262904   0.378   4.674  13.172  0.2976 -0.2486 -0.0970
13830TIP3    H162905   0.342   4.665  13.260  1.2135  1.5751  0.4814
13830TIP3    H262906   0.364   4.766  13.150  1.7634 -0.2566 -1.1169
13831TIP3   OH262907   2.509   5.739  12.835  0.1800 -0.8624  0.9702
13831TIP3    H162908   2.546   5.712  12.751 -0.9743 -0.6554  0.3849
13831TIP3    H262909   2.577   5.792  12.876  0.5156 -0.4630 -0.1071
13832TIP3   OH262910   2.245   4.977  12.199  0.0680 -0.4529  0.2361
13832TIP3    H162911   2.175   4.981  12.265  0.1740  1.7040  0.2494
13832TIP3    H262912   2.324   4.961  12.250 -0.0002  0.1470  0.5393
13833TIP3   OH262913   0.644   2.696  14.958  0.0642  0.8453 -0.2628
13833TIP3    H162914   0.685   2.631  15.015  0.1071 -0.1672 -1.4337
13833TIP3    H262915   0.713   2.722  14.898 -0.0444  1.7539  0.0028
13834TIP3   OH262916   1.949   1.320  14.963 -0.2453 -0.0866  0.0139
13834TIP3    H162917   1.954   1.404  14.919  1.6477 -0.4190 -0.4435
13834TIP3    H262918   2.015   1.266  14.920  0.1774 -1.0724  1.8385
13835TIP3   OH262919   1.432   2.973   3.207 -0.0546 -0.3440 -0.1799
13835TIP3    H162920   1.435   3.064   3.179 -0.0055 -0.2103  0.2584
13835TIP3    H262921   1.340   2.949   3.200 -0.4947  0.5293  2.1916
13836TIP3   OH262922   1.075   6.465   2.839 -0.1669 -0.3877 -0.4526
13836TIP3    H162923   1.015   6.405   2.795 -0.1304 -0.2207 -0.7290
13836TIP3    H262924   1.079   6.433   2.929 -1.1059 -0.0764 -0.2935
13837TIP3   OH262925   5.428   0.924   4.266  0.6025 -0.1401 -0.1472
13837TIP3    H162926   5.415   0.922   4.361  1.6687  0.8873  0.0243
13837TIP3    H262927   5.427   1.017   4.244  0.8289 -0.3593 -1.0848
13838TIP3   OH262928   4.333   3.099   1.518  0.2779  0.4421  0.1564
13838TIP3    H162929   4.292   3.026   1.563 -2.4303  0.8942 -1.4413
13838TIP3    H262930   4.330   3.171   1.581 -0.3765  0.1529  0.4627
13839TIP3   OH262931   4.814   6.182  16.855  0.3942 -0.6522 -0.3006
13839TIP3    H162932   4.728   6.220  16.835 -0.4642 -1.6911  1.3091
13839TIP3    H262933   4.796   6.089  16.870  1.5872 -0.6165  1.4735
13840TIP3   OH262934   0.551   6.675  16.416  0.0449 -0.3367  0.5682
13840TIP3    H162935   0.634   6.680  16.369  0.5442 -0.1814  1.4675
13840TIP3    H262936   0.512   6.762  16.404 -0.3473 -0.6511 -0.4948
13841TIP3   OH262937   0.521   0.043  10.563 -0.4489  0.5967 -0.7663
13841TIP3    H162938   0.485   0.035  10.475 -0.6002 -1.5902 -0.5325
13841TIP3    H262939   0.534  -0.048  10.593 -0.5520  1.2930  1.5287
13842TIP3   OH262940   2.986   0.716   0.719 -0.1821 -1.1566  0.4936
13842TIP3    H162941   2.979   0.631   0.761  0.5522 -2.2266 -1.5039
13842TIP3    H262942   3.036   0.700   0.639  4.4111  1.9673  2.5204
13843TIP3   OH262943   4.716   5.878   1.071  0.5453 -0.5146 -0.2847
13843TIP3    H162944   4.711   5.973   1.069  1.4102 -0.4759 -1.5304
13843TIP3    H262945   4.643   5.851   1.127  0.1664  0.8619 -0.0951
13844TIP3   OH262946   3.071   0.368   0.415  0.3287 -0.6736  0.3439
13844TIP3    H162947   3.131   0.295   0.400  0.4159 -0.3991 -0.7038
13844TIP3    H262948   3.088   0.396   0.505  1.9299 -0.4529 -0.0141
13845TIP3   OH262949   0.218   4.062   1.371  0.5232  0.0220 -0.0199
13845TIP3    H162950   0.262   4.046   1.287 -1.5476 -0.2370 -1.1019
13845TIP3    H262951   0.239   4.153   1.393  1.3668 -0.0176 -0.6470
13846TIP3   OH262952   3.889   6.569   1.411  0.0039  0.0507  0.4914
13846TIP3    H162953   3.831   6.511   1.361 -1.0653  0.2158  1.5146
13846TIP3    H262954   3.890   6.532   1.499  1.2247  0.2329  0.5633
13847TIP3   OH262955   1.148   5.483  13.057 -0.0777  0.1465  0.1333
13847TIP3    H162956   1.109   5.518  12.976 -0.2155 -2.1008 -0.7942
13847TIP3    H262957   1.092   5.409  13.081  0.7591 -0.0437  1.5499
13848TIP3   OH262958   5.150   0.111  15.377  0.0174  0.2147 -0.1150
13848TIP3    H162959   5.178   0.202  15.364 -2.3602  0.7179 -1.9499
13848TIP3    H262960   5.099   0.090  15.299 -0.6549 -2.2537  0.9391
13849TIP3   OH262961   4.286   0.687   6.043  0.5467  0.1049  0.2549
13849TIP3    H162962   4.257   0.674   5.953  1.0858 -0.1170  0.1163
13849TIP3    H262963   4.225   0.635   6.095 -0.2242  0.8241  0.0810
13850TIP3   OH262964   3.780   5.053   3.627  0.0187  0.1214 -0.2013
13850TIP3    H162965   3.711   5.100   3.673 -0.4554 -1.2170  0.4464
13850TIP3    H262966   3.745   4.965   3.612  2.0826 -1.0089  1.3727
13851TIP3   OH262967   6.272   1.540   1.286  0.5662 -0.0577 -0.3329
13851TIP3    H162968   6.263   1.506   1.197 -0.8855 -0.2554 -0.1326
13851TIP3    H262969   6.314   1.469   1.335  2.0474  0.3410 -1.0245
13852TIP3   OH262970   1.385   4.538  17.010 -0.5310  0.3379 -0.3340
13852TIP3    H162971   1.471   4.499  16.993 -0.4107  0.2318  0.4750
13852TIP3    H262972   1.324   4.487  16.959 -0.3516 -0.7963  0.5655
13853TIP3   OH262973   2.928   6.072  16.800 -0.1112  0.8539  0.0362
13853TIP3    H162974   2.943   6.161  16.832 -1.0602  1.9706 -2.5802
13853TIP3    H262975   3.003   6.054  16.743  0.0053  0.0118  0.4427
13854TIP3   OH262976   0.944   4.442  15.799  0.8674  0.6335 -0.1750
13854TIP3    H162977   0.993   4.487  15.867 -1.2333  1.2450  0.9656
13854TIP3    H262978   0.973   4.483  15.717  0.3696  2.7494  0.6924
13855TIP3   OH262979   4.800   1.310   2.086  0.1034 -0.2088 -0.2847
13855TIP3    H162980   4.781   1.292   1.993  0.1519  0.7580 -0.4794
13855TIP3    H262981   4.716   1.299   2.130  0.2457 -1.5186 -0.3041
13856TIP3   OH262982   4.808   3.011   3.957  0.0689  0.2243  0.4619
13856TIP3    H162983   4.869   3.020   3.884 -1.0961 -0.1499 -0.5849
13856TIP3    H262984   4.863   3.009   4.035  1.4055 -0.4675 -0.4823
13857TIP3   OH262985   3.887   5.394  12.831  0.4476 -0.2583 -0.1282
13857TIP3    H162986   3.929   5.481  12.827  0.0281  0.0405  1.6770
13857TIP3    H262987   3.848   5.390  12.918  2.6706 -3.2998  0.8075
13858TIP3   OH262988   5.303   3.179  11.365  0.7816  0.2053  0.5792
13858TIP3    H162989   5.292   3.268  11.399 -0.5697  0.4568 -0.4361
13858TIP3    H262990   5.352   3.190  11.284 -2.1935  0.4412 -1.2848
13859TIP3   OH262991   6.251   6.632  15.364 -0.1532 -0.9120  0.2825
13859TIP3    H162992   6.186   6.656  15.430 -0.5614 -0.1144 -0.4043
13859TIP3    H262993   6.210   6.654  15.281  1.2420  0.1492 -0.1278
13860TIP3   OH262994   5.113   3.132  16.871 -0.0359  0.7012  0.4125
13860TIP3    H162995   5.156   3.215  16.890  0.8266 -0.3023  2.9753
13860TIP3    H262996   5.183   3.067  16.871 -0.9552 -0.3119  0.2816
13861TIP3   OH262997   1.980   6.448   0.264 -0.4676 -0.2652 -0.4018
13861TIP3    H162998   1.958   6.442   0.357 -0.5767 -0.4699 -0.4404
13861TIP3    H262999   2.069   6.414   0.258 -1.9227 -4.1866 -0.9597
13862TIP3   OH263000   4.869   4.440  16.739  0.1585 -0.2108  0.3967
13862TIP3    H163001   4.964   4.455  16.742  0.1287  0.3087 -1.0421
13862TIP3    H263002   4.851   4.417  16.648 -1.2616  0.8277  0.4036
13863TIP3   OH263003   2.437   4.887   2.045  0.6898  0.2864  0.0120
13863TIP3    H163004   2.473   4.958   2.098 -1.1613  1.5706 -0.4024
13863TIP3    H263005   2.345   4.882   2.071  0.7174 -1.7959 -0.1614
13864TIP3   OH263006   2.796   2.439  16.954 -0.4557  0.5824 -0.1505
13864TIP3    H163007   2.848   2.360  16.946 -1.4528 -0.0002 -1.0314
13864TIP3    H263008   2.755   2.450  16.868 -0.1655  2.1635 -0.0995
13865TIP3   OH263009   2.467   4.598   4.355  0.2884  0.0135  0.4245
13865TIP3    H163010   2.544   4.654   4.355 -0.7704  1.5340  2.3854
13865TIP3    H263011   2.458   4.569   4.446 -1.3599 -0.2627  0.1916
13866TIP3   OH263012   3.017   4.876   5.778 -0.0644  0.4390 -0.4989
13866TIP3    H163013   2.974   4.862   5.863  1.5497 -3.9618 -0.2936
13866TIP3    H263014   3.104   4.908   5.801  0.3246 -0.6202 -0.4759
13867TIP3   OH263015   2.850   5.026   6.632  1.2681 -0.2630 -0.1240
13867TIP3    H163016   2.758   5.051   6.623  0.9880 -0.2177  2.4668
13867TIP3    H263017   2.868   4.974   6.554 -0.8164  0.1286 -0.9036
13868TIP3   OH263018   4.475   5.167  12.931  0.0743  0.0000  0.1159
13868TIP3    H163019   4.416   5.126  12.867  0.5021  1.3534 -1.1725
13868TIP3    H263020   4.422   5.175  13.010 -0.7725 -0.8142 -0.3459
13869TIP3   OH263021   3.617   2.936   6.226  0.1271  0.0768  0.2094
13869TIP3    H163022   3.566   2.993   6.284 -0.0657 -0.7139  0.8217
13869TIP3    H263023   3.632   2.857   6.278  0.6183 -0.3238 -0.5453
13870TIP3   OH263024   1.256   3.234   2.546  0.2971  0.0313 -0.5539
13870TIP3    H163025   1.234   3.157   2.599  0.2837  1.1283  1.0703
13870TIP3    H263026   1.237   3.207   2.456 -1.4935 -1.2259  0.1766
13871TIP3   OH263027   6.111   6.184  16.805 -0.4939  0.1187 -0.8050
13871TIP3    H163028   6.088   6.116  16.742  0.1768  0.7981 -1.7958
13871TIP3    H263029   6.028   6.229  16.823 -0.6211  0.1517 -1.4774
13872TIP3   OH263030   4.976   3.442   1.187 -0.2589  0.4705  0.5877
13872TIP3    H163031   4.989   3.498   1.263  0.6203 -1.5170  1.9362
13872TIP3    H263032   4.906   3.381   1.214  0.2540 -0.4274 -0.0748
13873TIP3   OH263033   4.233   6.180  13.826  0.2598  0.0187 -0.5584
13873TIP3    H163034   4.222   6.265  13.868  0.9277 -0.7335  1.1647
13873TIP3    H263035   4.321   6.182  13.789  0.3316  0.0282 -0.3887
13874TIP3   OH263036   1.828   0.628  15.614  0.4341  0.1249 -0.2155
13874TIP3    H163037   1.797   0.582  15.693  1.4698  0.2177  0.2630
13874TIP3    H263038   1.800   0.572  15.542  0.2601 -0.4286  0.2703
13875TIP3   OH263039   3.659   4.748   4.400 -0.2394 -0.7583 -0.2796
13875TIP3    H163040   3.747   4.765   4.367 -0.2088  0.4324  0.3866
13875TIP3    H263041   3.663   4.659   4.435  0.3467 -1.1765 -1.4183
13876TIP3   OH263042   3.467   5.200   1.581  0.3601 -0.3567 -0.2600
13876TIP3    H163043   3.535   5.235   1.639  0.8418 -0.9889 -0.4311
13876TIP3    H263044   3.423   5.134   1.635  0.5483 -0.6644 -0.4820
13877TIP3   OH263045   5.836   6.684   0.545 -0.1846 -0.2077 -0.0370
13877TIP3    H163046   5.740   6.688   0.540 -0.1729  0.0004 -0.1282
13877TIP3    H263047   5.862   6.634   0.468 -0.2600 -0.8818  0.3747
13878TIP3   OH263048   0.391   6.618  14.721  0.2816 -0.1462  0.6225
13878TIP3    H163049   0.459   6.663  14.771 -1.1633  0.6490  1.9112
13878TIP3    H263050   0.374   6.538  14.770  0.1445 -0.2604  0.3917
13879TIP3   OH263051   2.259   6.582  14.087  0.0867  0.3937 -0.6136
13879TIP3    H163052   2.335   6.639  14.074  0.0288  0.8791  1.0951
13879TIP3    H263053   2.279   6.503  14.037  1.1693  1.0019 -1.1641
13880TIP3   OH263054   1.657   5.791  12.919  0.6880 -0.1657  0.2209
13880TIP3    H163055   1.710   5.739  12.859 -1.1863 -3.1089  0.9894
13880TIP3    H263056   1.658   5.742  13.001 -3.0651 -0.2926  0.2860
13881TIP3   OH263057   1.109   0.342   4.215  0.2703  0.0360 -1.0290
13881TIP3    H163058   1.104   0.434   4.186  1.7377 -0.0092 -1.4551
13881TIP3    H263059   1.128   0.347   4.308  0.0965  0.1668 -1.0002
13882TIP3   OH263060   3.688   3.369   1.333 -0.4526 -0.1882 -0.1754
13882TIP3    H163061   3.771   3.373   1.380 -1.4928 -0.8608  1.8089
13882TIP3    H263062   3.630   3.428   1.382 -0.4832  2.1813 -2.9831
13883TIP3   OH263063   3.178   0.011  16.245 -0.0017 -0.4288 -0.1010
13883TIP3    H163064   3.121  -0.062  16.266 -0.2518 -0.4171 -0.7270
13883TIP3    H263065   3.142   0.047  16.163  0.0934  0.4068  0.2174
13884TIP3   OH263066   1.408   1.143   6.404 -0.0400  0.2570 -0.2686
13884TIP3    H163067   1.322   1.136   6.361  0.2690  2.0492 -1.2442
13884TIP3    H263068   1.471   1.134   6.333  0.5132  1.4122  0.0593
13885TIP3   OH263069   6.043   3.068   3.041 -0.9821 -0.1899  0.0243
13885TIP3    H163070   6.030   3.163   3.037  1.4541  0.1697 -0.1286
13885TIP3    H263071   6.032   3.046   3.133  2.1058  0.8567  0.7031
13886TIP3   OH263072   0.129   3.625  16.299  0.2717  0.2133 -0.2902
13886TIP3    H163073   0.126   3.532  16.278 -0.6766 -0.2734  1.8748
13886TIP3    H263074   0.057   3.638  16.361 -0.0883  2.5434 -1.1299
13887TIP3   OH263075   5.615   2.362  16.299  0.2250  0.0624 -0.5374
13887TIP3    H163076   5.590   2.302  16.228 -0.5547 -0.6149  0.2899
13887TIP3    H263077   5.638   2.443  16.255  0.9508 -0.7321 -1.6639
13888TIP3   OH263078   3.419   6.208  12.711  0.9796 -0.1882  0.2780
13888TIP3    H163079   3.331   6.170  12.720  0.1286  2.0387  1.7264
13888TIP3    H263080   3.478   6.136  12.734 -0.4135 -1.9973 -1.6743
13889TIP3   OH263081   1.943   3.250  15.047 -0.3203  0.2765  0.1729
13889TIP3    H163082   2.006   3.283  14.983  0.1250  0.1431  0.5378
13889TIP3    H263083   1.910   3.169  15.009 -0.0884  0.2204  0.0946
13890TIP3   OH263084   1.883   3.873  15.043  0.6651 -0.1950  0.1085
13890TIP3    H163085   1.861   3.948  14.989  2.3784  1.8050  2.0623
13890TIP3    H263086   1.845   3.893  15.129  1.5220 -1.3450  0.7742
13891TIP3   OH263087   3.728   5.320  15.914 -0.1813  0.2187  0.0070
13891TIP3    H163088   3.766   5.405  15.937 -1.8391  0.5295  1.7109
13891TIP3    H263089   3.642   5.320  15.955 -1.6339 -0.8923 -2.9199
13892TIP3   OH263090   4.681   1.795   3.235  0.2073  0.5466  0.0921
13892TIP3    H163091   4.628   1.748   3.298 -0.0770  1.4318  0.5253
13892TIP3    H263092   4.770   1.793   3.271  0.5775 -1.3273 -0.8573
13893TIP3   OH263093   2.484   4.020  17.012 -0.6223 -0.5986 -0.2938
13893TIP3    H163094   2.399   4.049  17.046  0.2193  2.6495 -0.7996
13893TIP3    H263095   2.542   4.022  17.089 -0.5332 -0.9827 -0.3455
13894TIP3   OH263096   3.584   3.112  14.106  0.6856 -0.3690  0.4005
13894TIP3    H163097   3.496   3.129  14.072  0.4435 -1.3589  0.5189
13894TIP3    H263098   3.593   3.017  14.103  1.5682 -0.3037  0.8517
13895TIP3   OH263099   5.574   0.761   5.307 -0.6386  0.4115 -0.1055
13895TIP3    H163100   5.548   0.840   5.355 -1.7077 -0.5332  0.9190
13895TIP3    H263101   5.525   0.766   5.225  0.8402  1.8028 -0.9308
13896TIP3   OH263102   4.155   3.652   2.802 -0.2008  0.2085  0.3363
13896TIP3    H163103   4.219   3.671   2.871 -0.2463 -1.6600  0.9309
13896TIP3    H263104   4.208   3.640   2.724  0.6277 -4.7423  1.4909
13897TIP3   OH263105   0.599   6.657   1.739 -1.3398  0.1409 -0.2049
13897TIP3    H163106   0.537   6.591   1.708 -2.5409  1.3592 -0.4307
13897TIP3    H263107   0.548   6.711   1.799  0.0497 -0.0816  1.2214
13898TIP3   OH263108   3.820   4.290   4.241 -0.1998 -0.2426  0.0365
13898TIP3    H163109   3.888   4.288   4.308 -1.5415  1.6724  1.4884
13898TIP3    H263110   3.864   4.327   4.164  0.8880 -0.7811  0.3934
13899TIP3   OH263111   2.242   4.748  12.778  0.3024 -0.2451 -0.0852
13899TIP3    H163112   2.323   4.765  12.826 -0.0841 -0.1554  0.5380
13899TIP3    H263113   2.208   4.667  12.816 -0.2890  0.1217  0.1628
13900TIP3   OH263114   5.061   2.371  16.864 -0.2575 -0.3843  0.2421
13900TIP3    H163115   5.072   2.452  16.814  1.5554 -1.0836 -0.5576
13900TIP3    H263116   5.102   2.388  16.949 -1.5783  0.1609  0.7677
13901TIP3   OH263117   5.469   5.230   5.328  0.0351 -0.4871 -0.0533
13901TIP3    H163118   5.482   5.248   5.421 -0.9635 -1.8090  0.3606
13901TIP3    H263119   5.447   5.315   5.290 -1.7521 -0.3028  1.3366
13902TIP3   OH263120   2.030   1.871  14.380 -0.2299  0.4482 -0.0124
13902TIP3    H163121   2.111   1.857  14.332 -1.1610 -1.4072 -1.0728
13902TIP3    H263122   1.990   1.784  14.387 -3.2364  1.6334 -1.5177
13903TIP3   OH263123   2.231   3.346   1.041 -0.6296 -0.7608 -0.0891
13903TIP3    H163124   2.245   3.397   0.962 -0.6921 -0.1644  0.2812
13903TIP3    H263125   2.139   3.322   1.039 -0.5431 -1.0675 -0.3860
13904TIP3   OH263126   2.800   2.515  14.020 -0.4435  0.0279  0.4129
13904TIP3    H163127   2.818   2.543  14.110  0.4126 -0.5304  0.4157
13904TIP3    H263128   2.852   2.574  13.966  0.1560 -0.5625  0.3482
13905TIP3   OH263129   3.233   1.294  16.141  0.7110 -0.0310  0.6616
13905TIP3    H163130   3.220   1.251  16.226  0.6620  0.3441  0.8476
13905TIP3    H263131   3.171   1.368  16.142 -0.2584 -0.8121 -0.2487
13906TIP3   OH263132   5.260   5.049   2.034 -0.1072 -0.1124  0.2708
13906TIP3    H163133   5.342   5.098   2.022 -0.3074  0.0000 -0.6503
13906TIP3    H263134   5.192   5.116   2.033 -0.4004 -0.4170 -1.1984
13907TIP3   OH263135   2.804   1.464  17.112 -0.5081  0.2917 -0.1118
13907TIP3    H163136   2.858   1.476  17.190 -0.5090  0.8449 -0.1937
13907TIP3    H263137   2.715   1.481  17.142 -0.6521 -0.7192  0.0449
13908TIP3   OH263138   0.411   2.988  14.175 -0.1216  0.0443  0.5274
13908TIP3    H163139   0.334   2.998  14.231 -0.8733 -1.0434 -0.2749
13908TIP3    H263140   0.432   2.895  14.181  1.0069  0.3039  0.5759
13909TIP3   OH263141   3.880   6.102   2.991  0.0030  0.9155  0.3382
13909TIP3    H163142   3.842   6.187   3.015  1.8832  1.2094  2.3991
13909TIP3    H263143   3.975   6.118   2.990  0.3889 -1.2501  1.1425
13910TIP3   OH263144   1.307   3.788  12.581 -0.2011 -0.2180  0.2634
13910TIP3    H163145   1.381   3.757  12.529 -0.0405  0.3771  0.1292
13910TIP3    H263146   1.343   3.802  12.668  0.0002  0.6575  0.0511
13911TIP3   OH263147   2.520   6.107   2.725 -0.7247 -0.6917 -0.4525
13911TIP3    H163148   2.461   6.151   2.786 -1.4318 -1.0784 -0.8536
13911TIP3    H263149   2.541   6.174   2.660 -0.8850 -0.6062 -0.4173
13912TIP3   OH263150   1.040   3.972   3.202 -0.3097 -0.1417  0.5687
13912TIP3    H163151   1.081   4.033   3.263 -1.3025 -0.0235  1.1273
13912TIP3    H263152   1.093   3.892   3.208  0.3625  0.3052  0.6184
13913TIP3   OH263153   1.770   5.896   2.629 -0.0418  0.3663 -0.0775
13913TIP3    H163154   1.722   5.820   2.598 -1.3605  1.5335 -0.9776
13913TIP3    H263155   1.737   5.969   2.576  1.3287  1.5360  0.6169
13914TIP3   OH263156   1.872   5.039   1.748 -0.5428  0.0419  0.0095
13914TIP3    H163157   1.850   5.066   1.659 -0.6094  1.6972  0.5274
13914TIP3    H263158   1.789   5.010   1.786 -0.2719 -2.0935 -0.9323
13915TIP3   OH263159   2.918   3.477   1.070  0.1211 -0.2009  0.2451
13915TIP3    H163160   2.847   3.525   1.027  0.4307  0.1239  0.1004
13915TIP3    H263161   2.962   3.431   0.999  1.8593  1.8936 -0.0516
13916TIP3   OH263162   4.558   3.115   2.380  0.5426 -0.0099  1.1060
13916TIP3    H163163   4.580   3.031   2.422  0.7766 -0.9357 -0.7870
13916TIP3    H263164   4.492   3.092   2.314  0.3497  1.3553  0.8113
13917TIP3   OH263165   4.365   1.503  13.822 -0.3875 -0.4435  0.0510
13917TIP3    H163166   4.351   1.435  13.888 -1.5189  0.2584  0.5464
13917TIP3    H263167   4.312   1.577  13.851  0.8275  0.6722 -0.4749
13918TIP3   OH263168   1.501   3.633  10.839  0.1705 -0.4775  0.0684
13918TIP3    H163169   1.512   3.561  10.777 -1.8900 -1.0681  0.3349
13918TIP3    H263170   1.513   3.712  10.786 -1.1446 -0.9763 -1.0267
13919TIP3   OH263171   4.922   2.702   0.307  0.1727 -0.0914  0.0396
13919TIP3    H163172   4.917   2.765   0.235  0.5484 -1.1205 -0.8994
13919TIP3    H263173   4.889   2.750   0.383 -0.7533  0.8299 -0.9294
13920TIP3   OH263174   3.275   6.509  11.085  0.0442  0.3726  0.1481
13920TIP3    H163175   3.298   6.590  11.132  0.5160  0.2329  0.1682
13920TIP3    H263176   3.213   6.537  11.019  1.7215  1.1157 -1.1651
13921TIP3   OH263177   2.015   5.010   4.275  0.6338  0.7890 -0.4613
13921TIP3    H163178   1.963   5.089   4.266  0.6707  0.8092 -0.4952
13921TIP3    H263179   2.105   5.041   4.283  0.5401  0.8025  0.5970
13922TIP3   OH263180   5.928   1.645  16.921  0.0817 -0.0587  0.0579
13922TIP3    H163181   6.006   1.595  16.898 -0.0452  0.5682 -1.8783
13922TIP3    H263182   5.857   1.580  16.921  0.3450 -0.3471  0.2167
13923TIP3   OH263183   2.403   5.439   4.506  0.3894 -0.5430  0.3620
13923TIP3    H163184   2.420   5.486   4.587 -0.6346  1.7087 -0.6918
13923TIP3    H263185   2.342   5.369   4.532 -0.8396  0.8621  1.3338
13924TIP3   OH263186   2.315   2.227   3.023 -0.1231 -0.0694 -0.1913
13924TIP3    H163187   2.335   2.144   2.979 -1.3423 -0.8159  0.6367
13924TIP3    H263188   2.401   2.262   3.046  0.4809 -0.2779 -2.0122
13925TIP3   OH263189   3.461   0.086   0.618  0.3821  0.3303 -0.3788
13925TIP3    H163190   3.404   0.016   0.586  2.5156 -0.5543 -2.3818
13925TIP3    H263191   3.526   0.042   0.672  2.3065  0.5492 -2.4115
13926TIP3   OH263192   6.447   4.437  13.934  0.0744 -0.7864 -0.0674
13926TIP3    H163193   6.410   4.462  14.018  3.3366  0.3143  1.1116
13926TIP3    H263194   6.513   4.370  13.955 -0.2466 -1.7209 -1.9232
13927TIP3   OH263195   3.044   6.089   5.764  0.2109  0.0236 -0.3577
13927TIP3    H163196   3.111   6.023   5.780  0.6973  0.1361 -1.9061
13927TIP3    H263197   2.962   6.040   5.765  0.4868 -0.4417 -0.5049
13928TIP3   OH263198   2.055   3.924   4.951 -0.0668  0.0382 -0.0563
13928TIP3    H163199   2.123   3.976   4.994  0.7959  0.1308 -1.4856
13928TIP3    H263200   1.977   3.936   5.006  0.5308  1.6049  0.4878
13929TIP3   OH263201   1.510   4.175   0.166 -0.4227  0.0359  0.1601
13929TIP3    H163202   1.579   4.126   0.121  1.4362  1.3140  1.5261
13929TIP3    H263203   1.519   4.150   0.258 -0.4838  1.6941  0.6287
13930TIP3   OH263204   3.768   6.447  11.869 -0.2955  0.3610  0.0468
13930TIP3    H163205   3.685   6.494  11.856 -0.5967 -0.1761  0.0099
13930TIP3    H263206   3.747   6.380  11.934  0.4484  1.0826  1.0580
13931TIP3   OH263207   5.009   3.607  13.869 -0.1563  0.0149  0.1660
13931TIP3    H163208   5.090   3.599  13.920 -0.0216  0.5387  0.0355
13931TIP3    H263209   5.013   3.535  13.807 -0.5032 -0.8594  1.1373
13932TIP3   OH263210   6.058   1.103  10.645 -0.3746 -0.1492 -0.1742
13932TIP3    H163211   6.121   1.032  10.631  0.8906  0.6394  1.3215
13932TIP3    H263212   6.087   1.173  10.588 -0.0219  0.1332  0.3483
13933TIP3   OH263213   1.678   3.737   1.136 -0.0947 -0.7181  0.9571
13933TIP3    H163214   1.659   3.676   1.207 -0.7542 -0.7567  0.7463
13933TIP3    H263215   1.595   3.747   1.089  0.0094  0.3434  0.9851
13934TIP3   OH263216   2.519   2.287  15.321  0.2294  0.5745  1.0714
13934TIP3    H163217   2.443   2.289  15.263  0.1716  0.7903  1.1522
13934TIP3    H263218   2.486   2.247  15.402  0.0799  1.0986  1.2754
13935TIP3   OH263219   2.434   6.125  15.792 -0.3094 -0.4629  0.3053
13935TIP3    H163220   2.426   6.042  15.840  0.7610 -0.5464  0.3380
13935TIP3    H263221   2.526   6.129  15.766 -0.2835  0.8800  0.6005
13936TIP3   OH263222   5.689   2.923  11.702  0.2616  0.4794 -0.3017
13936TIP3    H163223   5.654   2.977  11.631 -0.1778 -1.0637 -1.2934
13936TIP3    H263224   5.639   2.842  11.698  1.8748 -0.5872  0.2198
13937TIP3   OH263225   1.791   0.644  16.673 -0.5208  0.4691 -0.3724
13937TIP3    H163226   1.845   0.565  16.668 -1.2252  0.0548 -1.4911
13937TIP3    H263227   1.801   0.674  16.763  1.0064 -0.0060 -0.3648
13938TIP3   OH263228   1.219   1.135   2.454  0.2251  0.3923  0.0777
13938TIP3    H163229   1.254   1.124   2.542 -0.6332 -2.9410  0.0289
13938TIP3    H263230   1.287   1.099   2.397 -0.2362  0.4146 -0.4871
13939TIP3   OH263231   1.814   0.542   4.624  0.2262  0.1770  0.0037
13939TIP3    H163232   1.739   0.558   4.568 -0.6595 -0.1833  1.0633
13939TIP3    H263233   1.810   0.448   4.644  1.0959  0.1024 -0.1342
13940TIP3   OH263234   6.595   3.496   0.672  0.1902 -0.1450 -0.2061
13940TIP3    H163235   6.503   3.492   0.697  0.4245 -1.4406  0.5003
13940TIP3    H263236   6.601   3.570   0.612 -1.0947  0.6557  0.6375
13941TIP3   OH263237   0.393   2.883   3.400 -0.6535  0.2189 -0.1412
13941TIP3    H163238   0.367   2.973   3.383  1.2811  0.5844 -1.1949
13941TIP3    H263239   0.427   2.884   3.489 -1.4172  0.3461  0.1542
13942TIP3   OH263240   4.625   5.495  12.377 -0.0760 -0.0267  0.3313
13942TIP3    H163241   4.693   5.498  12.310 -0.4100 -0.1344 -0.0107
13942TIP3    H263242   4.572   5.419  12.355 -0.9412  0.6666 -0.0115
13943TIP3   OH263243   0.103   0.981   5.250  0.1354  0.3623  0.4806
13943TIP3    H163244   0.027   1.006   5.303  0.6090 -1.5895  2.1529
13943TIP3    H263245   0.163   1.055   5.258 -0.3453  0.6397  1.6188
13944TIP3   OH263246   0.831   5.064  11.357 -0.4058  0.1213  0.2534
13944TIP3    H163247   0.870   5.102  11.278  0.1082  0.5272  0.6971
13944TIP3    H263248   0.881   5.103  11.429  0.5066 -1.8371  0.6972
13945TIP3   OH263249   6.743   3.366   3.860  0.4310  0.5454  0.9292
13945TIP3    H163250   6.732   3.310   3.783  0.1272  0.0268  1.3448
13945TIP3    H263251   6.832   3.349   3.890  0.3887  0.3935  0.9691
13946TIP3   OH263252   5.312   1.868   3.117 -0.3848 -0.6497  0.1718
13946TIP3    H163253   5.356   1.914   3.189 -1.4865 -0.2450  0.6014
13946TIP3    H263254   5.324   1.775   3.137 -3.3954 -0.6211  2.6647
13947TIP3   OH263255   5.694   1.797  15.209 -0.5739  0.2623 -0.4563
13947TIP3    H163256   5.662   1.887  15.220 -0.3498  0.1276  1.5004
13947TIP3    H263257   5.625   1.742  15.245 -1.0563 -0.4221 -2.3569
13948TIP3   OH263258   3.166   2.764   4.477  0.5485  0.0399 -0.4446
13948TIP3    H163259   3.165   2.668   4.477 -0.5542  0.0392 -0.9126
13948TIP3    H263260   3.257   2.787   4.459  0.7007 -0.9275 -0.9823
13949TIP3   OH263261   5.181   4.710  15.716 -0.1860 -0.0837 -0.3999
13949TIP3    H163262   5.236   4.771  15.667  1.6039 -1.4765 -0.1798
13949TIP3    H263263   5.212   4.718  15.807 -1.1751 -0.0091 -0.0619
13950TIP3   OH263264   1.941   1.936  11.628  0.5639  0.1233  0.0380
13950TIP3    H163265   1.885   2.011  11.647 -0.3391 -0.4734 -0.2880
13950TIP3    H263266   1.917   1.910  11.539  0.9671 -0.4877  0.1072
13951TIP3   OH263267   2.771   4.284  14.980 -0.1550  0.4520  0.4836
13951TIP3    H163268   2.778   4.298  14.886  0.9742 -1.3938  0.2703
13951TIP3    H263269   2.849   4.328  15.016 -0.9180  1.7055  0.6412
13952TIP3   OH263270   4.815   1.434  13.953  0.7776  0.1654  0.1013
13952TIP3    H163271   4.884   1.398  14.009  0.2377  0.0413  0.6905
13952TIP3    H263272   4.737   1.384  13.976  0.0922  1.5101  0.7025
13953TIP3   OH263273   5.677   0.818  16.041  0.0599  0.1792  0.1236
13953TIP3    H163274   5.737   0.809  16.115 -1.4742 -0.8062  1.2745
13953TIP3    H263275   5.731   0.854  15.970  1.9932 -0.6561  1.1424
13954TIP3   OH263276   5.926   1.012   6.603 -0.0172  0.2603  0.0048
13954TIP3    H163277   5.944   0.929   6.647 -0.8488 -0.6065 -1.2468
13954TIP3    H263278   5.975   1.077   6.653  0.9163 -1.0343  0.8059
13955TIP3   OH263279   3.016   2.816   2.720 -1.0705  0.0830 -0.1313
13955TIP3    H163280   3.058   2.734   2.746  0.8911  0.8041 -0.8941
13955TIP3    H263281   3.071   2.885   2.759 -1.1159  1.0667 -1.7456
13956TIP3   OH263282   2.679   6.467  12.605  0.0901  0.2081  0.2339
13956TIP3    H163283   2.656   6.557  12.627 -0.9821 -0.2864  1.1956
13956TIP3    H263284   2.758   6.449  12.655 -0.2081  0.3244  0.7486
13957TIP3   OH263285   1.815   4.105  13.403  0.1758 -0.7215 -0.2146
13957TIP3    H163286   1.791   4.194  13.379  2.2418  0.1090  0.5931
13957TIP3    H263287   1.825   4.059  13.320  1.0596  0.3694 -0.7314
13958TIP3   OH263288   6.681   1.010  16.805  1.1268 -0.4245 -0.4334
13958TIP3    H163289   6.773   1.034  16.804  1.1021 -0.2648  0.5140
13958TIP3    H263290   6.673   0.946  16.876  0.3957  0.0710 -0.0519
13959TIP3   OH263291   4.235   0.407   0.236  0.1712  0.2032 -0.0548
13959TIP3    H163292   4.232   0.318   0.272 -1.3601 -0.0930 -0.8687
13959TIP3    H263293   4.195   0.399   0.150 -0.8320  1.8542  0.2356
13960TIP3   OH263294   2.553   3.046  12.200 -0.5289  0.1036  0.1597
13960TIP3    H163295   2.528   3.022  12.289 -1.5543 -1.3307 -0.4897
13960TIP3    H263296   2.495   2.994  12.144  0.4619  0.5846 -1.3502
13961TIP3   OH263297   1.918   0.953   4.648  0.4062  0.0382 -0.1797
13961TIP3    H163298   1.878   1.038   4.632  2.1151  0.8337 -0.3150
13961TIP3    H263299   1.908   0.906   4.566 -2.4477 -0.7273  0.5274
13962TIP3   OH263300   5.802   4.932  13.104  0.1884 -0.0000  0.3923
13962TIP3    H163301   5.882   4.901  13.147 -0.4605 -0.3214  1.3900
13962TIP3    H263302   5.731   4.895  13.157 -0.6342 -0.4525 -1.0038
13963TIP3   OH263303   3.400   4.362  12.656 -0.0217  0.0003 -0.2829
13963TIP3    H163304   3.405   4.410  12.739 -0.0191  1.5354 -1.1458
13963TIP3    H263305   3.446   4.417  12.594  0.6406 -1.5153 -1.1517
13964TIP3   OH263306   6.066   6.725  15.549  0.5201 -0.3189  0.6305
13964TIP3    H163307   6.099   6.815  15.549  0.0512 -0.1472  0.7378
13964TIP3    H263308   6.047   6.708  15.642  1.1599 -0.7320  0.6917
13965TIP3   OH263309   1.908   4.613  16.600 -0.3972  0.1661  0.3079
13965TIP3    H163310   1.925   4.633  16.692  0.5006  0.4895  0.0899
13965TIP3    H263311   1.951   4.528  16.586 -0.4701  0.1513  0.1793
13966TIP3   OH263312   1.006   5.182  14.282 -0.2698 -0.1844 -0.5114
13966TIP3    H163313   1.049   5.255  14.326 -0.2640  1.4843 -3.1752
13966TIP3    H263314   0.914   5.207  14.275 -0.5139 -0.9998 -0.3045
13967TIP3   OH263315   0.767   3.891   5.644 -0.3526 -0.0232 -0.8243
13967TIP3    H163316   0.859   3.864   5.645 -0.1414  0.6749 -1.0008
13967TIP3    H263317   0.720   3.816   5.680  0.3618 -0.0913 -0.0147
13968TIP3   OH263318   4.001   4.662   3.501 -0.0241  0.0327  0.2192
13968TIP3    H163319   4.081   4.714   3.513  1.0868 -1.8720  1.4291
13968TIP3    H263320   4.021   4.605   3.427  0.3916 -1.6126  1.5765
13969TIP3   OH263321   3.317   2.378  14.364 -0.1346 -0.5217  0.1676
13969TIP3    H163322   3.244   2.325  14.332 -1.0161  0.6677  0.1718
13969TIP3    H263323   3.353   2.419  14.286  0.1191 -0.6086  0.2408
13970TIP3   OH263324   1.076   6.000   4.065  0.1304 -0.2011  0.2467
13970TIP3    H163325   1.040   5.930   4.010 -0.8736 -0.2696  0.9722
13970TIP3    H263326   1.049   6.081   4.021 -0.5332 -0.2569  0.5456
13971TIP3   OH263327   1.190   0.337   4.939  0.3878  0.4992  0.1434
13971TIP3    H163328   1.211   0.255   4.982  0.1587 -0.2538 -1.1624
13971TIP3    H263329   1.271   0.363   4.895  0.6596  1.3319  1.1169
13972TIP3   OH263330   0.472   6.529  13.199 -0.0646  0.0440 -0.3830
13972TIP3    H163331   0.559   6.550  13.165 -0.3587 -1.2159 -1.9796
13972TIP3    H263332   0.412   6.568  13.136 -0.6421 -0.8574 -0.3976
13973TIP3   OH263333   6.038   3.372   2.133  0.3328  0.1092  0.0090
13973TIP3    H163334   5.948   3.382   2.165  0.6430  1.0184  0.6232
13973TIP3    H263335   6.081   3.318   2.200  0.5960  0.8043  0.4085
13974TIP3   OH263336   1.458   3.407  14.153 -0.0660  0.5542 -0.1242
13974TIP3    H163337   1.472   3.384  14.061 -0.9155 -1.1317  0.1463
13974TIP3    H263338   1.534   3.371  14.199 -0.1365  0.5171 -0.0372
13975TIP3   OH263339   4.161   5.445  13.845 -0.2031 -0.1149 -0.4730
13975TIP3    H163340   4.183   5.354  13.866 -0.6926 -0.0248  0.4424
13975TIP3    H263341   4.092   5.438  13.779 -1.4985 -0.4098  0.9089
13976TIP3   OH263342   4.891   5.646  12.701 -0.0336  0.2416  0.1543
13976TIP3    H163343   4.800   5.653  12.671 -0.0854 -2.0886 -0.3557
13976TIP3    H263344   4.898   5.556  12.733  2.2739  0.1859 -0.4345
13977TIP3   OH263345   4.547   5.044   4.602 -0.5727  0.0982 -0.5016
13977TIP3    H163346   4.578   5.127   4.638  1.7642 -1.4950  1.3171
13977TIP3    H263347   4.469   5.023   4.654 -0.1014  0.2822  0.2917
13978TIP3   OH263348   4.338   3.598   1.551 -0.6258 -0.1612  0.3825
13978TIP3    H163349   4.403   3.553   1.606 -0.7015 -0.5694  0.1441
13978TIP3    H263350   4.255   3.556   1.573 -0.6325 -0.4302 -0.1510
13979TIP3   OH263351   2.919   4.019  16.434 -0.0433  0.6023 -0.1680
13979TIP3    H163352   2.917   4.058  16.521  1.6661  1.3761 -0.4694
13979TIP3    H263353   2.832   4.038  16.398  0.0347  2.2936  0.4931
13980TIP3   OH263354   6.747   3.075  14.985  0.0756  0.5296  0.0414
13980TIP3    H163355   6.784   2.997  15.027  1.8533  1.2874 -0.0506
13980TIP3    H263356   6.745   3.053  14.892 -0.1629  0.3026  0.1004
13981TIP3   OH263357   5.359   3.041  16.916 -0.4659 -0.3991  0.0608
13981TIP3    H163358   5.423   2.972  16.898 -0.8767 -0.7311 -0.1520
13981TIP3    H263359   5.396   3.090  16.990  1.4497  1.2577 -1.9335
13982TIP3   OH263360   3.602   1.401  14.378  0.1416  0.5410  0.3392
13982TIP3    H163361   3.547   1.352  14.439  0.3861 -0.3379 -0.1315
13982TIP3    H263362   3.612   1.487  14.418  1.5673 -0.4850  2.3039
13983TIP3   OH263363   0.218   4.417   0.085 -0.2132 -0.7750  0.0882
13983TIP3    H163364   0.158   4.389   0.016  0.3077 -1.1039 -0.2374
13983TIP3    H263365   0.299   4.367   0.068  1.1340  1.7217 -1.1428
13984TIP3   OH263366   5.650   3.909   2.206 -0.4697  0.2071 -0.2014
13984TIP3    H163367   5.623   3.827   2.166 -2.1174  0.7734 -0.3082
13984TIP3    H263368   5.744   3.900   2.221 -0.4774 -1.3213 -1.0661
13985TIP3   OH263369   0.223   5.557   1.426 -0.5425 -0.3371 -0.0847
13985TIP3    H163370   0.196   5.466   1.434 -0.0313 -0.5329 -0.5550
13985TIP3    H263371   0.303   5.554   1.372 -0.0403  0.3007  0.6149
13986TIP3   OH263372   4.827   6.433   2.379  0.1274  0.2143  0.3880
13986TIP3    H163373   4.875   6.440   2.461  1.7615 -0.5045 -0.4782
13986TIP3    H263374   4.838   6.518   2.337  0.1475  0.2465  0.4584
13987TIP3   OH263375   5.365   6.482   1.819  0.1663  0.2236 -0.2609
13987TIP3    H163376   5.431   6.441   1.763 -1.2474 -0.4759 -1.4328
13987TIP3    H263377   5.416   6.528   1.886  1.8484  0.1342 -1.4545
13988TIP3   OH263378   2.780   6.406  16.151 -0.0482 -0.0512  0.4524
13988TIP3    H163379   2.750   6.431  16.239 -1.9672 -1.4052  0.2327
13988TIP3    H263380   2.781   6.488  16.101 -0.5098  0.4845  1.3112
13989TIP3   OH263381   0.313   2.028  14.172  0.0985  0.7150  0.7267
13989TIP3    H163382   0.258   1.953  14.196 -0.0337  0.7641  0.5802
13989TIP3    H263383   0.351   2.058  14.255  0.1773  0.4655  0.7802
13990TIP3   OH263384   0.293   5.870   0.188  0.5016  0.1530  0.4601
13990TIP3    H163385   0.358   5.935   0.162  0.0850  0.3412 -0.1155
13990TIP3    H263386   0.287   5.879   0.283  1.0167  0.4149  0.4697
13991TIP3   OH263387   1.456   3.662  12.356  0.3609  0.4655  0.1698
13991TIP3    H163388   1.493   3.713  12.284  3.1241 -4.4693 -2.1526
13991TIP3    H263389   1.529   3.651  12.417 -0.0608 -1.0499  0.4072
13992TIP3   OH263390   5.133   5.090  14.451  0.0215 -0.2050  0.1474
13992TIP3    H163391   5.047   5.130  14.458 -0.9463 -1.3190 -4.1195
13992TIP3    H263392   5.192   5.162  14.430  0.0095  0.3829  2.0094
13993TIP3   OH263393   5.443   0.807   0.705  0.4889  0.4632  0.1218
13993TIP3    H163394   5.444   0.805   0.800  0.6821 -0.0465  0.1071
13993TIP3    H263395   5.484   0.891   0.683  0.5197  0.5440  0.4799
13994TIP3   OH263396   5.168   5.248   2.651  0.2471 -0.0163  0.0643
13994TIP3    H163397   5.146   5.208   2.735  0.3841 -4.0319 -1.6537
13994TIP3    H263398   5.257   5.281   2.662  0.4854 -1.0482  1.3123
13995TIP3   OH263399   0.853   6.146   5.454 -0.3018  0.0142  0.3067
13995TIP3    H163400   0.761   6.150   5.478 -0.4025  0.9048 -0.1878
13995TIP3    H263401   0.886   6.234   5.475  0.4274 -0.2940  0.4616
13996TIP3   OH263402   0.249   2.138   0.500 -0.0844 -0.6199  0.5688
13996TIP3    H163403   0.232   2.233   0.498  0.2408 -0.5566  0.6566
13996TIP3    H263404   0.257   2.118   0.594 -2.1216 -1.1000  0.6496
13997TIP3   OH263405   2.010   1.414  13.686  0.0948 -0.5622  0.2244
13997TIP3    H163406   1.960   1.478  13.635  0.3017 -1.0171 -0.5665
13997TIP3    H263407   2.082   1.389  13.629 -0.3644 -2.0075  0.2446
13998TIP3   OH263408   1.563   5.049  16.708  0.1909 -1.1622 -0.1089
13998TIP3    H163409   1.569   5.107  16.631  0.3065  2.2706  2.3698
13998TIP3    H263410   1.654   5.026  16.726  0.5393  1.1226  1.2015
13999TIP3   OH263411   6.350   3.847  12.042  0.4813  0.0486  0.2813
13999TIP3    H163412   6.377   3.853  12.134 -0.6081 -0.8348  0.6788
13999TIP3    H263413   6.325   3.755  12.032  1.2998 -0.0295 -1.1119
14000TIP3   OH263414   2.846   2.798   3.284 -0.0395 -0.3393 -0.1548
14000TIP3    H163415   2.752   2.812   3.278 -0.0016 -0.2510 -0.6178
14000TIP3    H263416   2.856   2.721   3.339 -0.3237  0.4843  1.0664
14001TIP3   OH263417   1.996   2.661  16.090  0.1092  0.2384 -0.7922
14001TIP3    H163418   1.948   2.632  16.168  0.5031  0.8102 -0.3292
14001TIP3    H263419   2.083   2.684  16.123  0.1640  0.8363 -1.3449
14002TIP3   OH263420   5.224   2.894  12.973  0.3712 -0.3279  0.1728
14002TIP3    H163421   5.293   2.834  13.003  2.1410  1.9158  0.7194
14002TIP3    H263422   5.231   2.894  12.878 -0.2044 -1.5919  0.1112
14003TIP3   OH263423   6.134   6.257  15.956 -0.4747  0.6063  0.9747
14003TIP3    H163424   6.169   6.204  16.028  0.0011 -0.6526 -0.1623
14003TIP3    H263425   6.138   6.347  15.988 -1.4921 -0.0548  3.0173
14004TIP3   OH263426   5.318   2.551   0.187 -0.0343  0.5054 -0.1063
14004TIP3    H163427   5.240   2.497   0.202  0.6338 -0.3384  0.3814
14004TIP3    H263428   5.283   2.639   0.172 -1.2153 -0.2520 -2.0240
14005TIP3   OH263429   1.866   5.240   4.247 -0.4184 -0.6638 -0.5316
14005TIP3    H163430   1.798   5.301   4.277 -0.3975 -0.0220 -1.7276
14005TIP3    H263431   1.905   5.284   4.171 -0.0030 -1.9132 -1.0536
14006TIP3   OH263432   3.708   3.838   2.691  0.3408  0.4747  0.0413
14006TIP3    H163433   3.665   3.826   2.776 -0.1917 -0.6761 -0.3748
14006TIP3    H263434   3.781   3.775   2.693 -0.9275 -1.0579 -1.1636
14007TIP3   OH263435   2.861   4.742  17.141 -0.1554 -0.7161 -0.2143
14007TIP3    H163436   2.930   4.778  17.086 -1.6306 -2.0964 -3.1062
14007TIP3    H263437   2.889   4.652  17.160  0.0737 -0.4324  0.8126
14008TIP3   OH263438   1.400   2.223  15.590  0.0218 -0.1682 -0.0042
14008TIP3    H163439   1.440   2.150  15.637  1.1510  0.8955  0.7337
14008TIP3    H263440   1.448   2.227  15.507  1.0013  0.6709  0.5893
14009TIP3   OH263441   0.030   5.826   5.894 -0.1358  0.5102 -0.1505
14009TIP3    H163442  -0.046   5.844   5.951  0.9850 -0.3571  1.6455
14009TIP3    H263443   0.085   5.767   5.945 -0.3865 -2.5428 -3.2339
14010TIP3   OH263444   0.686   6.600   3.923 -0.1841 -0.2665  0.0377
14010TIP3    H163445   0.684   6.667   3.855  0.0644 -1.0499 -0.7499
14010TIP3    H263446   0.740   6.639   3.993  0.3194  0.1855 -0.5932
14011TIP3   OH263447   2.386   4.969  13.295 -0.2478  0.1379 -0.5768
14011TIP3    H163448   2.323   5.040  13.282  0.3273  0.9095  0.6950
14011TIP3    H263449   2.390   4.924  13.211 -1.9238  0.5476 -0.8928
14012TIP3   OH263450   2.283   4.767   1.009  0.2091 -0.0641 -0.6746
14012TIP3    H163451   2.202   4.771   1.060 -1.1769  0.8025 -2.8649
14012TIP3    H263452   2.261   4.808   0.925  3.5074  2.1986 -0.5615
14013TIP3   OH263453   5.655   5.099  12.677  0.0326 -0.0682 -0.0058
14013TIP3    H163454   5.748   5.093  12.698 -0.4197 -1.3953  1.8243
14013TIP3    H263455   5.642   5.034  12.608  0.4547  0.0076 -0.1561
14014TIP3   OH263456   3.539   5.491  12.749  0.5989  0.3189  0.1823
14014TIP3    H163457   3.609   5.545  12.787  0.8355 -0.6552  1.1654
14014TIP3    H263458   3.581   5.447  12.675  0.6956  0.6716  0.0268
14015TIP3   OH263459   5.152   2.494  14.859  0.7089  0.0297 -0.4144
14015TIP3    H163460   5.200   2.416  14.886 -2.3494 -2.1314 -0.9101
14015TIP3    H263461   5.199   2.567  14.899  2.2546 -2.2592  2.0773
14016TIP3   OH263462   3.604   3.091  16.172 -0.7529  0.2958  0.6023
14016TIP3    H163463   3.698   3.101  16.184 -0.5688 -0.9091  0.2048
14016TIP3    H263464   3.581   3.161  16.110 -0.3905  1.5250  1.8201
14017TIP3   OH263465   2.075   3.293   6.552  0.2599 -0.3633 -0.0124
14017TIP3    H163466   2.033   3.224   6.604 -0.4925  1.1386  1.4394
14017TIP3    H263467   2.148   3.323   6.608  2.4085 -1.9548 -1.8838
14018TIP3   OH263468   5.844   3.166  16.631 -0.4893 -0.1496  0.0731
14018TIP3    H163469   5.785   3.092  16.615 -1.0709  0.3606 -0.1730
14018TIP3    H263470   5.885   3.147  16.716 -0.3940 -0.9069 -0.1426
14019TIP3   OH263471   4.378   6.659   5.472 -0.2689  0.2354  0.2852
14019TIP3    H163472   4.320   6.722   5.429  0.5989  0.9006  0.0803
14019TIP3    H263473   4.463   6.672   5.430  0.6594  1.0837  2.3735
14020TIP3   OH263474   1.651   2.225   3.792  0.6317  0.4763 -0.0172
14020TIP3    H163475   1.608   2.300   3.833  0.6268  0.3003  0.3076
14020TIP3    H263476   1.733   2.260   3.757  0.3033  0.7734 -0.4752
14021TIP3   OH263477   0.241   5.022  15.433 -0.1977  0.7946 -0.2352
14021TIP3    H163478   0.317   4.995  15.484 -1.4057  1.8269  2.1918
14021TIP3    H263479   0.240   5.118  15.441 -1.2401  0.8596 -0.9958
14022TIP3   OH263480   2.201   5.325   3.728 -0.7575 -0.3282 -0.2812
14022TIP3    H163481   2.269   5.258   3.726  0.9396  1.3685 -0.2397
14022TIP3    H263482   2.225   5.381   3.802 -0.5619  1.9545 -2.0329
14023TIP3   OH263483   3.080   4.809  10.987  0.1431 -0.4657 -0.2512
14023TIP3    H163484   3.157   4.778  11.035  0.2414 -0.3636 -0.3420
14023TIP3    H263485   3.041   4.730  10.950  0.9736 -0.3847 -1.3436
14024TIP3   OH263486   0.169   0.866   3.619 -0.0359 -0.1748 -0.2300
14024TIP3    H163487   0.251   0.832   3.583  0.0925 -1.4030  1.1660
14024TIP3    H263488   0.108   0.865   3.546  0.4409 -1.8428 -0.6258
14025TIP3   OH263489   1.308   2.790  12.073 -0.3339  0.7419  0.2513
14025TIP3    H163490   1.315   2.775  12.168 -0.0861  1.0067  0.2733
14025TIP3    H263491   1.279   2.706  12.038  0.3416  0.4175  0.4636
14026TIP3   OH263492   2.695   4.391   4.978 -0.4299 -0.4003 -0.2596
14026TIP3    H163493   2.753   4.333   4.930 -2.0797 -1.7954 -0.6001
14026TIP3    H263494   2.729   4.389   5.068  0.9812  0.0486 -0.7641
14027TIP3   OH263495   2.801   4.063   0.611  0.1584  0.0258  0.0601
14027TIP3    H163496   2.882   4.031   0.571  0.5823  1.6847 -0.4613
14027TIP3    H263497   2.734   4.051   0.543  0.2192 -0.2497  0.0523
14028TIP3   OH263498   1.280   3.635   1.759 -0.5625 -0.0360  0.6026
14028TIP3    H163499   1.228   3.638   1.679 -0.3618  0.3200  0.4850
14028TIP3    H263500   1.348   3.570   1.741 -1.2863 -0.9131  0.9555
14029TIP3   OH263501   1.925   0.527  12.554  0.2001  0.1536 -0.4955
14029TIP3    H163502   1.884   0.493  12.633  0.0034  0.7162 -0.3556
14029TIP3    H263503   1.963   0.450  12.512  0.4612 -0.1171  0.2338
14030TIP3   OH263504   6.121   6.214   5.650  0.1679  0.5070  0.0027
14030TIP3    H163505   6.187   6.280   5.668 -0.9401  2.0109 -1.3084
14030TIP3    H263506   6.170   6.135   5.630  1.5778  1.6814 -1.2482
14031TIP3   OH263507   5.466   0.933   3.730 -0.2827  0.7142  0.0551
14031TIP3    H163508   5.436   0.845   3.754  1.9533 -0.4256 -1.1519
14031TIP3    H263509   5.400   0.965   3.669 -0.5233 -0.5928 -0.3850
14032TIP3   OH263510   2.092   3.544   3.555  0.0880 -0.3783 -0.0845
14032TIP3    H163511   2.158   3.585   3.499 -0.9764  0.3989 -0.7816
14032TIP3    H263512   2.103   3.585   3.640 -0.1010  0.3958 -0.4361
14033TIP3   OH263513   1.559   1.976  14.587 -0.0599  0.2278 -0.4422
14033TIP3    H163514   1.573   2.063  14.549  1.4745  0.3691  0.4196
14033TIP3    H263515   1.544   1.920  14.511 -0.1160  1.0733 -1.0681
14034TIP3   OH263516   5.579   5.014   0.782 -0.1636  0.1121 -0.2872
14034TIP3    H163517   5.532   4.972   0.854  0.3748  0.0079  0.0063
14034TIP3    H263518   5.670   4.984   0.792 -0.4523 -1.4626 -2.1505
14035TIP3   OH263519   0.896   4.471   3.157 -0.0570  0.3692  0.2964
14035TIP3    H163520   0.937   4.454   3.073 -1.2791  0.0189 -0.2453
14035TIP3    H263521   0.818   4.415   3.157 -1.0017  1.6631  0.9197
14036TIP3   OH263522   6.247   3.435   6.170  0.2578 -0.1503 -0.1716
14036TIP3    H163523   6.298   3.502   6.216  3.3522 -2.4747 -0.1004
14036TIP3    H263524   6.239   3.363   6.233  0.9765 -1.6884 -1.8049
14037TIP3   OH263525   3.809   2.790  13.474 -0.1192 -0.5679  0.0864
14037TIP3    H163526   3.885   2.737  13.448  1.8134  2.4588 -0.6949
14037TIP3    H263527   3.840   2.839  13.550 -1.6184 -0.0282  0.3549
14038TIP3   OH263528   4.906   4.315   4.881  0.3580  0.6145 -0.3054
14038TIP3    H163529   4.884   4.407   4.889  0.2249  0.4798  0.8553
14038TIP3    H263530   4.991   4.306   4.924 -0.0966  0.0125  0.4799
14039TIP3   OH263531   2.974   1.971  12.362 -0.5955  0.8053 -0.3831
14039TIP3    H163532   2.974   1.924  12.445 -0.2802  0.3767 -0.6279
14039TIP3    H263533   2.918   1.919  12.305 -0.1757  0.6706 -0.6804
14040TIP3   OH263534   6.375   4.508  11.880  0.4869 -0.3784 -0.2260
14040TIP3    H163535   6.372   4.558  11.961 -0.9560  0.6863 -0.8969
14040TIP3    H263536   6.285   4.476  11.868  0.2713  0.8353 -2.1911
14041TIP3   OH263537   6.253   6.111  14.785  0.1018  0.1327 -0.2585
14041TIP3    H163538   6.295   6.029  14.757 -0.2273 -0.4809  1.0000
14041TIP3    H263539   6.259   6.168  14.709 -0.4514 -1.3756 -1.4580
14042TIP3   OH263540   1.435   1.229  11.226 -0.0029  0.5417 -0.0771
14042TIP3    H163541   1.392   1.314  11.237  0.6727  0.9561 -0.5867
14042TIP3    H263542   1.418   1.205  11.135 -2.4659 -1.1490  0.7743
14043TIP3   OH263543   4.384   5.076  15.337  0.4389 -0.1189  0.1429
14043TIP3    H163544   4.336   5.077  15.420  0.6936 -2.0642  0.3510
14043TIP3    H263545   4.476   5.067  15.363  0.5430 -0.4421 -0.3442
14044TIP3   OH263546   1.263   1.850  13.090  0.0755  0.1708 -0.1830
14044TIP3    H163547   1.240   1.931  13.137 -0.9331  0.0761 -0.4995
14044TIP3    H263548   1.255   1.873  12.998 -1.3943 -0.6103 -0.2669
14045TIP3   OH263549   0.922   0.828   5.687 -0.7532 -0.6778 -0.0481
14045TIP3    H163550   0.864   0.899   5.717 -3.2086 -2.1945 -1.0882
14045TIP3    H263551   0.922   0.765   5.759 -0.1342 -0.5378  0.0763
14046TIP3   OH263552   4.670   6.372   2.725  0.4930 -0.1951 -0.1444
14046TIP3    H163553   4.661   6.298   2.665  1.8678  1.8890 -3.0494
14046TIP3    H263554   4.609   6.438   2.692  0.9606  0.8445  1.0133
14047TIP3   OH263555   0.948   6.311  15.445 -0.1345  0.2070 -0.7253
14047TIP3    H163556   0.860   6.344  15.431 -0.1091 -0.0186 -1.4316
14047TIP3    H263557   0.944   6.219  15.419  0.0495 -0.0803  0.2479
14048TIP3   OH263558   5.137   6.182   3.357  0.1420 -0.0246 -0.1430
14048TIP3    H163559   5.163   6.239   3.430 -1.0724  0.4152 -0.0497
14048TIP3    H263560   5.061   6.225   3.319  0.5783 -0.4190 -1.4896
14049TIP3   OH263561   1.032   5.727  10.847  0.3307  0.0088 -0.2421
14049TIP3    H163562   1.123   5.753  10.860  0.3404  0.1916 -0.6797
14049TIP3    H263563   1.033   5.632  10.851  0.8004 -0.0735 -1.9194
14050TIP3   OH263564   4.869   3.715  14.542  0.1459  0.2887  0.1645
14050TIP3    H163565   4.802   3.705  14.475 -0.0382 -1.8134  0.6508
14050TIP3    H263566   4.950   3.732  14.493 -0.4707  1.5169 -0.4625
14051TIP3   OH263567   4.172   2.566   4.726  0.6234  0.2347  0.0611
14051TIP3    H163568   4.206   2.484   4.763 -0.2460 -1.0714 -1.9557
14051TIP3    H263569   4.076   2.556   4.729  0.5075  1.2246 -0.1016
14052TIP3   OH263570   5.179   4.230   6.247 -0.0320 -0.7158  0.0890
14052TIP3    H163571   5.198   4.183   6.166  0.1214 -0.2518 -0.1490
14052TIP3    H263572   5.266   4.251   6.283 -0.0885  0.1016 -0.2331
14053TIP3   OH263573   1.095   3.596  14.709  0.3843 -0.1316 -0.4364
14053TIP3    H163574   1.182   3.635  14.716  0.7228 -1.0903  1.1090
14053TIP3    H263575   1.111   3.501  14.711 -0.7169 -0.3124  0.4296
14054TIP3   OH263576   3.486   3.174  12.684 -0.1014 -0.6075  0.2665
14054TIP3    H163577   3.531   3.095  12.654 -1.2072 -0.8721 -0.6957
14054TIP3    H263578   3.415   3.188  12.622 -0.1993  0.9007  0.6752
14055TIP3   OH263579   4.017   3.519   4.819 -0.0044 -0.5133 -0.7589
14055TIP3    H163580   4.079   3.516   4.892  0.0209  1.4506 -0.6721
14055TIP3    H263581   3.976   3.433   4.819  1.9813 -1.5062 -0.1682
14056TIP3   OH263582   1.480   1.988  12.788 -0.1269  0.4927 -0.1477
14056TIP3    H163583   1.545   1.921  12.809 -1.6099 -0.7902  0.3722
14056TIP3    H263584   1.502   2.014  12.698  0.8168 -0.2561 -0.1468
14057TIP3   OH263585   6.187   1.979  14.838  0.2239 -0.9325 -0.2379
14057TIP3    H163586   6.135   1.970  14.918  2.3701  0.7635  1.3959
14057TIP3    H263587   6.236   1.897  14.832  0.7003 -0.7270  0.6886
14058TIP3   OH263588   0.613   0.451  12.145  0.2592  0.5570  0.1763
14058TIP3    H163589   0.689   0.439  12.201  0.6754  1.2840 -0.2363
14058TIP3    H263590   0.544   0.399  12.187  0.7167  0.6620  1.0578
14059TIP3   OH263591   2.008   1.624   4.748  0.1158  0.1907 -0.5975
14059TIP3    H163592   2.027   1.534   4.723  0.4015 -0.5112  2.1115
14059TIP3    H263593   1.923   1.643   4.707  0.2722 -1.1239 -1.5543
14060TIP3   OH263594   0.991   3.696  16.612 -0.5615  0.3298 -0.2795
14060TIP3    H163595   1.045   3.687  16.534 -0.4305  1.3309 -0.3178
14060TIP3    H263596   1.027   3.773  16.657 -1.7701  0.8304 -0.1615
14061TIP3   OH263597   3.652   4.088   4.386  0.4661 -0.7021  0.0335
14061TIP3    H163598   3.623   4.031   4.315  1.1066 -0.3406 -0.5311
14061TIP3    H263599   3.719   4.144   4.345  0.3800 -0.0639  0.7652
14062TIP3   OH263600   3.897   1.833  12.591 -0.1890 -0.3887  0.0019
14062TIP3    H163601   3.968   1.772  12.611 -0.3445 -1.1550 -1.6931
14062TIP3    H263602   3.818   1.779  12.590 -0.3945 -0.0820 -1.0102
14063TIP3   OH263603   4.684   2.299  12.136 -0.1037  0.5076 -0.7677
14063TIP3    H163604   4.651   2.250  12.061 -0.3030  0.4192 -0.6228
14063TIP3    H263605   4.775   2.321  12.113 -0.6918  1.9577 -1.7692
14064TIP3   OH263606   5.696   3.145   0.400 -0.2220  0.3621 -0.0432
14064TIP3    H163607   5.641   3.184   0.332  1.1097  0.8469 -0.8616
14064TIP3    H263608   5.685   3.203   0.476 -1.2679  0.1367 -0.0140
14065TIP3   OH263609   2.403   1.027   3.915  0.5962 -0.5611  0.0467
14065TIP3    H163610   2.358   1.082   3.979  0.8927 -1.5317  1.1099
14065TIP3    H263611   2.496   1.040   3.932  0.7441  1.0240 -1.7942
14066TIP3   OH263612   1.164   4.029   0.675  0.4127  0.2584 -0.0956
14066TIP3    H163613   1.103   3.981   0.619  0.0101  1.2598 -0.5275
14066TIP3    H263614   1.250   3.992   0.655  0.5047  1.6385 -2.5457
14067TIP3   OH263615   4.451   4.839  12.638 -0.1955  0.6949 -0.1365
14067TIP3    H163616   4.389   4.772  12.665  0.4838  0.7362  1.5755
14067TIP3    H263617   4.399   4.919  12.630 -0.4103  0.6907  1.1276
14068TIP3   OH263618   2.239   5.324  12.461  0.0404 -0.5001  0.7385
14068TIP3    H163619   2.299   5.323  12.386 -1.1266  0.5049 -0.2152
14068TIP3    H263620   2.278   5.262  12.523  2.0302  0.0640  0.1006
14069TIP3   OH263621   4.058   3.487   5.888  0.4469  0.2518 -0.0988
14069TIP3    H163622   4.042   3.457   5.798  2.0881  1.0712 -0.6973
14069TIP3    H263623   3.972   3.511   5.921 -0.3750 -1.4716 -0.9353
14070TIP3   OH263624   4.642   5.106  13.172  0.1893  0.4011  0.2399
14070TIP3    H163625   4.604   5.130  13.088 -0.1737  0.1735  0.3362
14070TIP3    H263626   4.639   5.187  13.224  0.3096  0.5127  0.0724
14071TIP3   OH263627   3.665   2.768  10.465 -0.2775  0.1968  0.1700
14071TIP3    H163628   3.619   2.729  10.539 -0.9850  0.8794  0.0909
14071TIP3    H263629   3.690   2.693  10.411 -2.1380 -0.1213 -0.2785
14072TIP3   OH263630   3.115   2.085   5.118  0.3315 -0.6817 -0.4777
14072TIP3    H163631   3.096   2.179   5.124  0.6988 -0.7273  2.1591
14072TIP3    H263632   3.210   2.079   5.127  0.4302 -1.2475 -1.7846
14073TIP3   OH263633   5.479   0.130  11.640  0.5481 -0.3388  0.2663
14073TIP3    H163634   5.481   0.189  11.715  2.3818  0.1061 -0.1133
14073TIP3    H263635   5.436   0.051  11.672  0.4181  0.2282  1.4889
14074TIP3   OH263636   0.775   5.678  14.098 -0.1133  0.9678 -0.4459
14074TIP3    H163637   0.843   5.639  14.153  0.3220  2.5936  0.1813
14074TIP3    H263638   0.822   5.702  14.017 -0.7635 -1.4801 -1.5882
14075TIP3   OH263639   5.412   4.536  16.733  0.3253  0.8998 -0.0153
14075TIP3    H163640   5.490   4.543  16.788  0.0635  1.7688  0.2609
14075TIP3    H263641   5.445   4.537  16.644  0.8711 -1.9359  0.1035
14076TIP3   OH263642   3.593   0.968  12.364  0.0805 -0.7455 -0.6026
14076TIP3    H163643   3.681   0.934  12.347 -0.6523 -4.2578  2.0443
14076TIP3    H263644   3.607   1.058  12.393  2.4859 -0.1095 -3.4858
14077TIP3   OH263645   6.672   0.810   5.033 -0.0880  0.3947 -0.6220
14077TIP3    H163646   6.619   0.840   5.106  0.3959 -0.5378  0.1243
14077TIP3    H263647   6.747   0.766   5.074 -0.5036 -1.3436 -1.6650
14078TIP3   OH263648   4.070   0.109   3.110  0.0158  0.3863 -0.2749
14078TIP3    H163649   4.107   0.074   3.191 -2.5004 -0.7421  0.4143
14078TIP3    H263650   4.054   0.202   3.130 -1.1001 -0.0046  0.7418
14079TIP3   OH263651   2.064   5.150   5.665  0.0530  0.8309 -0.0502
14079TIP3    H163652   2.140   5.157   5.607 -0.8749 -0.5649 -1.4611
14079TIP3    H263653   1.991   5.133   5.606 -1.0242  0.0554  1.4929
14080TIP3   OH263654   1.412   1.177  13.942  0.1738 -0.2921 -0.3252
14080TIP3    H163655   1.379   1.257  13.901  0.6155 -0.3174 -0.7384
14080TIP3    H263656   1.429   1.118  13.868  1.3595 -0.1905 -0.1447
14081TIP3   OH263657   0.567   5.857  13.074 -0.1850  0.2998  0.2324
14081TIP3    H163658   0.581   5.879  12.982 -0.0919 -2.4164 -0.4340
14081TIP3    H263659   0.645   5.808  13.099  0.4197  2.1750  2.1793
14082TIP3   OH263660   4.398   0.389   3.968  0.3025 -0.1497 -0.3053
14082TIP3    H163661   4.403   0.454   4.039  0.0090  1.0589 -1.3725
14082TIP3    H263662   4.481   0.399   3.920 -0.5235  0.7369 -1.5777
14083TIP3   OH263663   2.653   5.705  12.128 -0.4252 -0.0675  0.4973
14083TIP3    H163664   2.676   5.797  12.114 -0.0534 -0.3908 -1.1254
14083TIP3    H263665   2.711   5.676  12.199 -0.5721  0.9558  1.0395
14084TIP3   OH263666   5.346   2.568   5.362 -1.0241  0.6002  0.5123
14084TIP3    H163667   5.373   2.513   5.436  0.6661  0.8191  0.0784
14084TIP3    H263668   5.331   2.506   5.290  0.8525  0.6758  0.0317
14085TIP3   OH263669   0.067   3.504   0.743 -0.3940  0.0663 -0.0299
14085TIP3    H163670   0.107   3.445   0.679 -0.4708 -1.4029  1.2612
14085TIP3    H263671  -0.026   3.500   0.725 -0.5428 -1.3365  0.9704
14086TIP3   OH263672   4.427   4.832   4.758  0.2234 -0.6476  0.3554
14086TIP3    H163673   4.343   4.788   4.763 -1.3577  2.3403  1.3502
14086TIP3    H263674   4.479   4.794   4.828 -0.2946 -2.5023 -0.2577
14087TIP3   OH263675   5.762   0.343  16.422 -0.1413 -0.0493  0.2834
14087TIP3    H163676   5.764   0.248  16.409  0.1585  0.0519 -0.4628
14087TIP3    H263677   5.670   0.367  16.406  0.0270 -0.0601 -0.7143
14088TIP3   OH263678   1.239   5.388  16.380  0.6321  0.0265  0.0070
14088TIP3    H163679   1.199   5.461  16.427  2.1254  1.0943 -0.3632
14088TIP3    H263680   1.213   5.310  16.430  1.2159  1.0271  1.9037
14089TIP3   OH263681   1.695   3.997  16.957  0.2542  0.1447 -0.1532
14089TIP3    H163682   1.685   4.074  17.012 -1.0914  2.3439 -3.3176
14089TIP3    H263683   1.613   3.948  16.968  0.5315 -0.1084  0.7819
14090TIP3   OH263684   0.184   2.455   3.907 -0.2905  0.3988  0.0492
14090TIP3    H163685   0.130   2.503   3.844 -1.6589 -0.5648  0.4691
14090TIP3    H263686   0.248   2.409   3.852 -3.0408 -2.4575 -0.9109
14091TIP3   OH263687   3.711   3.160   3.359 -0.5502  0.3105 -0.0342
14091TIP3    H163688   3.790   3.189   3.405 -0.0792  2.2513 -1.9574
14091TIP3    H263689   3.701   3.068   3.384  2.8555 -0.2582 -0.4512
14092TIP3   OH263690   0.653   1.594   1.789 -0.5039 -0.1208  0.7696
14092TIP3    H163691   0.689   1.522   1.841  0.0844  0.6189  1.3769
14092TIP3    H263692   0.718   1.608   1.720  0.0189  0.7325  1.4420
14093TIP3   OH263693   2.242   1.974  15.409 -1.3624 -0.7590 -0.2525
14093TIP3    H163694   2.280   2.032  15.474  0.5957 -1.2436 -0.9241
14093TIP3    H263695   2.158   1.946  15.447 -1.1248  0.4558  1.1883
14094TIP3   OH263696   5.494   0.248  16.879 -0.3907  0.5002 -0.2311
14094TIP3    H163697   5.548   0.327  16.884 -1.5148  1.1246  2.7884
14094TIP3    H263698   5.478   0.224  16.970 -0.8911 -2.6737 -1.1075
14095TIP3   OH263699   3.234   6.205   0.520  0.3656 -0.1355  0.4888
14095TIP3    H163700   3.315   6.205   0.572  0.7506 -1.3509 -0.0885
14095TIP3    H263701   3.209   6.113   0.516 -0.6136  0.1534 -0.0167
14096TIP3   OH263702   4.649   5.772   6.069 -0.1271 -0.6934  0.1766
14096TIP3    H163703   4.730   5.823   6.061 -0.7353  0.4987  1.3586
14096TIP3    H263704   4.671   5.701   6.130  0.9441 -2.3525 -2.0794
14097TIP3   OH263705   1.450   0.194  11.084 -0.6267  0.2367 -0.1033
14097TIP3    H163706   1.484   0.171  10.998 -0.4156 -1.1825  0.3534
14097TIP3    H263707   1.363   0.153  11.088 -0.1683 -0.6672  0.7962
14098TIP3   OH263708   2.780   2.875   0.375 -0.0553  0.2162  0.2582
14098TIP3    H163709   2.688   2.878   0.401 -0.5026  3.3556 -1.5393
14098TIP3    H263710   2.827   2.914   0.449 -0.2929 -0.0645  0.5624
14099TIP3   OH263711   2.452   1.249   3.384  0.1783 -0.0915 -0.2714
14099TIP3    H163712   2.367   1.266   3.344  0.1558 -0.2873 -0.3104
14099TIP3    H263713   2.507   1.220   3.311  0.5675  1.0197 -0.4283
14100TIP3   OH263714   2.240   2.774  15.641 -0.0184 -0.7219  0.1435
14100TIP3    H163715   2.315   2.834  15.647  0.6471 -1.1608 -3.0579
14100TIP3    H263716   2.170   2.827  15.603 -0.2991 -1.2086 -0.0144
14101TIP3   OH263717   1.272   4.675   1.520  0.2423  0.0629 -0.5112
14101TIP3    H163718   1.329   4.624   1.462  0.6812  0.0613 -0.0818
14101TIP3    H263719   1.233   4.741   1.464 -1.3151 -1.5448 -1.3491
14102TIP3   OH263720   1.177   4.740  14.048 -0.1228 -0.4650  0.7053
14102TIP3    H163721   1.217   4.664  14.006 -0.1781 -0.1409  0.0599
14102TIP3    H263722   1.148   4.795  13.975  0.0078  0.2198  1.1684
14103TIP3   OH263723   2.947   0.121  14.716 -0.2498  0.3427 -0.4203
14103TIP3    H163724   2.967   0.173  14.794 -3.5591  0.8026  0.1749
14103TIP3    H263725   2.859   0.149  14.690  0.3302 -0.6264 -3.6773
14104TIP3   OH263726   6.757   4.182   6.275 -0.0663  0.0847  0.1359
14104TIP3    H163727   6.702   4.205   6.200 -1.4989  0.7298  1.3745
14104TIP3    H263728   6.837   4.233   6.262  0.0330 -0.4171 -1.3664
14105TIP3   OH263729   3.120   3.064  12.632 -0.2983 -0.5188 -0.4392
14105TIP3    H163730   3.069   3.061  12.713 -1.8411 -0.7839 -1.4203
14105TIP3    H263731   3.103   3.150  12.596 -1.0332 -1.0675 -1.4048
14106TIP3   OH263732   5.568   0.242   1.994  0.5274 -0.1124  0.5050
14106TIP3    H163733   5.596   0.225   1.904  1.1251 -1.6247  0.9621
14106TIP3    H263734   5.574   0.157   2.038 -1.1486  0.3021  1.6121
14107TIP3   OH263735   3.723   5.850  15.560 -0.1463 -0.2080  0.4789
14107TIP3    H163736   3.680   5.878  15.479  1.5182 -0.3804 -0.4670
14107TIP3    H263737   3.697   5.916  15.624  0.4339  1.2531 -0.7650
14108TIP3   OH263738   3.888   1.170  14.495  0.4673  0.2546  0.5990
14108TIP3    H163739   3.835   1.130  14.426 -0.2854  1.5025  0.4472
14108TIP3    H263740   3.935   1.096  14.534  2.2170 -0.2801 -2.3541
14109TIP3   OH263741   3.759   5.776   0.769  0.6110 -0.2734  0.1246
14109TIP3    H163742   3.801   5.694   0.744  0.5089  0.0143 -1.0094
14109TIP3    H263743   3.667   5.754   0.782  0.6811 -0.4410  0.3360
14110TIP3   OH263744   5.773   1.477  15.789  0.2169 -0.2814  0.2912
14110TIP3    H163745   5.708   1.433  15.735 -1.4314  2.0233  0.3379
14110TIP3    H263746   5.847   1.416  15.793 -1.2908 -2.2314 -1.1052
14111TIP3   OH263747   0.337   5.889   5.995 -0.0627 -0.0045  0.4038
14111TIP3    H163748   0.340   5.928   5.908 -0.3301 -1.1387 -0.1274
14111TIP3    H263749   0.385   5.950   6.051  0.4493  0.5380 -0.6168
14112TIP3   OH263750   1.000   3.733  11.139  0.4701 -0.0016 -0.0591
14112TIP3    H163751   0.928   3.672  11.154  2.0851 -2.4833 -1.9670
14112TIP3    H263752   0.959   3.808  11.095 -1.1243 -0.8835 -0.1019
14113TIP3   OH263753   6.325   2.602  12.594  0.0807 -0.0660  0.7314
14113TIP3    H163754   6.273   2.521  12.596 -0.2281  0.1344  0.8258
14113TIP3    H263755   6.414   2.573  12.614  0.0294 -0.4288  0.4504
14114TIP3   OH263756   5.232   3.734  12.631 -0.3404 -0.2251  0.3790
14114TIP3    H163757   5.148   3.701  12.664 -0.9008 -0.5059 -1.3117
14114TIP3    H263758   5.211   3.776  12.548  0.9610  1.0775  0.6915
14115TIP3   OH263759   2.365   4.761   3.422 -0.3147 -0.2605 -0.2137
14115TIP3    H163760   2.311   4.721   3.490 -0.6968  2.2590  1.0476
14115TIP3    H263761   2.322   4.738   3.340 -1.2374 -1.3056  0.5553
14116TIP3   OH263762   6.759   0.054  13.181  0.6498 -0.7107 -0.0464
14116TIP3    H163763   6.761  -0.023  13.125 -0.0271 -1.2436  0.6426
14116TIP3    H263764   6.824   0.036  13.249  2.2620  0.4111 -1.2469
14117TIP3   OH263765   6.156   2.528   2.289 -0.0771 -0.3971 -0.7712
14117TIP3    H163766   6.211   2.494   2.359  0.5804 -1.1147 -1.6288
14117TIP3    H263767   6.217   2.574   2.231 -0.8937  1.9620  0.1849
14118TIP3   OH263768   0.284   2.189   0.846  0.1556 -0.3029 -0.1319
14118TIP3    H163769   0.276   2.100   0.809 -1.8388 -1.0089  1.9203
14118TIP3    H263770   0.203   2.202   0.894  1.6712  1.5426  1.9958
14119TIP3   OH263771   2.341   0.430   0.073 -0.5043 -0.1170  0.4922
14119TIP3    H163772   2.272   0.444   0.008  1.9797  1.7686 -1.8467
14119TIP3    H263773   2.318   0.347   0.115 -2.8344 -0.7698 -1.9424
14120TIP3   OH263774   6.345   0.654  15.124  0.4139 -0.1373 -0.1813
14120TIP3    H163775   6.262   0.623  15.089 -0.5846  2.0855  0.1641
14120TIP3    H263776   6.353   0.611  15.209 -0.1686 -0.6849 -0.4047
14121TIP3   OH263777   5.676   3.700   0.186 -0.3587 -0.0218  0.4160
14121TIP3    H163778   5.726   3.670   0.110 -0.5886 -1.3905  0.7906
14121TIP3    H263779   5.669   3.623   0.242 -0.5531  0.8745  1.6388
14122TIP3   OH263780   6.380   2.371   3.532 -0.0430  0.1461 -0.0647
14122TIP3    H163781   6.447   2.321   3.578 -0.8901 -0.5222  0.4620
14122TIP3    H263782   6.428   2.423   3.468  0.9195 -0.7141 -0.0471
14123TIP3   OH263783   4.997   0.854   2.126  0.0832  0.3734 -0.3926
14123TIP3    H163784   4.959   0.888   2.046 -0.2249  1.2160  0.1043
14123TIP3    H263785   5.083   0.895   2.132 -0.8041  2.1290  0.8763
14124TIP3   OH263786   6.030   0.720   0.846  0.4005  0.2186 -0.7876
14124TIP3    H163787   6.088   0.723   0.922 -0.3826 -0.9057 -0.1272
14124TIP3    H263788   5.958   0.778   0.868 -0.0896 -0.5164 -0.4451
14125TIP3   OH263789   2.694   2.820   4.768 -0.2352  0.0766 -0.1480
14125TIP3    H163790   2.786   2.807   4.791  0.1219  2.8887  0.1714
14125TIP3    H263791   2.646   2.781   4.841  0.6970 -0.7458  0.0438
14126TIP3   OH263792   4.847   0.335  13.883  0.0746 -0.0236  0.3688
14126TIP3    H163793   4.909   0.262  13.882  2.2122  1.7415  0.4677
14126TIP3    H263794   4.766   0.297  13.918  1.7724 -1.8347  2.4960
14127TIP3   OH263795   0.823   0.828   3.508 -0.7100  0.2232  0.1342
14127TIP3    H163796   0.828   0.739   3.544 -0.2053 -0.1590 -0.8459
14127TIP3    H263797   0.750   0.869   3.555 -1.5038 -1.0028 -0.0057
14128TIP3   OH263798   1.089   0.312   1.379  0.1620  0.0802  0.4605
14128TIP3    H163799   1.060   0.395   1.341  1.1740  0.6995  1.0089
14128TIP3    H263800   1.093   0.252   1.305 -0.7482  0.4759  0.0871
14129TIP3   OH263801   4.961   4.367   1.073  0.1168  0.5067  0.0491
14129TIP3    H163802   4.959   4.333   0.984  0.4124  0.4587  0.0593
14129TIP3    H263803   5.002   4.297   1.124  1.3204  1.1305 -0.0442
14130TIP3   OH263804   2.211   1.636   0.662 -0.4140 -0.6183 -0.5089
14130TIP3    H163805   2.180   1.674   0.580  0.1725  2.1178  0.4924
14130TIP3    H263806   2.134   1.593   0.699 -1.3360  0.4044 -1.2215
14131TIP3   OH263807   2.895   4.557  14.001 -0.2135  0.0083  0.0617
14131TIP3    H163808   2.870   4.605  13.922 -0.3850 -2.5452 -1.4863
14131TIP3    H263809   2.991   4.557  14.000 -0.2178 -1.1859 -0.8935
14132TIP3   OH263810   0.594   0.421  13.213 -0.5544  0.1876 -0.0747
14132TIP3    H163811   0.601   0.372  13.131 -0.0870  0.6879 -0.3377
14132TIP3    H263812   0.632   0.507  13.193  1.3587 -0.3346  1.2254
14133TIP3   OH263813   6.193   2.749   3.665 -0.1060  0.4639 -0.8701
14133TIP3    H163814   6.158   2.671   3.707 -0.2192  1.1224  0.2660
14133TIP3    H263815   6.215   2.808   3.737 -1.3166  2.0367 -1.7459
14134TIP3   OH263816   1.224   6.564   0.069 -0.3453 -0.5240  0.3647
14134TIP3    H163817   1.160   6.633   0.087 -0.5807 -0.5559 -0.3360
14134TIP3    H263818   1.254   6.536   0.156 -0.5098  0.2092  0.6588
14135TIP3   OH263819   2.871   2.334  13.825  0.2415 -0.2275 -0.1332
14135TIP3    H163820   2.805   2.266  13.843 -0.7224  0.6745 -0.1795
14135TIP3    H263821   2.844   2.407  13.881  1.7127 -0.1553  0.4862
14136TIP3   OH263822   1.716   5.296  12.192 -0.1817 -0.2101  0.1315
14136TIP3    H163823   1.803   5.276  12.157 -0.1958 -0.0825  0.0265
14136TIP3    H263824   1.732   5.359  12.262 -0.3198  0.8793 -0.8031
14137TIP3   OH263825   1.210   0.842   3.958 -0.1244  0.1581  0.4873
14137TIP3    H163826   1.125   0.800   3.946 -0.7659  1.9169 -1.6475
14137TIP3    H263827   1.190   0.927   3.998  0.6371  0.4741  0.2158
14138TIP3   OH263828   0.824   1.969   1.899 -0.2478  0.1295  0.3122
14138TIP3    H163829   0.884   1.920   1.955  0.5258  1.3011  0.5281
14138TIP3    H263830   0.875   1.989   1.820 -1.3905 -1.6849 -0.9260
14139TIP3   OH263831   2.051   3.635   0.800  0.5552 -0.0916 -0.3598
14139TIP3    H163832   1.968   3.627   0.753 -0.2393 -1.7381  1.2656
14139TIP3    H263833   2.026   3.656   0.890  1.9398  0.4407 -0.0830
14140TIP3   OH263834   2.702   0.789   4.056  0.1572 -0.4610  0.2020
14140TIP3    H163835   2.658   0.771   4.139 -1.1434 -0.1029 -0.3915
14140TIP3    H263836   2.779   0.841   4.080  0.5567 -1.5477  1.3073
14141TIP3   OH263837   2.529   6.566   3.797 -0.0125 -0.5364  0.2068
14141TIP3    H163838   2.451   6.511   3.802  1.2610 -2.5259 -1.0255
14141TIP3    H263839   2.561   6.569   3.887 -0.3144 -1.4961  0.3554
14142TIP3   OH263840   0.457   4.858  14.340  0.5569 -0.1929  0.3238
14142TIP3    H163841   0.417   4.798  14.278 -0.2661  0.2187  0.4432
14142TIP3    H263842   0.427   4.945  14.313  3.0140  0.3505 -0.8186
14143TIP3   OH263843   2.640   2.656  13.776  0.1368  0.0975 -0.1022
14143TIP3    H163844   2.621   2.747  13.800 -0.0824 -0.3438  1.4161
14143TIP3    H263845   2.626   2.606  13.856  2.3098 -1.0002 -0.3565
14144TIP3   OH263846   3.571   3.959  13.336 -0.3561 -0.2285  0.0632
14144TIP3    H163847   3.650   3.952  13.390  0.1078  0.1640 -0.5621
14144TIP3    H263848   3.588   4.033  13.278  0.1124 -2.1091 -2.2450
14145TIP3   OH263849   1.920   6.655  14.463  0.2182  0.2931 -0.8433
14145TIP3    H163850   1.950   6.592  14.529  0.6983  0.5557 -0.8097
14145TIP3    H263851   1.826   6.666  14.481  0.2910  0.1583 -0.3810
14146TIP3   OH263852   1.158   4.764  16.325 -0.1959 -0.2198 -0.6819
14146TIP3    H163853   1.082   4.791  16.377  0.8632  1.8258 -0.1548
14146TIP3    H263854   1.145   4.805  16.240  0.2518  0.0394 -0.6292
14147TIP3   OH263855   1.527   6.021  15.632  0.0711  0.1664  0.8870
14147TIP3    H163856   1.515   5.985  15.544  0.8708 -0.8351  1.1718
14147TIP3    H263857   1.477   6.102  15.632  0.7852  0.6382 -0.7886
14148TIP3   OH263858   2.938   2.790   6.736 -0.4787 -0.2994 -0.2977
14148TIP3    H163859   2.915   2.883   6.728 -2.0871 -0.7680 -1.2666
14148TIP3    H263860   2.866   2.744   6.694  0.8852 -1.9528 -0.8596
14149TIP3   OH263861   2.777   3.430  13.114  0.4430 -0.3587 -0.5587
14149TIP3    H163862   2.699   3.452  13.064 -0.7006 -3.1345 -0.1012
14149TIP3    H263863   2.766   3.337  13.136  3.8130 -0.7843 -0.3932
14150TIP3   OH263864   0.962   5.604  14.328 -0.1249 -0.0862 -0.0289
14150TIP3    H163865   1.018   5.529  14.349  0.4112  0.5894  1.0381
14150TIP3    H263866   0.893   5.601  14.395 -0.3564  0.1064 -0.2602
14151TIP3   OH263867   2.778   1.300  16.258 -0.3228  0.3488 -0.3864
14151TIP3    H163868   2.726   1.228  16.295  1.3583 -0.6707  0.0443
14151TIP3    H263869   2.840   1.323  16.327  0.0449  1.3089 -1.0231
14152TIP3   OH263870   2.383   0.034  16.621  0.1347 -0.2293  0.0535
14152TIP3    H163871   2.371   0.022  16.716 -0.2428  1.3890  0.2185
14152TIP3    H263872   2.364  -0.052  16.584 -1.1280 -0.5305  1.3393
14153TIP3   OH263873   4.903   6.245   1.018 -0.4095 -0.0589  0.0293
14153TIP3    H163874   4.994   6.220   1.006 -0.3626  0.7159 -1.4159
14153TIP3    H263875   4.863   6.230   0.932 -1.2905  1.0218  0.2332
14154TIP3   OH263876   3.759   5.006  14.266 -0.2930 -0.6554 -0.5141
14154TIP3    H163877   3.773   5.022  14.359  1.2571 -0.4110 -0.7823
14154TIP3    H263878   3.670   5.037  14.249 -0.1913  0.2976  0.6571
14155TIP3   OH263879   6.664   6.381   1.007  0.2433 -0.1238 -0.2010
14155TIP3    H163880   6.732   6.367   1.073 -0.1981 -2.2534 -0.1811
14155TIP3    H263881   6.588   6.411   1.057 -0.5780 -3.2419  0.4941
14156TIP3   OH263882   3.729   3.652  16.033 -0.0263 -0.3310  0.5467
14156TIP3    H163883   3.803   3.592  16.035  0.1151 -0.1211  2.6205
14156TIP3    H263884   3.652   3.596  16.022  0.4144 -0.5287 -1.9159
14157TIP3   OH263885   1.507   1.315  12.614 -0.1275  0.3827 -0.8294
14157TIP3    H163886   1.597   1.288  12.596  0.0780  0.3918  0.1545
14157TIP3    H263887   1.478   1.256  12.684 -0.0444  1.9749  0.5777
14158TIP3   OH263888   1.176   0.998   4.228  0.0726 -0.3374  0.1036
14158TIP3    H163889   1.157   1.051   4.305  0.7736  2.9324 -1.8809
14158TIP3    H263890   1.264   0.964   4.244 -0.0810 -0.2887  1.0705
14159TIP3   OH263891   3.091   2.558   4.909 -0.1411  0.1626 -0.2175
14159TIP3    H163892   3.116   2.650   4.909  0.0979  0.0985 -0.1301
14159TIP3    H263893   3.155   2.515   4.854 -1.7784  0.4416 -2.4005
14160TIP3   OH263894   0.555   2.232  14.061  0.0240  0.4312 -0.3734
14160TIP3    H163895   0.627   2.171  14.045 -0.7074 -0.8584  1.1225
14160TIP3    H263896   0.477   2.183  14.035 -0.3041  1.9383 -2.3094
14161TIP3   OH263897   3.550   5.493  14.565 -0.2831 -0.2207 -0.2101
14161TIP3    H163898   3.567   5.575  14.519  2.1760 -0.5404  0.0396
14161TIP3    H263899   3.540   5.428  14.495  2.0099 -0.4432 -0.3767
14162TIP3   OH263900   3.964   4.112  13.693  0.4156  0.2586  0.0537
14162TIP3    H163901   3.940   4.094  13.784  0.3494 -1.4920 -0.2871
14162TIP3    H263902   4.005   4.198  13.696 -2.7651  1.8377  1.1803
14163TIP3   OH263903   0.002   4.239  15.971 -0.0339 -0.2738 -0.0358
14163TIP3    H163904   0.034   4.315  15.923  1.7418 -0.4297  0.8418
14163TIP3    H263905   0.048   4.165  15.931 -2.0905 -0.9510 -1.1867
14164TIP3   OH263906   2.956   5.296  14.134  0.0906  0.7599  0.0002
14164TIP3    H163907   2.951   5.370  14.195 -0.2125 -0.1542  1.0950
14164TIP3    H263908   3.043   5.304  14.094  0.0316  1.7447  0.0606
14165TIP3   OH263909   6.709   1.938  16.399  0.4643 -1.0150 -0.0043
14165TIP3    H163910   6.690   1.891  16.481 -0.0725 -0.1266  0.3999
14165TIP3    H263911   6.786   1.991  16.420  0.0416 -0.4292  0.0762
14166TIP3   OH263912   1.726   3.915  13.856 -0.5022  0.0433  0.2314
14166TIP3    H163913   1.648   3.865  13.831  0.4260 -1.1362 -0.3346
14166TIP3    H263914   1.791   3.893  13.790  0.4235  0.7760  0.8821
14167TIP3   OH263915   0.756   0.762   4.932  0.1307 -0.3668 -0.3268
14167TIP3    H163916   0.709   0.798   5.007 -0.2007  1.6090 -1.4634
14167TIP3    H263917   0.846   0.751   4.963 -0.3745 -1.1838  0.8761
14168TIP3   OH263918   2.613   4.061   5.437 -0.1802 -0.0223 -0.5672
14168TIP3    H163919   2.644   4.107   5.515 -0.6615  1.1067 -1.0369
14168TIP3    H263920   2.692   4.022   5.399  0.0630 -0.5475  0.4586
14169TIP3   OH263921   6.577   6.608   0.096 -0.5367  0.3851 -0.5018
14169TIP3    H163922   6.607   6.690   0.134  0.8643 -1.1566  1.8750
14169TIP3    H263923   6.502   6.582   0.149 -0.3017 -0.3965 -0.5390
14170TIP3   OH263924   1.412   4.792   3.520  0.5739 -0.2478  0.1850
14170TIP3    H163925   1.413   4.733   3.595 -0.6109  0.7804  1.0154
14170TIP3    H263926   1.375   4.739   3.449 -1.6084 -0.1773  1.2254
14171TIP3   OH263927   4.323   1.697   1.919  0.3707  0.4427 -0.1696
14171TIP3    H163928   4.392   1.681   1.855  1.8313  0.3537  1.3878
14171TIP3    H263929   4.256   1.744   1.870  1.5131  0.4940 -1.7379
14172TIP3   OH263930   3.789   6.148  10.994 -0.3187 -0.9328  0.5015
14172TIP3    H163931   3.808   6.229  10.946 -1.6817 -1.0097 -0.1973
14172TIP3    H263932   3.858   6.087  10.966  0.2633 -0.2516  0.4457
14173TIP3   OH263933   0.048   3.370   2.527  0.6551 -0.9599 -0.2015
14173TIP3    H163934  -0.012   3.399   2.459  1.0959 -1.1201 -0.6602
14173TIP3    H263935  -0.008   3.359   2.605  0.1981 -0.5348 -0.4646
14174TIP3   OH263936   5.011   5.580   3.140  0.2668  0.1558 -0.2141
14174TIP3    H163937   5.096   5.609   3.175  0.1331  1.7055 -1.1343
14174TIP3    H263938   4.956   5.658   3.144 -1.2443 -0.9329  0.6843
14175TIP3   OH263939   2.291   1.403   5.155 -0.3585  0.2027  0.3061
14175TIP3    H163940   2.287   1.311   5.131  1.4953  0.7396 -2.2490
14175TIP3    H263941   2.221   1.445   5.105  0.1011  0.4796 -0.1165
14176TIP3   OH263942   5.927   4.853  12.351  1.1233  0.1533  0.0401
14176TIP3    H163943   6.007   4.877  12.304  1.8263  0.1776  1.2143
14176TIP3    H263944   5.921   4.758  12.341  1.7602  0.0440  0.6442
14177TIP3   OH263945   0.278   1.681   4.799 -0.0723 -0.3977 -0.0381
14177TIP3    H163946   0.230   1.758   4.829 -0.0194 -0.2160 -0.4085
14177TIP3    H263947   0.234   1.607   4.840 -0.3604 -0.1958  0.0179
14178TIP3   OH263948   5.848   3.887  10.951  0.2956 -0.2204  0.4177
14178TIP3    H163949   5.851   3.849  11.039  1.1414 -2.3821 -0.5217
14178TIP3    H263950   5.835   3.812  10.893 -0.5161  1.2193 -1.3020
14179TIP3   OH263951   5.470   2.647   2.916 -0.3878 -0.0465  0.4641
14179TIP3    H163952   5.419   2.729   2.919  1.5328  1.1803  0.4992
14179TIP3    H263953   5.545   2.668   2.861 -0.3606 -2.1081 -0.3061
14180TIP3   OH263954   1.603   6.266  13.495  0.0180  0.1869  0.0763
14180TIP3    H163955   1.598   6.320  13.416 -1.7704  0.2850  0.2210
14180TIP3    H263956   1.518   6.221  13.498  1.2226 -2.1463  0.3062
14181TIP3   OH263957   3.924   5.581   4.558 -0.2569 -0.5341  0.2862
14181TIP3    H163958   3.986   5.535   4.502 -0.5633 -0.4544 -0.1248
14181TIP3    H263959   3.959   5.670   4.564  0.7260 -0.9892  1.6721
14182TIP3   OH263960   4.424   3.049   3.972  0.1039  0.1598 -0.1833
14182TIP3    H163961   4.363   3.003   4.030  0.1336  0.7602  0.3350
14182TIP3    H263962   4.432   3.137   4.011  3.2003 -0.6662  1.2063
14183TIP3   OH263963   0.408   5.589   0.109 -0.1859  0.1114 -0.0655
14183TIP3    H163964   0.433   5.681   0.115  0.4946 -0.0424 -0.4489
14183TIP3    H263965   0.321   5.590   0.067  0.9738  0.4664 -2.5694
14184TIP3   OH263966   1.978   2.606   6.444  0.4588 -0.1188  0.1495
14184TIP3    H163967   1.941   2.525   6.408 -0.6140  1.8969 -3.4999
14184TIP3    H263968   1.907   2.645   6.494 -0.2473  0.4013 -1.2312
14185TIP3   OH263969   4.513   0.850   0.268  0.2144 -0.6937  0.5629
14185TIP3    H163970   4.527   0.924   0.326 -1.5104  0.5940 -0.5878
14185TIP3    H263971   4.419   0.832   0.274  0.3894 -1.9633 -0.1373
14186TIP3   OH263972   5.505   6.345   2.681 -0.1275 -0.0292  0.6403
14186TIP3    H163973   5.468   6.347   2.769 -1.0880 -2.9113  0.3637
14186TIP3    H263974   5.429   6.327   2.624  0.8325 -0.5734 -0.4916
14187TIP3   OH263975   6.669   1.615   3.916 -0.3150 -0.5599  0.0171
14187TIP3    H163976   6.750   1.592   3.870 -0.0594 -0.0870  0.2337
14187TIP3    H263977   6.652   1.706   3.892  0.2852 -0.0208  1.5207
14188TIP3   OH263978   4.961   6.618   3.701 -0.2674  0.4005  0.4027
14188TIP3    H163979   5.017   6.549   3.666  2.6977  2.5251  0.7751
14188TIP3    H263980   4.960   6.603   3.796  1.9051  1.8936  0.6947
14189TIP3   OH263981   1.092   2.112  12.408 -0.2367  0.5475 -0.1955
14189TIP3    H163982   1.150   2.043  12.379  1.7486  2.5192 -1.0641
14189TIP3    H263983   1.020   2.067  12.452  1.4905 -1.9758  0.0976
14190TIP3   OH263984   6.303   6.171   1.791  0.2071 -0.0928 -0.7837
14190TIP3    H163985   6.229   6.167   1.731 -1.3343 -1.1887  1.1338
14190TIP3    H263986   6.375   6.130   1.742 -0.5385  0.5958 -2.5035
14191TIP3   OH263987   0.010   6.031  14.784  0.4216  0.4606 -0.4764
14191TIP3    H163988   0.010   6.033  14.688  1.2968  0.4560 -0.4817
14191TIP3    H263989   0.044   5.944  14.806 -0.4824  0.1871 -0.1665
14192TIP3   OH263990   5.977   1.925   0.432 -0.4213  0.3186  0.8590
14192TIP3    H163991   5.984   2.009   0.386 -0.7638  0.0872  0.3763
14192TIP3    H263992   6.067   1.893   0.437 -0.5720 -0.5305 -1.3153
14193TIP3   OH263993   1.122   0.845  13.852 -0.5147  0.1338  0.1393
14193TIP3    H163994   1.033   0.873  13.875 -0.6380  0.0406 -0.2250
14193TIP3    H263995   1.167   0.926  13.829 -0.2195  0.3015  1.2705
14194TIP3   OH263996   0.777   4.497  12.845 -0.0569 -0.1947  0.0928
14194TIP3    H163997   0.814   4.545  12.919 -1.8370 -0.3403  1.1326
14194TIP3    H263998   0.704   4.552  12.816  0.6183 -0.1513 -1.5614
14195TIP3   OH263999   1.481   2.712  11.456 -0.1929  0.1444 -0.6554
14195TIP3    H164000   1.494   2.713  11.361 -0.2675  0.9692 -0.6674
14195TIP3    H264001   1.401   2.763  11.469  0.8009  1.5748 -0.0206
14196TIP3   OH264002   1.937   1.048   2.662 -0.1743 -0.2670  0.5434
14196TIP3    H164003   1.853   1.079   2.627 -0.8641  0.3227  2.6397
14196TIP3    H264004   1.995   1.123   2.655  0.0935 -0.5731 -0.6013
14197TIP3   OH264005   2.561   3.461  13.528  0.0203  0.4771 -0.0647
14197TIP3    H164006   2.601   3.408  13.459 -0.9111 -0.8268  0.3649
14197TIP3    H264007   2.581   3.551  13.504  1.1833 -0.0410 -1.1039
14198TIP3   OH264008   4.486   3.127  13.686  0.6745 -0.1238  0.0910
14198TIP3    H164009   4.496   3.087  13.599 -0.0882 -1.1630  0.4732
14198TIP3    H264010   4.397   3.105  13.712  0.1609  2.0139  0.2330
14199TIP3   OH264011   1.746   2.587  14.020  0.0619 -0.1639 -0.7644
14199TIP3    H164012   1.789   2.671  14.039  0.8941 -0.5779 -0.8431
14199TIP3    H264013   1.749   2.540  14.103 -1.2716  0.2649 -0.4600
14200TIP3   OH264014   1.592   2.940   1.393 -0.1398 -0.4348  0.3329
14200TIP3    H164015   1.617   2.848   1.402 -0.5626 -0.6206 -0.3757
14200TIP3    H264016   1.674   2.988   1.400  0.3520 -0.9953 -1.2588
14201TIP3   OH264017   3.812   4.657   0.672  0.1661 -0.5253 -0.4466
14201TIP3    H164018   3.860   4.625   0.595  1.9988  0.7163  0.1414
14201TIP3    H264019   3.868   4.636   0.746  0.3835  1.9713  0.1629
14202TIP3   OH264020   3.311   3.974  15.218 -0.5118  0.6805 -0.0534
14202TIP3    H164021   3.239   3.981  15.156 -1.4257  1.1439  1.0512
14202TIP3    H264022   3.342   4.064  15.228  1.5382  0.2647 -2.0233
14203TIP3   OH264023   4.212   1.660  13.061 -0.2947 -0.1244 -0.0827
14203TIP3    H164024   4.255   1.646  12.976 -0.3323  1.4359 -0.3798
14203TIP3    H264025   4.274   1.714  13.110 -0.5622 -0.4858  0.6542
14204TIP3   OH264026   3.933   1.235   1.245 -0.0922  0.2990  0.7842
14204TIP3    H164027   3.931   1.140   1.257  1.1899 -0.1412 -2.1774
14204TIP3    H264028   3.866   1.253   1.179  0.3080  1.3471  0.6485
14205TIP3   OH264029   2.945   0.187  12.193 -0.1370  0.0006 -0.0197
14205TIP3    H164030   2.895   0.248  12.247 -4.0195 -1.5022 -1.7243
14205TIP3    H264031   2.907   0.196  12.106  1.1742 -2.7346 -0.9147
14206TIP3   OH264032   1.407   2.416  12.276  0.3400 -0.6952 -0.1891
14206TIP3    H164033   1.321   2.388  12.245  0.2017 -2.1345  1.4335
14206TIP3    H264034   1.469   2.368  12.221  0.1870  1.9047 -2.7811
14207TIP3   OH264035   1.578   2.729   2.421 -0.7159  0.0808  0.5874
14207TIP3    H164036   1.672   2.744   2.436 -0.8468  0.1074  1.3944
14207TIP3    H264037   1.540   2.816   2.419 -0.4430  0.1817 -1.7205
14208TIP3   OH264038   6.323   1.222  11.674  0.0349  0.5285 -0.0080
14208TIP3    H164039   6.397   1.168  11.647  0.0810  0.3471  0.4685
14208TIP3    H264040   6.257   1.159  11.702 -0.6616  0.6567 -1.3220
14209TIP3   OH264041   1.403   3.066  13.018  0.0906 -0.5202  0.4133
14209TIP3    H164042   1.415   3.038  12.927 -1.7719 -0.7448  0.2105
14209TIP3    H264043   1.325   3.019  13.047 -0.5365  1.1426  1.4802
14210TIP3   OH264044   3.998   4.451   6.067  0.6514 -0.3010 -0.0480
14210TIP3    H164045   4.027   4.438   5.976 -0.2424 -1.1843 -0.2166
14210TIP3    H264046   4.001   4.363   6.105  1.1869  0.0983  0.8302
14211TIP3   OH264047   5.228   5.414   4.701  0.1142 -0.5106 -0.7253
14211TIP3    H164048   5.289   5.429   4.629  1.9669  0.5097  1.0103
14211TIP3    H264049   5.238   5.321   4.722 -0.6410 -0.8766 -1.9501
14212TIP3   OH264050   4.894   0.840   1.386  0.2251  0.2571  0.7746
14212TIP3    H164051   4.800   0.849   1.397  0.1254  0.7935 -0.3947
14212TIP3    H264052   4.909   0.860   1.293  1.5550  0.7258  1.0794
14213TIP3   OH264053   0.203   4.972   6.295  0.5990 -0.3023 -0.0914
14213TIP3    H164054   0.250   4.893   6.267 -0.2342 -0.4461 -1.1363
14213TIP3    H264055   0.129   4.978   6.234  0.9716  1.5985 -0.3689
14214TIP3   OH264056   5.742   5.096  14.646  0.0416 -0.3285 -0.3299
14214TIP3    H164057   5.726   5.172  14.591  2.2038  0.4075  0.0169
14214TIP3    H264058   5.798   5.039  14.593  0.6693 -0.4313  0.4393
14215TIP3   OH264059   1.723   6.450  11.455 -0.6900  0.1367  0.8349
14215TIP3    H164060   1.792   6.408  11.404 -1.3831 -0.1121  0.1013
14215TIP3    H264061   1.695   6.382  11.517 -1.7722 -0.4726 -0.3153
14216TIP3   OH264062   5.514   1.749   6.355  0.9864  0.1644  0.0016
14216TIP3    H164063   5.593   1.799   6.378  0.3029  0.7101  1.2487
14216TIP3    H264064   5.481   1.718   6.439  0.0400 -0.3105 -0.5470
14217TIP3   OH264065   3.534   1.860  16.924  0.1411  0.1095 -0.1174
14217TIP3    H164066   3.465   1.874  16.990  0.4781 -1.2810  0.5452
14217TIP3    H264067   3.494   1.889  16.842 -0.9623  0.0496  0.3821
14218TIP3   OH264068   3.017   1.823   0.474  0.1157 -0.3725  0.0118
14218TIP3    H164069   3.108   1.793   0.468 -0.0622 -1.0395  0.5497
14218TIP3    H264070   3.023   1.909   0.515  0.6652  0.5328 -1.9319
14219TIP3   OH264071   6.424   3.535   1.348 -0.5854  0.0466  0.1159
14219TIP3    H164072   6.383   3.603   1.401 -0.0254  1.4433 -1.2455
14219TIP3    H264073   6.508   3.518   1.392 -0.8190  0.0777  0.5744
14220TIP3   OH264074   1.524   3.074   1.618  0.1654 -0.2230  0.4717
14220TIP3    H164075   1.576   3.052   1.696 -0.5682  0.2429  1.1021
14220TIP3    H264076   1.553   3.012   1.551  0.1919 -1.2026  1.3723
14221TIP3   OH264077   2.768   0.126   4.503 -0.1160 -0.7678  0.0425
14221TIP3    H164078   2.861   0.111   4.521  0.0760 -1.4467 -1.4900
14221TIP3    H264079   2.767   0.196   4.438 -0.7060 -0.3669  0.4769
14222TIP3   OH264080   6.578   0.237   3.158  0.0748 -0.3641 -0.3253
14222TIP3    H164081   6.507   0.250   3.094  0.3190  0.5702 -0.4189
14222TIP3    H264082   6.555   0.296   3.230  1.4161  0.8907 -0.9073
14223TIP3   OH264083   3.012   0.238   2.403 -0.2423  0.1580 -0.1905
14223TIP3    H164084   2.998   0.320   2.356 -0.4119 -0.4152 -1.1418
14223TIP3    H264085   3.105   0.238   2.425  0.1817 -0.3008 -1.9108
14224TIP3   OH264086   4.639   3.981   0.682 -0.0976  0.0415 -0.3481
14224TIP3    H164087   4.613   4.071   0.662 -1.2765 -0.8146 -2.8901
14224TIP3    H264088   4.558   3.936   0.703  0.2896 -0.7863 -0.5919
14225TIP3   OH264089   4.713   0.220   4.603 -0.9360 -0.2021  0.1766
14225TIP3    H164090   4.649   0.167   4.557 -0.9947  0.2328 -0.2438
14225TIP3    H264091   4.797   0.193   4.567 -0.9082 -0.5022  0.4594
14226TIP3   OH264092   3.472   5.515  13.533  0.0903 -0.2995  0.7043
14226TIP3    H164093   3.518   5.446  13.579 -0.1560 -0.2268  1.0568
14226TIP3    H264094   3.541   5.577  13.508  0.3747 -0.9034 -0.0300
14227TIP3   OH264095   0.991   1.507  16.627  0.0064 -0.3065 -0.8162
14227TIP3    H164096   1.025   1.418  16.638 -1.3469 -0.5677  1.8041
14227TIP3    H264097   0.995   1.523  16.533 -1.6216 -3.9087 -1.5855
14228TIP3   OH264098   0.099   5.907   3.471 -0.1983  0.1810 -0.2444
14228TIP3    H164099   0.036   5.979   3.480 -0.8987 -0.2807 -1.3571
14228TIP3    H264100   0.149   5.929   3.392  1.2384  0.6796  0.7780
14229TIP3   OH264101   4.909   4.663  12.015 -0.3360 -0.1623  0.3457
14229TIP3    H164102   4.929   4.757  12.013  2.7410 -0.7513  0.5167
14229TIP3    H264103   4.932   4.635  12.104  0.6664 -1.4487 -0.3028
14230TIP3   OH264104   4.285   0.588   3.772 -0.6236 -0.3417  0.1116
14230TIP3    H164105   4.229   0.637   3.833 -0.2434  0.3639 -0.1027
14230TIP3    H264106   4.319   0.515   3.825  0.4033  0.7609  1.0064
14231TIP3   OH264107   6.181   4.776  15.825  0.6791  0.0217  0.4909
14231TIP3    H164108   6.126   4.852  15.805 -0.4416 -0.2173  2.5376
14231TIP3    H264109   6.253   4.811  15.878  0.0555 -0.3495  1.6044
14232TIP3   OH264110   3.766   1.710   1.294 -0.3832  0.5336 -0.2338
14232TIP3    H164111   3.756   1.711   1.198  1.7954  2.7843 -0.4828
14232TIP3    H264112   3.852   1.672   1.309 -1.2163 -0.9407  0.9155
14233TIP3   OH264113   2.538   4.350  16.788 -0.6862  0.2708 -0.0299
14233TIP3    H164114   2.599   4.424  16.790  0.3879 -0.6088  1.0436
14233TIP3    H264115   2.482   4.366  16.713  1.0461  0.9819 -1.2004
14234TIP3   OH264116   6.656   3.948   5.637  0.2771 -0.2149  0.0989
14234TIP3    H164117   6.616   3.869   5.673  1.1468 -0.2912  0.9252
14234TIP3    H264118   6.749   3.940   5.659  0.3438  1.1148  0.3458
14235TIP3   OH264119   0.619   6.460   5.391  0.0627 -0.5752  0.1068
14235TIP3    H164120   0.528   6.474   5.362  0.5604  1.7859 -0.3974
14235TIP3    H264121   0.628   6.517   5.468  1.6563  0.6220 -0.9487
14236TIP3   OH264122   0.438   4.016  15.903 -0.4186  0.0293 -0.5584
14236TIP3    H164123   0.487   4.030  15.984 -2.3394 -0.8046  0.7894
14236TIP3    H264124   0.500   3.974  15.845  0.7868 -0.0344  0.7396
14237TIP3   OH264125   0.842   4.431  16.723 -0.6007  0.7577 -0.0353
14237TIP3    H164126   0.873   4.482  16.649  2.3526 -1.2705 -0.2973
14237TIP3    H264127   0.826   4.495  16.792 -2.5545  2.5823 -2.1168
14238TIP3   OH264128   4.808   5.390  15.331 -0.0197  0.6673  0.1010
14238TIP3    H164129   4.727   5.356  15.295  0.1384 -0.0333  0.4061
14238TIP3    H264130   4.872   5.380  15.260  0.1800 -0.2690  0.4143
14239TIP3   OH264131   3.172   3.584  11.713 -0.1201  0.3093 -0.8006
14239TIP3    H164132   3.126   3.656  11.758  0.6235 -0.7780  1.8177
14239TIP3    H264133   3.124   3.573  11.631 -1.4413  2.4987 -0.3828
14240TIP3   OH264134   6.021   0.008   0.012 -0.1859  0.3285  0.0902
14240TIP3    H164135   5.932   0.018  -0.023 -1.1414 -0.0332  2.2623
14240TIP3    H264136   6.060  -0.062  -0.039 -0.6392  1.4716 -1.8540
14241TIP3   OH264137   3.310   0.866  11.323 -0.0165 -0.2050  0.8645
14241TIP3    H164138   3.302   0.954  11.361  2.9121  0.4551  0.0675
14241TIP3    H264139   3.236   0.860  11.263  0.0146  1.9381  0.5507
14242TIP3   OH264140   4.227   4.457  14.053  0.0755  0.7510  0.3669
14242TIP3    H164141   4.199   4.371  14.084  1.2947 -0.2178 -1.1535
14242TIP3    H264142   4.293   4.486  14.116 -0.0127  0.3767  0.6306
14243TIP3   OH264143   0.391   3.794   2.031 -0.1773 -0.5978  0.3956
14243TIP3    H164144   0.381   3.701   2.010 -0.7475 -0.1849 -1.2446
14243TIP3    H264145   0.339   3.840   1.964  0.6634  0.9238  0.7524
14244TIP3   OH264146   3.397   5.151   4.897 -0.1615  0.2640 -0.1691
14244TIP3    H164147   3.435   5.159   4.809  2.1616  0.6758  0.8316
14244TIP3    H264148   3.338   5.076   4.891  1.8977 -1.3155 -1.4543
14245TIP3   OH264149   4.949   2.574   2.742  0.6598 -0.8839 -0.6105
14245TIP3    H164150   5.018   2.637   2.723  1.5632 -1.4887  0.5799
14245TIP3    H264151   4.996   2.492   2.758 -0.1801 -0.8816  2.0552
14246TIP3   OH264152   5.238   1.774   1.373 -0.1608 -0.3800 -0.7366
14246TIP3    H164153   5.164   1.835   1.383 -0.2645 -0.6461  0.2302
14246TIP3    H264154   5.239   1.753   1.280 -1.0690 -0.0758 -0.8278
14247TIP3   OH264155   5.300   1.561   4.056  0.7485  0.0842  0.0791
14247TIP3    H164156   5.368   1.628   4.054  0.7514  0.0892  0.4238
14247TIP3    H264157   5.305   1.520   3.969  0.4230  0.8557 -0.3130
14248TIP3   OH264158   2.942   6.360  14.972  0.7606 -0.2462 -0.2135
14248TIP3    H164159   2.939   6.422  15.045 -1.6064  2.7837 -2.7052
14248TIP3    H264160   3.034   6.356  14.947  1.0567  1.7324  0.4674
14249TIP3   OH264161   1.194   0.344  16.657 -0.3804 -0.0530 -0.2620
14249TIP3    H164162   1.128   0.275  16.652  0.3081 -0.7998  0.7727
14249TIP3    H264163   1.233   0.346  16.569 -2.8211  1.4882 -1.3735
14250TIP3   OH264164   6.671   1.621   1.940  0.0733 -0.7608 -0.1866
14250TIP3    H164165   6.636   1.599   2.026  2.0815 -1.2635  0.5502
14250TIP3    H264166   6.735   1.691   1.958 -0.3801 -0.0107 -1.4360
14251TIP3   OH264167   4.917   6.445   4.320  0.5017  0.0948 -0.5010
14251TIP3    H164168   4.958   6.408   4.398  1.5067  1.9746 -0.0990
14251TIP3    H264169   4.966   6.526   4.303 -0.0723  0.0194 -2.7482
14252TIP3   OH264170   3.867   1.487  13.546 -0.0173  0.2451 -0.4040
14252TIP3    H164171   3.948   1.471  13.595 -2.0192 -1.3697  2.5133
14252TIP3    H264172   3.868   1.582  13.530  1.9626  0.4050  0.4942
14253TIP3   OH264173   5.833   1.178  11.423  0.5042  0.0436 -0.2665
14253TIP3    H164174   5.920   1.209  11.448  0.2784  0.2004  0.3319
14253TIP3    H264175   5.846   1.138  11.337  0.9787  0.9266 -0.6128
14254TIP3   OH264176   1.807   6.282   4.080  0.3340  0.0652 -0.0218
14254TIP3    H164177   1.873   6.330   4.029 -0.8166  1.2637 -0.4312
14254TIP3    H264178   1.856   6.239   4.149  1.7005 -0.0620 -1.0559
14255TIP3   OH264179   0.602   0.180  16.951 -0.4995  0.0168 -0.0593
14255TIP3    H164180   0.676   0.122  16.973 -0.2143  0.6714  0.7205
14255TIP3    H264181   0.525   0.125  16.964 -0.1469 -0.7297 -1.0550
14256TIP3   OH264182   5.768   1.156  16.930  0.0523  0.1861 -0.2589
14256TIP3    H164183   5.703   1.124  16.867 -0.0692  1.6917 -0.9242
14256TIP3    H264184   5.852   1.131  16.893 -0.0193  1.0289 -1.0355
14257TIP3   OH264185   1.186   2.185  14.639 -0.0222 -0.5465  0.2119
14257TIP3    H164186   1.218   2.134  14.713  0.9501  1.2699  1.1019
14257TIP3    H264187   1.259   2.185  14.576  0.6136  1.0264  0.9085
14258TIP3   OH264188   4.695   5.742   4.238  0.2732  0.4137 -0.1163
14258TIP3    H164189   4.763   5.796   4.278 -0.0383  1.2297 -0.6739
14258TIP3    H264190   4.612   5.780   4.268  0.0460 -0.7702  0.8214
14259TIP3   OH264191   6.629   1.718  13.052  0.1906 -0.0494  0.1464
14259TIP3    H164192   6.624   1.805  13.091 -1.4476 -0.0603  0.0003
14259TIP3    H264193   6.659   1.661  13.123  0.9428  0.5655  0.3318
14260TIP3   OH264194   6.442   5.544  13.461 -0.2063  0.4412 -0.7571
14260TIP3    H164195   6.459   5.605  13.533  0.6635  0.8563 -1.3068
14260TIP3    H264196   6.346   5.539  13.456 -0.2731  0.7394  0.1517
14261TIP3   OH264197   5.407   2.371  16.820 -0.4526  0.2277 -0.3872
14261TIP3    H164198   5.399   2.279  16.844 -0.5515  0.3811  0.1567
14261TIP3    H264199   5.418   2.418  16.903  2.4362  0.4191 -0.8005
14262TIP3   OH264200   4.679   0.579   5.493 -0.3074  0.5842  0.1097
14262TIP3    H164201   4.648   0.659   5.536 -0.0938  0.6443  0.1509
14262TIP3    H264202   4.762   0.604   5.454  1.0395 -0.3239  2.3118
14263TIP3   OH264203   0.123   3.517  15.049  0.2309  0.3147 -0.3421
14263TIP3    H164204   0.148   3.443  15.103  0.4621  0.0148 -0.8548
14263TIP3    H264205   0.128   3.593  15.107 -1.7894 -0.2958  0.6837
14264TIP3   OH264206   1.596   3.988  15.983 -0.6936 -0.0121  0.2461
14264TIP3    H164207   1.521   4.013  16.037  0.2655  1.6257  0.8696
14264TIP3    H264208   1.660   3.953  16.045 -0.5159 -0.3834 -0.1408
14265TIP3   OH264209   4.394   4.568  15.162  0.2893 -0.7976  0.5011
14265TIP3    H164210   4.433   4.649  15.128  0.4305 -0.8277  0.5906
14265TIP3    H264211   4.300   4.586  15.162  0.1230 -1.5201 -1.7446
14266TIP3   OH264212   0.066   5.728  13.527 -0.1207  0.5802  0.0446
14266TIP3    H164213   0.068   5.637  13.495 -1.8587  0.2280  0.8646
14266TIP3    H264214   0.101   5.779  13.454  0.3575 -0.6898 -0.6496
14267TIP3   OH264215   2.466   0.433  16.031 -0.8107  0.0376  0.4015
14267TIP3    H164216   2.518   0.502  15.991 -0.2358 -0.3388  0.5004
14267TIP3    H264217   2.495   0.429  16.122 -1.3400  0.1387  0.5824
14268TIP3   OH264218   5.078   6.238   4.158  0.7170  0.5498 -0.0730
14268TIP3    H164219   5.020   6.311   4.181  1.9132  1.1903  0.9747
14268TIP3    H264220   5.040   6.201   4.079 -0.7487  1.3791  0.2216
14269TIP3   OH264221   0.060   4.337  14.150  0.0389  0.5944 -0.1413
14269TIP3    H164222   0.109   4.377  14.077  1.0866  1.5008  1.0402
14269TIP3    H264223   0.127   4.295  14.204 -0.7353 -0.0741  0.3053
14270TIP3   OH264224   0.191   2.996   1.532  0.1412 -0.2907 -0.3547
14270TIP3    H164225   0.156   3.060   1.471  0.5485  0.7607  0.4818
14270TIP3    H264226   0.270   2.962   1.489  0.7195  0.8231 -0.2088
14271TIP3   OH264227   1.151   4.120  14.484  0.5710  0.4675  0.3414
14271TIP3    H164228   1.119   4.202  14.521  0.0800 -0.0086  0.9877
14271TIP3    H264229   1.183   4.070  14.559  0.5617 -0.0710 -0.0035
14272TIP3   OH264230   1.527   1.561   3.068 -0.1599  0.2572  0.2602
14272TIP3    H164231   1.524   1.641   3.015  0.3551  0.3132  0.3171
14272TIP3    H264232   1.475   1.582   3.145  0.2917  0.6727  0.4591
14273TIP3   OH264233   1.306   5.469  17.076  0.0488  0.2028 -0.0829
14273TIP3    H164234   1.320   5.424  17.159 -0.9669  0.8745  0.4640
14273TIP3    H264235   1.347   5.555  17.087 -2.0995  1.1823  0.5879
14274TIP3   OH264236   6.063   3.755  11.894  0.0944  0.0202  0.5145
14274TIP3    H164237   6.023   3.817  11.954 -0.4835 -1.7968  2.0528
14274TIP3    H264238   6.128   3.807  11.846  1.1258  1.3719  3.2343
14275TIP3   OH264239   5.712   5.481  11.809  0.1389 -0.9781  0.2647
14275TIP3    H164240   5.698   5.412  11.744 -2.9858 -0.7567  0.5905
14275TIP3    H264241   5.734   5.435  11.890  0.5831 -1.4608 -0.1357
14276TIP3   OH264242   6.472   3.726  14.713 -0.8702  0.1621 -0.1253
14276TIP3    H164243   6.512   3.639  14.707 -0.2184  0.5099 -1.0015
14276TIP3    H264244   6.433   3.740  14.626 -0.5521  0.9330 -0.1505
14277TIP3   OH264245   2.475   5.436   5.810 -0.9875 -0.2620  0.2669
14277TIP3    H164246   2.508   5.502   5.871 -0.6039  0.0151 -0.2342
14277TIP3    H264247   2.533   5.361   5.822 -0.2399  0.1762 -0.5153
14278TIP3   OH264248   1.350   0.927  16.467  0.3328 -0.3821 -0.2755
14278TIP3    H164249   1.277   0.989  16.461  0.8190  0.2863  0.6213
14278TIP3    H264250   1.369   0.903  16.376  1.7219  2.6470 -0.8175
14279TIP3   OH264251   2.126   6.625  10.718  0.0767 -0.0277  0.3453
14279TIP3    H164252   2.046   6.679  10.715 -1.1394 -1.8675 -0.9903
14279TIP3    H264253   2.156   6.621  10.628  0.9578 -0.4444  0.6546
14280TIP3   OH264254   2.796   6.291   3.727  0.2260 -0.3456 -0.4499
14280TIP3    H164255   2.861   6.353   3.758  1.5875 -2.1705  0.4075
14280TIP3    H264256   2.756   6.335   3.651  0.7348  1.7996  0.4829
14281TIP3   OH264257   0.865   4.988   3.734  0.1817  0.1298  0.0565
14281TIP3    H164258   0.788   5.033   3.769 -1.5249 -2.0257 -0.8377
14281TIP3    H264259   0.897   4.935   3.806 -1.7599 -2.2626 -0.7694
14282TIP3   OH264260   5.910   3.288   3.417 -0.4969 -0.1906 -0.2865
14282TIP3    H164261   5.952   3.208   3.385  4.0046  2.5872 -1.6107
14282TIP3    H264262   5.830   3.295   3.365 -0.4977 -3.2800 -0.8052
14283TIP3   OH264263   6.163   5.317   5.558 -0.0895  0.4397  0.0920
14283TIP3    H164264   6.096   5.377   5.525 -0.6924  0.5967  1.5660
14283TIP3    H264265   6.191   5.268   5.481  0.5933  2.7559 -1.2117
14284TIP3   OH264266   2.103   1.779   3.078  0.2454 -0.5808  0.8653
14284TIP3    H164267   2.123   1.687   3.092 -1.6869 -1.1516  0.0229
14284TIP3    H264268   2.029   1.779   3.017 -0.1629  1.5043  1.3141
14285TIP3   OH264269   5.499   1.358   0.089 -0.2039  0.2215 -0.4266
14285TIP3    H164270   5.533   1.288   0.032  0.7603 -2.7288  3.5916
14285TIP3    H264271   5.551   1.435   0.066  1.2967 -1.3088 -2.3576
14286TIP3   OH264272   5.710   4.385   4.423  0.3633 -0.0324  0.2941
14286TIP3    H164273   5.727   4.335   4.503 -1.4168 -1.1762 -0.0264
14286TIP3    H264274   5.747   4.332   4.353 -1.1824 -0.7505 -0.0035
14287TIP3   OH264275   3.295   0.868  14.472 -0.1951  0.2888 -0.4804
14287TIP3    H164276   3.295   0.870  14.376  0.7149 -0.9339 -0.5119
14287TIP3    H264277   3.206   0.841  14.495 -0.4840  0.8099 -0.9691
14288TIP3   OH264278   4.651   1.273   0.665 -0.5436 -0.0074 -0.5382
14288TIP3    H164279   4.657   1.358   0.621  1.9237  0.4593  0.6179
14288TIP3    H264280   4.594   1.289   0.740  1.2944  1.1114  0.6636
14289TIP3   OH264281   4.042   4.517   1.002 -0.3338 -0.1100 -0.0644
14289TIP3    H164282   4.094   4.457   0.950  1.5269  2.2714 -1.0469
14289TIP3    H264283   3.951   4.498   0.977  0.4195 -0.2011 -2.8750
14290TIP3   OH264284   0.658   1.195   1.644  0.2370 -0.0854  0.3841
14290TIP3    H164285   0.577   1.213   1.692  0.6122  0.3185  0.8687
14290TIP3    H264286   0.633   1.203   1.551 -0.1551  0.5716  0.5414
14291TIP3   OH264287   6.783   3.446   5.205 -0.0349 -0.0121 -0.7851
14291TIP3    H164288   6.852   3.444   5.138  0.9111 -2.3014  0.2111
14291TIP3    H264289   6.702   3.430   5.156  0.3757  0.5885 -1.6823
14292TIP3   OH264290   5.723   4.447  11.841 -0.7288  0.5202 -0.3306
14292TIP3    H164291   5.726   4.413  11.752 -0.3838 -1.6762  0.5004
14292TIP3    H264292   5.784   4.521  11.840  2.0962 -1.7301 -1.0126
14293TIP3   OH264293   4.683   4.931   0.134 -0.4670 -0.5171  0.2313
14293TIP3    H164294   4.777   4.931   0.155 -0.0973  0.5533 -1.3015
14293TIP3    H264295   4.639   4.925   0.218  0.9918 -1.2327  0.9563
14294TIP3   OH264296   1.289   4.114   1.246  0.0097  0.3234  0.6263
14294TIP3    H164297   1.329   4.049   1.304  0.1478  1.0431  1.3454
14294TIP3    H264298   1.299   4.197   1.292 -0.6865  0.7749 -0.0223
14295TIP3   OH264299   0.447   2.377  13.513  0.0084  0.5931  0.0381
14295TIP3    H164300   0.479   2.319  13.582  0.8481  0.9274 -0.0694
14295TIP3    H264301   0.483   2.341  13.433  0.8804  1.5033  0.0144
14296TIP3   OH264302   1.467   6.382   5.442 -0.0565 -0.2414  0.6571
14296TIP3    H164303   1.550   6.339   5.464 -0.6004 -1.4614  0.3402
14296TIP3    H264304   1.434   6.414   5.526 -0.5830 -2.1175  1.1887
14297TIP3   OH264305   2.457   5.680  16.933  0.5235  0.0289 -0.7546
14297TIP3    H164306   2.529   5.675  16.996  0.8206  1.9567 -0.8973
14297TIP3    H264307   2.393   5.739  16.974  0.0179  0.0442 -1.5582
14298TIP3   OH264308   0.292   1.237   2.279  0.5232  0.1052 -0.6022
14298TIP3    H164309   0.337   1.274   2.203 -1.0750 -0.5787 -1.8967
14298TIP3    H264310   0.202   1.225   2.251  0.1130 -1.0422  1.1055
14299TIP3   OH264311   5.483   4.794  16.991  0.3483 -0.0845 -0.1195
14299TIP3    H164312   5.505   4.708  17.026  1.0840  1.0651  2.3515
14299TIP3    H264313   5.548   4.853  17.029 -1.1522  1.8157 -0.4204
14300TIP3   OH264314   6.568   5.178  13.190 -0.5553 -0.0522 -0.3178
14300TIP3    H164315   6.575   5.144  13.101 -0.3016 -1.6299  0.2845
14300TIP3    H264316   6.597   5.269  13.184 -0.5757 -0.1386 -1.8444
14301TIP3   OH264317   4.688   6.050   3.517  0.6416  0.1008  0.1214
14301TIP3    H164318   4.646   6.053   3.431 -1.3313 -1.4196  1.0092
14301TIP3    H264319   4.780   6.032   3.497 -0.0603 -1.8596 -1.6275
14302TIP3   OH264320   5.098   0.739  15.071 -0.1783  0.1912 -0.4016
14302TIP3    H164321   5.194   0.738  15.069 -0.1626  0.5575  0.0552
14302TIP3    H264322   5.072   0.673  15.007  0.3612  1.0398 -1.5157
14303TIP3   OH264323   3.101   1.043  14.697 -0.4155  0.2141  0.3349
14303TIP3    H164324   3.113   0.960  14.651  1.6774 -0.2238  1.5716
14303TIP3    H264325   3.020   1.032  14.746 -0.0454 -1.1834  0.6417
14304TIP3   OH264326   3.289   0.219   0.442 -0.1983  0.0731  0.3475
14304TIP3    H164327   3.368   0.216   0.495 -0.2546 -0.3410  0.4101
14304TIP3    H264328   3.312   0.173   0.361 -0.9988 -1.8817  1.2035
14305TIP3   OH264329   2.762   5.147   0.845  0.5113  0.3054 -0.6774
14305TIP3    H164330   2.823   5.084   0.883 -0.4274 -0.4786 -0.4635
14305TIP3    H264331   2.740   5.206   0.917 -0.1009 -0.2778 -0.3857
14306TIP3   OH264332   2.540   2.346  17.122  0.3553  0.5276 -0.2617
14306TIP3    H164333   2.475   2.365  17.189  1.7242  0.1922  1.2061
14306TIP3    H264334   2.490   2.340  17.040 -1.6003 -0.9963  1.0110
14307TIP3   OH264335   6.413   0.160   3.857 -0.4979 -0.3012 -0.3420
14307TIP3    H164336   6.375   0.136   3.942 -0.4476  1.6460  0.2655
14307TIP3    H264337   6.364   0.237   3.830 -0.0470 -0.5048 -1.7627
14308TIP3   OH264338   2.986   5.241   4.417 -0.4146  0.1911  0.0736
14308TIP3    H164339   3.014   5.330   4.436 -0.7388  0.4658 -0.7115
14308TIP3    H264340   3.040   5.214   4.343 -1.8289  0.5304 -1.1045
14309TIP3   OH264341   2.172   4.109  14.803  1.3507 -0.7477 -0.0643
14309TIP3    H164342   2.126   4.192  14.788  0.0919 -1.6791 -1.6444
14309TIP3    H264343   2.261   4.134  14.826  0.4480  1.0780  1.5448
14310TIP3   OH264344   1.191   5.420   5.111  0.0292  0.3071  0.1624
14310TIP3    H164345   1.265   5.480   5.101 -1.3066  2.0798  0.6525
14310TIP3    H264346   1.230   5.339   5.145  1.6597  1.4043  0.9484
14311TIP3   OH264347   0.538   4.671   2.372  0.1815  0.4296  0.4053
14311TIP3    H164348   0.524   4.577   2.357  1.4036  0.1175  1.1498
14311TIP3    H264349   0.450   4.705   2.389 -0.3820 -0.4163 -0.7405
14312TIP3   OH264350   5.956   1.616  14.253 -0.1853 -0.0956 -0.1562
14312TIP3    H164351   6.007   1.600  14.333 -1.2073 -0.8234  0.3671
14312TIP3    H264352   5.987   1.550  14.191  1.6667  1.4095 -0.8901
14313TIP3   OH264353   0.950   2.057   1.660 -0.0831 -0.3589  0.0274
14313TIP3    H164354   0.891   2.027   1.590 -0.6524  0.4086  0.1729
14313TIP3    H264355   0.941   2.152   1.660  0.7292 -0.2786  0.4388
14314TIP3   OH264356   0.011   4.279   3.275  0.7413  0.0644  0.3288
14314TIP3    H164357   0.020   4.194   3.316 -1.0111 -0.1001  0.4155
14314TIP3    H264358  -0.055   4.325   3.329  1.2515  1.2523 -0.0383
14315TIP3   OH264359   4.819   3.191   2.785  0.0879  0.4648  0.6189
14315TIP3    H164360   4.732   3.153   2.770  1.4871 -1.6213 -2.6244
14315TIP3    H264361   4.852   3.144   2.862 -0.2095 -1.4258 -0.3694
14316TIP3   OH264362   4.647   2.175  13.266 -0.3985  0.4443  1.0460
14316TIP3    H164363   4.717   2.217  13.316  0.8847  0.9014 -1.0645
14316TIP3    H264364   4.639   2.228  13.187 -2.2002 -0.4242  0.6211
14317TIP3   OH264365   1.266   1.448  12.445 -0.3521 -0.1192  0.0435
14317TIP3    H164366   1.346   1.498  12.427 -0.1006 -0.4475  0.2633
14317TIP3    H264367   1.295   1.358  12.455 -1.1093 -0.7168 -2.7835
14318TIP3   OH264368   5.382   6.682   4.075  0.5709 -0.1434 -0.7512
14318TIP3    H164369   5.391   6.602   4.024 -0.2919 -0.6786 -0.0752
14318TIP3    H264370   5.288   6.691   4.090  0.8925 -0.9731  2.2560
14319TIP3   OH264371   5.765   2.191   1.581  0.0994 -0.2447 -0.3980
14319TIP3    H164372   5.831   2.260   1.572  0.3122 -0.6295 -1.8570
14319TIP3    H264373   5.750   2.160   1.492 -0.7510 -1.3869  0.1304
14320TIP3   OH264374   3.644   5.301  11.838  0.0241  0.0313 -0.3093
14320TIP3    H164375   3.683   5.215  11.825  1.0678  0.4065  0.2793
14320TIP3    H264376   3.550   5.286  11.830  0.1728 -1.2345  0.1590
14321TIP3   OH264377   5.943   0.297   1.815 -0.1676 -0.9509  0.3086
14321TIP3    H164378   6.032   0.270   1.793 -0.7844 -2.9431  0.1450
14321TIP3    H264379   5.929   0.264   1.904 -0.1179  0.9613  1.0422
14322TIP3   OH264380   1.884   2.821  14.120 -0.1678 -0.1357  0.2248
14322TIP3    H164381   1.918   2.910  14.118 -0.4208 -0.0279  0.5197
14322TIP3    H264382   1.919   2.784  14.201 -0.0050 -0.3249  0.0680
14323TIP3   OH264383   3.714   5.969   3.811  0.0802 -0.0799 -0.2978
14323TIP3    H164384   3.807   5.948   3.820 -0.3386 -1.7410  0.5641
14323TIP3    H264385   3.670   5.883   3.808 -1.3625  0.6661 -1.4267
14324TIP3   OH264386   3.886   6.189   4.555 -0.4366  0.3987 -0.1258
14324TIP3    H164387   3.818   6.152   4.500 -1.7662 -0.1035  1.8009
14324TIP3    H264388   3.898   6.278   4.523 -1.7477  0.3716 -0.6988
14325TIP3   OH264389   5.149   3.817   4.874  0.3747 -0.1349  0.5869
14325TIP3    H164390   5.097   3.753   4.923  3.0878 -0.5547  3.0180
14325TIP3    H264391   5.147   3.784   4.784 -0.1303 -2.4067  1.3882
14326TIP3   OH264392   6.300   5.984   2.824  0.0311 -0.2258  0.4237
14326TIP3    H164393   6.304   5.954   2.914 -1.0833 -1.1493  0.1864
14326TIP3    H264394   6.245   6.062   2.827  0.1249 -0.1668  0.5698
14327TIP3   OH264395   4.348   0.522  16.127 -0.1556 -0.3171 -0.5185
14327TIP3    H164396   4.357   0.576  16.048  0.8829  0.3836  0.0612
14327TIP3    H264397   4.297   0.576  16.187  1.8392  0.5481  0.4814
14328TIP3   OH264398   0.828   1.751   2.742  0.2826  0.2349  0.2589
14328TIP3    H164399   0.743   1.730   2.704 -0.6275  3.0314  0.5913
14328TIP3    H264400   0.822   1.719   2.832  0.5077 -1.7374 -0.4094
14329TIP3   OH264401   6.400   3.591  15.047  0.1779  0.3224  0.2525
14329TIP3    H164402   6.483   3.634  15.070  0.3425  0.2966 -0.2912
14329TIP3    H264403   6.396   3.515  15.106  1.1519 -0.3786 -0.5560
14330TIP3   OH264404   4.881   1.755   2.408  0.1066 -0.1792 -0.1043
14330TIP3    H164405   4.833   1.672   2.411 -1.5327  0.7216 -1.0407
14330TIP3    H264406   4.822   1.818   2.448  1.2113  0.6257  0.2856
14331TIP3   OH264407   3.555   0.185  10.510 -0.0312  0.1394  0.0893
14331TIP3    H164408   3.478   0.133  10.532 -0.4005 -0.1654 -1.8593
14331TIP3    H264409   3.628   0.123  10.518 -0.0798  0.2015  1.0738
14332TIP3   OH264410   6.654   0.563   5.645  0.6145  0.1875  0.0142
14332TIP3    H164411   6.629   0.471   5.637  1.9917 -0.5912  3.6685
14332TIP3    H264412   6.733   0.561   5.699  1.3264  3.4460 -0.8525
14333TIP3   OH264413   6.677   5.777  12.617 -0.1776  0.9672 -0.0869
14333TIP3    H164414   6.608   5.795  12.682  0.6964  0.6082  0.9534
14333TIP3    H264415   6.630   5.776  12.533 -1.0680  3.0839  0.3331
14334TIP3   OH264416   1.641   5.601  13.472  0.1930  0.4557  0.1924
14334TIP3    H164417   1.633   5.517  13.426  2.3325  0.0884  0.4707
14334TIP3    H264418   1.554   5.640  13.464 -0.5816 -1.3814 -0.7218
14335TIP3   OH264419   4.395   4.473   0.126  0.0368  0.2758 -0.3533
14335TIP3    H164420   4.366   4.392   0.084  0.0134  0.1154 -0.0302
14335TIP3    H264421   4.373   4.541   0.063  0.5336 -0.0214 -0.8513
14336TIP3   OH264422   6.586   0.079   0.833  0.2954 -0.0385  0.1900
14336TIP3    H164423   6.590   0.015   0.904 -0.1091 -1.0244 -0.6447
14336TIP3    H264424   6.676   0.106   0.818  0.3752  0.1806  1.0817
14337TIP3   OH264425   4.272   4.638   0.314 -0.0698 -0.7641  0.3887
14337TIP3    H164426   4.221   4.703   0.267  0.3957 -0.7415 -0.0865
14337TIP3    H264427   4.307   4.581   0.246  0.7919 -0.5955  0.6800
14338TIP3   OH264428   1.483   5.992   4.210  0.0632  0.0656 -0.2107
14338TIP3    H164429   1.506   6.042   4.288 -0.3548  0.2126 -0.1808
14338TIP3    H264430   1.566   5.962   4.175  0.2257 -0.4470  0.5942
14339TIP3   OH264431   1.754   0.259  15.996  0.3113  0.1169  0.2124
14339TIP3    H164432   1.841   0.226  16.018  0.6201  0.2693 -0.7427
14339TIP3    H264433   1.698   0.229  16.067  1.5032  1.6136  1.8150
14340TIP3   OH264434   1.337   4.937   2.537 -0.1500 -0.6720 -0.1845
14340TIP3    H164435   1.305   5.000   2.601  1.2176  1.0055 -1.1132
14340TIP3    H264436   1.257   4.894   2.505 -1.0858  0.3655  0.6935
14341TIP3   OH264437   0.442   2.807   1.691  0.2510  0.0981  0.1689
14341TIP3    H164438   0.511   2.819   1.757  1.7220  0.8864 -1.4570
14341TIP3    H264439   0.455   2.718   1.659 -0.6672 -0.3984  1.1412
14342TIP3   OH264440   3.606   1.609  14.976  0.0506  0.4625  0.2011
14342TIP3    H164441   3.547   1.684  14.964  2.4039  2.1383 -1.2860
14342TIP3    H264442   3.679   1.644  15.027  1.2153 -0.7998 -0.5739
14343TIP3   OH264443   0.609   1.370   2.501 -0.6027  0.8618 -0.0361
14343TIP3    H164444   0.684   1.427   2.482 -0.4250  0.5182 -0.3458
14343TIP3    H264445   0.557   1.421   2.563 -0.5879  1.4882 -0.5297
14344TIP3   OH264446   2.270   2.094   5.186  0.0137 -0.2222 -0.1732
14344TIP3    H164447   2.337   2.161   5.198 -0.5877  0.6852 -1.7701
14344TIP3    H264448   2.224   2.120   5.106 -1.0753 -1.8203 -0.0847
14345TIP3   OH264449   0.641   2.953  13.778 -0.2854 -0.0609 -0.2769
14345TIP3    H164450   0.679   2.988  13.697  0.0988  1.1097  0.3920
14345TIP3    H264451   0.687   2.871  13.792  0.6681  0.4249 -0.4876
14346TIP3   OH264452   5.695   5.401  17.159 -0.0902  0.4978  0.2538
14346TIP3    H164453   5.640   5.473  17.191  1.0539  1.2886  0.4559
14346TIP3    H264454   5.720   5.428  17.071  0.8196  0.6298  0.5468
14347TIP3   OH264455   0.394   3.248  11.702  0.8662  0.2860 -0.0544
14347TIP3    H164456   0.410   3.235  11.609 -1.3769 -2.1215 -0.1587
14347TIP3    H264457   0.299   3.260  11.709  1.1134  1.2856  1.8311
14348TIP3   OH264458   4.172   2.756   5.309 -0.7808 -0.3567  0.0405
14348TIP3    H164459   4.225   2.740   5.231  1.2814  0.3596  1.2477
14348TIP3    H264460   4.106   2.687   5.308  2.4209 -3.5641  0.4172
14349TIP3   OH264461   2.049   1.048  15.816 -0.1406 -0.2883  0.4719
14349TIP3    H164462   2.132   1.065  15.860 -0.1933 -1.8444  1.1868
14349TIP3    H264463   2.052   0.956  15.793 -1.4115 -0.2037 -0.0654
14350TIP3   OH264464   3.478   2.116   4.370 -0.3431  0.0658 -0.0662
14350TIP3    H164465   3.427   2.035   4.360  1.5935 -1.1905 -0.0620
14350TIP3    H264466   3.477   2.156   4.283 -0.9817 -0.1630 -0.1670
14351TIP3   OH264467   3.144   5.828  12.671 -0.5079 -0.2817 -0.3618
14351TIP3    H164468   3.084   5.790  12.735 -0.2114 -0.6433 -0.2942
14351TIP3    H264469   3.144   5.922  12.691 -0.5729 -0.3652  0.0369
14352TIP3   OH264470   2.961   1.021   1.918  0.1581 -0.1585  0.7717
14352TIP3    H164471   2.874   1.061   1.912  0.6704  0.7336 -1.2108
14352TIP3    H264472   3.011   1.080   1.974 -0.0255  0.2446  0.5111
14353TIP3   OH264473   2.108   6.652  16.201 -0.3858  0.2323  0.4153
14353TIP3    H164474   2.191   6.699  16.208 -0.4083  0.3880 -0.3173
14353TIP3    H264475   2.126   6.581  16.140 -1.1179  1.0134 -0.7347
14354TIP3   OH264476   3.167   6.415  12.643  0.4181  0.2691  0.2355
14354TIP3    H164477   3.227   6.357  12.689  0.5882 -0.9605 -1.4678
14354TIP3    H264478   3.158   6.375  12.556 -3.2032  0.1868  0.5917
14355TIP3   OH264479   2.459   5.917   6.545 -0.6701  1.0258  0.6608
14355TIP3    H164480   2.529   5.948   6.488 -0.9523  0.3212 -0.0738
14355TIP3    H264481   2.429   5.996   6.590  0.4338  1.3669  0.8115
14356TIP3   OH264482   0.285   5.493   2.456 -0.6163 -0.3735 -0.3359
14356TIP3    H164483   0.210   5.539   2.493  0.4229  0.8164  0.3108
14356TIP3    H264484   0.263   5.480   2.364 -1.0509  1.1415 -0.4502
14357TIP3   OH264485   1.692   4.063  12.315  0.2094  0.0837 -0.0739
14357TIP3    H164486   1.700   3.989  12.375 -0.2266  1.4041  1.6717
14357TIP3    H264487   1.613   4.109  12.344  0.4248  1.1762 -1.1760
14358TIP3   OH264488   6.594   4.268   0.479 -0.1511  0.2730 -0.0906
14358TIP3    H164489   6.671   4.278   0.536  1.3829 -0.9702 -1.8628
14358TIP3    H264490   6.563   4.358   0.466  0.1179  0.6657  1.8232
14359TIP3   OH264491   3.913   4.375   3.982 -0.2806 -0.5512  0.2368
14359TIP3    H164492   3.934   4.467   3.969  0.9330 -0.8142  0.2303
14359TIP3    H264493   3.993   4.328   3.958 -1.1594 -1.6724 -0.6159
14360TIP3   OH264494   6.098   3.397  17.128 -0.0097 -0.0357 -0.3334
14360TIP3    H164495   6.084   3.463  17.060 -0.7173 -0.1891 -0.3473
14360TIP3    H264496   6.036   3.327  17.106  1.3947 -1.1228 -0.8496
14361TIP3   OH264497   1.749   0.438   3.107 -0.3894  0.3497 -0.4467
14361TIP3    H164498   1.842   0.426   3.089 -0.1266  0.5198  0.7404
14361TIP3    H264499   1.718   0.495   3.036  0.5146  0.6690 -0.5931
14362TIP3   OH264500   5.024   1.130   0.913 -0.0262  0.1899  0.1762
14362TIP3    H164501   5.020   1.188   0.837  2.1909  1.1908  0.7682
14362TIP3    H264502   4.992   1.184   0.986 -0.4918 -0.1979  0.2578
14363TIP3   OH264503   2.207   5.343   6.373  0.5421 -0.3347 -0.1873
14363TIP3    H164504   2.145   5.299   6.431 -0.1624  0.7035 -0.1350
14363TIP3    H264505   2.258   5.272   6.334 -0.5299 -1.1904 -0.0612
14364TIP3   OH264506   5.044   5.056   0.313  0.2665  0.2004  0.1045
14364TIP3    H164507   5.091   5.048   0.230 -0.0302  0.6827 -0.1052
14364TIP3    H264508   4.954   5.077   0.289  0.2943  0.8618  0.5665
14365TIP3   OH264509   4.629   4.049  12.073  0.0600 -0.1393 -0.1316
14365TIP3    H164510   4.535   4.035  12.079 -0.1409  1.5499  0.9111
14365TIP3    H264511   4.660   3.980  12.013 -1.6200 -1.5534  0.5814
14366TIP3   OH264512   5.817   3.810  14.230  0.2260 -0.2764  0.3405
14366TIP3    H164513   5.872   3.738  14.198  1.6192  0.5309  0.8820
14366TIP3    H264514   5.879   3.875  14.261 -1.0138  1.3376 -0.5056
14367TIP3   OH264515   4.144   4.987  13.295  0.5809  0.0142  0.2172
14367TIP3    H164516   4.138   4.905  13.344 -0.6622 -0.5852 -0.9155
14367TIP3    H264517   4.086   5.048  13.342 -0.8898 -0.6648 -0.7038
14368TIP3   OH264518   2.637   6.303   5.726 -0.2563  0.5490 -0.7372
14368TIP3    H164519   2.620   6.277   5.816 -1.2473  1.1493 -0.7323
14368TIP3    H264520   2.616   6.226   5.674 -0.4731  0.4557 -0.5142
14369TIP3   OH264521   2.249   4.100   2.973  0.1036 -0.0287 -0.3055
14369TIP3    H164522   2.318   4.035   2.984 -0.4090 -0.2667  1.7707
14369TIP3    H264523   2.269   4.168   3.037  0.5495  1.8346 -2.3490
14370TIP3   OH264524   1.653   3.898  11.067 -0.0474  0.6349 -0.2322
14370TIP3    H164525   1.620   3.927  11.153 -3.5354 -2.6787 -0.3046
14370TIP3    H264526   1.744   3.874  11.083 -0.3353  1.0779  2.3132
14371TIP3   OH264527   2.565   4.674   4.728 -0.2192 -0.2443  0.1800
14371TIP3    H164528   2.480   4.653   4.691 -1.3416  0.8288  2.0584
14371TIP3    H264529   2.626   4.614   4.685 -1.6329  0.1549 -2.4726
14372TIP3   OH264530   0.281   5.072   3.284 -0.2322  0.1979  0.2919
14372TIP3    H164531   0.360   5.100   3.237 -0.7853  1.1986 -0.0732
14372TIP3    H264532   0.219   5.051   3.214 -0.5478  0.1968  0.5751
14373TIP3   OH264533   0.978   2.766   0.831  0.0768  0.5965 -0.0361
14373TIP3    H164534   1.040   2.742   0.899  0.1848 -1.4757 -0.8270
14373TIP3    H264535   0.913   2.820   0.875  0.3424 -0.4173  1.6348
14374TIP3   OH264536   1.121   5.864  13.414  0.5681  0.3225 -0.1906
14374TIP3    H164537   1.151   5.819  13.335  0.3166  0.8026 -0.5613
14374TIP3    H264538   1.042   5.911  13.388  0.4305  0.4143  0.3692
14375TIP3   OH264539   3.199   0.415  12.869 -0.3931  0.1638  0.0928
14375TIP3    H164540   3.229   0.424  12.959  0.9452 -1.8909 -0.1150
14375TIP3    H264541   3.198   0.504  12.835  0.7620  0.7800  1.6062
14376TIP3   OH264542   4.923   2.015  16.020 -0.1441  0.5372 -0.6887
14376TIP3    H164543   5.009   2.047  15.992  0.2800  1.7184  1.8932
14376TIP3    H264544   4.943   1.937  16.072 -0.8537 -0.9208 -2.5518
14377TIP3   OH264545   1.560   2.460   2.362 -0.4985  0.2148 -0.6636
14377TIP3    H164546   1.558   2.483   2.269 -1.2802  0.6677 -0.5405
14377TIP3    H264547   1.581   2.543   2.406  4.0084 -0.7908 -0.6840
14378TIP3   OH264548   6.513   2.300   1.232 -0.2438  0.0090  0.0237
14378TIP3    H164549   6.552   2.384   1.259 -1.4821  0.7717 -0.5216
14378TIP3    H264550   6.422   2.321   1.212 -0.8347 -1.6902  0.8813
14379TIP3   OH264551   3.676   3.818  11.498  0.4314 -0.4253  0.5458
14379TIP3    H164552   3.741   3.848  11.561 -1.1997 -2.1579  3.1812
14379TIP3    H264553   3.594   3.857  11.527  0.1143  1.2174 -2.3591
14380TIP3   OH264554   5.034   0.778  10.339 -0.0833 -0.3820 -0.1276
14380TIP3    H164555   4.963   0.758  10.400 -0.0920 -0.3376 -0.1237
14380TIP3    H264556   5.021   0.716  10.267  1.0971 -1.7670  0.8432
14381TIP3   OH264557   4.834   2.085  13.816 -0.4766  0.4064 -0.0022
14381TIP3    H164558   4.902   2.038  13.768 -0.0353  0.6575  0.3763
14381TIP3    H264559   4.754   2.034  13.800  0.0608 -0.6745  0.6860
14382TIP3   OH264560   2.948   6.627   3.946  0.2381 -0.1053  0.1955
14382TIP3    H164561   2.892   6.562   3.989 -0.8881 -0.0529 -1.1493
14382TIP3    H264562   2.988   6.579   3.873  1.0600  0.1638  0.4652
14383TIP3   OH264563   3.930   0.207  12.575 -0.0531 -0.2275  0.0049
14383TIP3    H164564   4.006   0.243  12.529 -0.4853 -0.2492 -0.7263
14383TIP3    H264565   3.911   0.271  12.644 -0.0757  0.3500 -0.5334
14384TIP3   OH264566   1.155   2.094  11.315  0.6176  0.3655 -0.1647
14384TIP3    H164567   1.076   2.076  11.263  0.0943 -1.3861  1.2001
14384TIP3    H264568   1.139   2.181  11.352 -0.5014  0.1973 -0.2354
14385TIP3   OH264569   3.935   0.439   0.626  0.2423 -0.0304 -0.0401
14385TIP3    H164570   3.891   0.368   0.582 -0.0136 -0.4905  0.9387
14385TIP3    H264571   3.998   0.472   0.562  0.8306 -1.5666 -0.2728
14386TIP3   OH264572   2.574   3.699   0.213  0.5801  0.5264 -0.1493
14386TIP3    H164573   2.589   3.705   0.307  0.5422 -2.3251  0.0851
14386TIP3    H264574   2.498   3.754   0.197  1.1605  1.7805  1.3277
14387TIP3   OH264575   4.075   3.736   6.403  0.3296  0.0168  0.2871
14387TIP3    H164576   4.042   3.713   6.316  1.6588 -0.8040 -0.0102
14387TIP3    H264577   4.019   3.687   6.464  1.1197 -1.5406 -0.2182
14388TIP3   OH264578   3.841   0.426  17.076 -0.0903  0.0176  0.0185
14388TIP3    H164579   3.871   0.336  17.067 -0.9273 -0.4160  1.4715
14388TIP3    H264580   3.879   0.456  17.159 -0.6554  0.6712  0.0473
14389TIP3   OH264581   2.779   5.513   5.554  0.0627 -0.4516 -0.1033
14389TIP3    H164582   2.844   5.578   5.581  0.0202 -0.4033 -0.1180
14389TIP3    H264583   2.815   5.477   5.473  1.1990 -2.0464  1.0774
14390TIP3   OH264584   1.680   3.768   5.277 -0.4254 -0.2062  0.4264
14390TIP3    H164585   1.647   3.707   5.344 -0.6448  0.0484  0.5516
14390TIP3    H264586   1.615   3.838   5.275  0.1329  0.3192  0.6961
14391TIP3   OH264587   2.149   5.381   1.446  0.0884 -0.2752  0.1190
14391TIP3    H164588   2.118   5.292   1.430 -2.3916  1.0586 -2.9065
14391TIP3    H264589   2.215   5.396   1.379  1.6703 -0.3314  1.6184
14392TIP3   OH264590   2.016   4.083  14.452  0.7637 -0.0697  0.3756
14392TIP3    H164591   1.990   4.159  14.504 -0.9409 -0.2292 -0.2311
14392TIP3    H264592   2.008   4.009  14.513  0.7671  0.0080  0.4717
14393TIP3   OH264593   2.551   4.154   1.588  0.5582 -0.1230  0.0489
14393TIP3    H164594   2.512   4.241   1.576 -1.8095 -0.9428  1.6554
14393TIP3    H264595   2.553   4.141   1.683 -0.3400 -2.3644 -0.2131
14394TIP3   OH264596   6.335   1.425   3.746 -0.3039  0.0870 -0.3692
14394TIP3    H164597   6.355   1.360   3.813 -0.5776  0.4668  0.0795
14394TIP3    H264598   6.399   1.407   3.676  1.8028  1.4748  1.1605
14395TIP3   OH264599   1.695   6.470  15.594 -0.4375 -0.2032 -0.5401
14395TIP3    H164600   1.740   6.551  15.570 -1.7943  0.2941 -1.5018
14395TIP3    H264601   1.699   6.415  15.516 -1.6555 -0.0634 -0.7167
14396TIP3   OH264602   3.273   5.153   3.724  0.1308 -0.1777  0.3685
14396TIP3    H164603   3.358   5.165   3.767  1.6321 -1.7904 -2.0430
14396TIP3    H264604   3.238   5.072   3.761  0.8018 -0.8549 -0.4903
14397TIP3   OH264605   5.871   6.514  11.602  0.0920 -0.2805  0.2366
14397TIP3    H164606   5.832   6.572  11.668 -1.7997 -1.0554 -0.1900
14397TIP3    H264607   5.964   6.513  11.624  0.0284  2.1632  0.8447
14398TIP3   OH264608   0.647   4.489   2.034 -0.0080  0.0745 -0.0235
14398TIP3    H164609   0.686   4.442   1.960 -2.0564  0.9899 -1.7631
14398TIP3    H264610   0.636   4.579   2.002 -0.7287  0.5449  1.4870
14399TIP3   OH264611   0.821   5.066   4.772  0.6759  0.3136  0.1923
14399TIP3    H164612   0.880   4.995   4.747 -0.4197 -0.4087 -0.3726
14399TIP3    H264613   0.775   5.089   4.692  0.1326  0.8251  0.6474
14400TIP3   OH264614   3.887   0.956  15.971 -0.4079 -0.8196 -0.1854
14400TIP3    H164615   3.856   0.877  15.926 -1.6880  1.1028 -2.7631
14400TIP3    H264616   3.811   0.989  16.017 -1.1836  1.4749 -2.9669
14401TIP3   OH264617   1.455   6.632   4.063  0.4884  0.4439 -0.2018
14401TIP3    H164618   1.507   6.680   4.000 -1.8233  0.4057 -2.2264
14401TIP3    H264619   1.481   6.541   4.053  1.5851  0.6835  0.3882
14402TIP3   OH264620   1.154   4.246  16.156 -0.9957 -0.6723  0.2365
14402TIP3    H164621   1.201   4.207  16.230 -1.8316  0.2040  1.2373
14402TIP3    H264622   1.062   4.226  16.173 -1.7052  3.6150  1.9491
14403TIP3   OH264623   4.291   3.522   3.786  0.6691  0.8210  0.1656
14403TIP3    H164624   4.356   3.510   3.856 -1.1405 -0.1396  1.7300
14403TIP3    H264625   4.235   3.593   3.818 -0.0770  0.4908 -0.4122
14404TIP3   OH264626   5.723   4.623   2.304 -0.5440  0.5833 -0.2173
14404TIP3    H164627   5.799   4.664   2.263  1.8055 -3.3491 -0.0989
14404TIP3    H264628   5.758   4.586   2.386 -1.8929 -3.4923 -1.3634
14405TIP3   OH264629   3.670   4.616  13.012  0.2574  0.0560 -0.7456
14405TIP3    H164630   3.633   4.596  13.098  0.4372  2.0339 -0.1928
14405TIP3    H264631   3.696   4.708  13.017 -1.4674  0.7885 -3.4988
14406TIP3   OH264632   3.889   5.039  12.108  0.4298 -0.0840 -0.5098
14406TIP3    H164633   3.860   5.084  12.188  1.9065 -0.5017  0.2804
14406TIP3    H264634   3.977   5.073  12.093  0.7666 -1.1913 -1.0562
14407TIP3   OH264635   1.072   0.998   1.030 -0.6758  0.3609  0.1375
14407TIP3    H164636   1.033   1.025   1.113  0.1704  1.7484  0.1092
14407TIP3    H264637   1.005   1.016   0.965 -0.7872  0.7050  0.3446
14408TIP3   OH264638   5.415   1.052  15.254  0.5486 -0.1668 -0.5932
14408TIP3    H164639   5.474   1.107  15.305  0.7679 -1.8025  0.9851
14408TIP3    H264640   5.471   1.009  15.190  1.2258 -2.0654  1.1950
14409TIP3   OH264641   5.217   1.875  15.570 -0.2943 -0.0140 -0.2809
14409TIP3    H164642   5.222   1.835  15.657 -1.6249  0.2898 -0.0549
14409TIP3    H264643   5.135   1.924  15.571  0.1091  0.6916 -1.4169
14410TIP3   OH264644   3.260   0.376   5.052 -0.5104 -0.1721 -0.4536
14410TIP3    H164645   3.179   0.393   5.005 -0.1039 -0.1796 -1.1548
14410TIP3    H264646   3.232   0.347   5.139 -1.2498  0.8122 -0.3590
14411TIP3   OH264647   3.996   1.402  14.600 -0.3328 -0.7225  0.2360
14411TIP3    H164648   4.029   1.373  14.685  3.3031 -0.0482 -0.8591
14411TIP3    H264649   3.953   1.325  14.563  1.7424 -2.2317  0.9207
14412TIP3   OH264650   2.643   4.519   5.335 -0.2316 -0.0926 -0.2768
14412TIP3    H164651   2.703   4.558   5.270 -0.5650  0.5529 -0.1983
14412TIP3    H264652   2.627   4.589   5.397 -0.0865 -0.6491  0.3942
14413TIP3   OH264653   4.768   5.080   3.400 -0.2241 -0.6361 -0.2137
14413TIP3    H164654   4.823   5.125   3.336  0.5190  1.2279  1.6570
14413TIP3    H264655   4.828   5.017   3.442 -0.5375 -1.3873 -0.8918
14414TIP3   OH264656   3.682   2.068  15.913 -0.1536  0.3347  0.6023
14414TIP3    H164657   3.724   1.984  15.931  0.1318  0.3499  0.0023
14414TIP3    H264658   3.596   2.044  15.877  1.7580  0.2054 -4.2209
14415TIP3   OH264659   2.625   1.785   3.278  0.6075  0.6549 -0.4750
14415TIP3    H164660   2.625   1.792   3.373  0.8307  0.9865 -0.5014
14415TIP3    H264661   2.552   1.726   3.259  0.6837  0.4327 -0.0875
14416TIP3   OH264662   2.360   4.652  13.233 -0.1778  0.3856  0.2647
14416TIP3    H164663   2.400   4.703  13.162  0.1228 -0.2793 -0.0558
14416TIP3    H264664   2.358   4.563  13.199 -2.2326  0.4538  0.1587
14417TIP3   OH264665   3.884   0.384   2.355 -0.1599  0.0874 -0.2876
14417TIP3    H164666   3.966   0.408   2.397 -0.1731 -0.7667  0.2375
14417TIP3    H264667   3.816   0.422   2.411 -0.1563 -0.4175  0.0654
14418TIP3   OH264668   5.382   6.453   1.150  0.3805 -0.2442 -0.2952
14418TIP3    H164669   5.303   6.401   1.137  1.1731 -1.8973  1.2685
14418TIP3    H264670   5.429   6.408   1.220  0.5202  3.2700  2.0091
14419TIP3   OH264671   0.152   6.351  14.749  0.3674  0.1280  0.0978
14419TIP3    H164672   0.146   6.416  14.819 -0.1680 -0.5478  0.6798
14419TIP3    H264673   0.093   6.281  14.775  1.6959 -1.0676 -0.0240
14420TIP3   OH264674   4.062   1.657  16.512 -0.5771  0.3452  0.1064
14420TIP3    H164675   4.115   1.580  16.530 -0.9781  0.3661  1.4736
14420TIP3    H264676   4.026   1.682  16.598 -0.7523  1.8159 -0.3749
14421TIP3   OH264677   3.117   0.469   3.488 -0.0196 -0.8249 -0.6832
14421TIP3    H164678   3.171   0.433   3.417 -1.1437 -0.8139 -1.5620
14421TIP3    H264679   3.123   0.564   3.476 -0.2084 -0.8232 -0.7715
14422TIP3   OH264680   1.878   6.226   0.862 -0.0198  0.2171  0.5851
14422TIP3    H164681   1.937   6.290   0.901 -2.5323  1.1240  3.0912
14422TIP3    H264682   1.849   6.172   0.935 -0.3480 -1.8189 -1.0004
14423TIP3   OH264683   0.853   6.617  12.042  0.1794  0.1019 -0.6498
14423TIP3    H164684   0.944   6.641  12.056  0.2125  0.6987 -1.8304
14423TIP3    H264685   0.804   6.667  12.107  0.6767 -0.1115 -0.1106
14424TIP3   OH264686   2.904   5.355  16.551 -0.1465  0.1862  0.3115
14424TIP3    H164687   2.818   5.397  16.558 -0.6280 -0.6864 -0.1737
14424TIP3    H264688   2.907   5.322  16.462  1.2755  1.4063 -0.1095
14425TIP3   OH264689   2.007   5.845   3.564  0.1428 -0.4947 -0.9415
14425TIP3    H164690   2.015   5.751   3.551  0.8082 -0.8166  1.5536
14425TIP3    H264691   1.914   5.863   3.548  0.1540 -1.4520 -2.1327
14426TIP3   OH264692   2.922   3.478  16.961  0.8569 -0.1318  0.3500
14426TIP3    H164693   2.955   3.426  16.888  3.3672 -2.0521  2.7702
14426TIP3    H264694   2.969   3.561  16.955  0.9449 -0.2326 -0.3201
14427TIP3   OH264695   4.344   4.967  17.106 -0.7857  0.0423  0.5045
14427TIP3    H164696   4.424   5.020  17.106  1.3509 -3.0232  0.8723
14427TIP3    H264697   4.298   4.993  17.186 -0.5547  2.3954 -0.1093
14428TIP3   OH264698   4.898   6.523   2.015  0.1280 -0.1974 -0.2211
14428TIP3    H164699   4.867   6.565   2.096  0.2341 -3.0433  1.3767
14428TIP3    H264700   4.970   6.467   2.044  0.6653 -0.6846 -2.4371
14429TIP3   OH264701   6.635   5.242  14.549  0.1152  0.5015 -0.7064
14429TIP3    H164702   6.713   5.296  14.553 -0.0924  1.0252 -3.1679
14429TIP3    H264703   6.652   5.179  14.479 -2.6366  2.2289 -3.0449
14430TIP3   OH264704   1.896   6.011  13.752  0.4895  0.4605 -0.0876
14430TIP3    H164705   1.937   6.058  13.824  2.2943  1.0965 -1.4966
14430TIP3    H264706   1.888   6.076  13.682  1.5375 -0.8681 -1.5053
14431TIP3   OH264707   3.622   3.831  11.192 -0.2245  0.0558 -0.2703
14431TIP3    H164708   3.557   3.846  11.124 -2.7079 -1.7765  1.5864
14431TIP3    H264709   3.621   3.912  11.244 -1.3174 -0.0693 -0.0704
14432TIP3   OH264710   5.914   5.438  11.511 -0.2646  0.6021 -0.8680
14432TIP3    H164711   5.955   5.358  11.542 -0.9977 -0.3890 -2.3662
14432TIP3    H264712   5.973   5.508  11.537  1.0020 -0.5483 -0.6169
14433TIP3   OH264713   4.585   6.320  16.474  0.0365  0.3997  0.1793
14433TIP3    H164714   4.609   6.333  16.382  1.0360  1.3672  0.5584
14433TIP3    H264715   4.526   6.392  16.494  0.1630  0.4353  0.4195
14434TIP3   OH264716   5.910   4.548  14.945  0.0706 -0.7218  0.3805
14434TIP3    H164717   5.827   4.588  14.972 -0.3454 -1.1539 -0.2547
14434TIP3    H264718   5.887   4.493  14.871  0.8920 -1.0265  0.3492
14435TIP3   OH264719   3.048   2.357  11.673  0.3381  0.0180  0.7203
14435TIP3    H164720   3.039   2.453  11.668  0.8006  0.0365  0.1424
14435TIP3    H264721   2.967   2.328  11.713 -1.3861  0.3634 -2.3300
14436TIP3   OH264722   5.032   1.154  13.661  0.5958  0.3333  0.7687
14436TIP3    H164723   5.046   1.247  13.639 -1.4720  0.1368 -1.7289
14436TIP3    H264724   4.945   1.153  13.701  1.0850 -0.3813  1.7913
14437TIP3   OH264725   2.913   0.892  11.684 -0.4710  0.2370 -0.0817
14437TIP3    H164726   3.004   0.866  11.700 -0.6860 -0.7575 -0.4814
14437TIP3    H264727   2.870   0.882  11.768 -0.6450 -1.1012 -0.3172
14438TIP3   OH264728   1.045   0.388  12.672 -0.4047  0.2746 -0.2183
14438TIP3    H164729   0.994   0.440  12.733  1.2808  0.3805  1.1643
14438TIP3    H264730   1.072   0.450  12.604  0.1474  0.8304  0.4967
14439TIP3   OH264731   6.319   3.878  17.212  0.5197 -0.1732  0.0379
14439TIP3    H164732   6.371   3.819  17.267  4.2251  2.3382 -0.5395
14439TIP3    H264733   6.384   3.936  17.172 -2.7745  3.0142 -0.9747
14440TIP3   OH264734   3.281   3.701   3.603 -0.2775  0.4223 -0.6761
14440TIP3    H164735   3.226   3.762   3.554 -0.7455 -0.3502 -1.1269
14440TIP3    H264736   3.229   3.679   3.680  0.9336  2.5320  0.7954
14441TIP3   OH264737   2.526   3.331   4.428  0.2750  0.4447 -0.0942
14441TIP3    H164738   2.443   3.308   4.387  0.6814  1.5096 -1.5460
14441TIP3    H264739   2.568   3.247   4.447  0.2772 -0.0571 -2.2667
14442TIP3   OH264740   3.711   1.202   5.444  0.3101  0.2175 -0.1389
14442TIP3    H164741   3.779   1.141   5.473 -1.7596 -1.7481  0.7551
14442TIP3    H264742   3.709   1.270   5.512 -1.2601 -1.8307  1.9497
14443TIP3   OH264743   3.444   1.475   5.314 -0.1546  0.4459  0.7812
14443TIP3    H164744   3.420   1.447   5.403 -1.6850 -1.8796 -0.3278
14443TIP3    H264745   3.409   1.407   5.257  0.1393  2.3032 -1.6886
14444TIP3   OH264746   1.174   0.047  11.852  0.7328  0.2398 -0.0078
14444TIP3    H164747   1.252   0.001  11.820  1.0156  0.6070  0.1483
14444TIP3    H264748   1.159   0.012  11.939  0.5888  0.0050 -0.1268
14445TIP3   OH264749   3.431   0.725  13.240  0.6744 -0.3018  0.1337
14445TIP3    H164750   3.407   0.817  13.251  1.8266  0.0532 -0.2395
14445TIP3    H264751   3.353   0.676  13.266  0.4732  0.7468  1.5473
14446TIP3   OH264752   2.833   1.091   3.063 -0.0744  0.4063 -0.5436
14446TIP3    H164753   2.886   1.166   3.036 -0.8300  1.6753  1.4132
14446TIP3    H264754   2.743   1.117   3.043 -0.3909  0.2638  0.6620
14447TIP3   OH264755   1.970   1.568  11.428  0.2574 -0.2457 -0.3881
14447TIP3    H164756   1.931   1.613  11.354 -0.8660 -2.6922 -1.3552
14447TIP3    H264757   2.021   1.497  11.389  0.1401 -1.1912  1.1135
14448TIP3   OH264758   1.793   5.759   6.164 -0.1897 -0.1025  0.2902
14448TIP3    H164759   1.834   5.737   6.247 -0.6884 -0.3817  0.4632
14448TIP3    H264760   1.700   5.739   6.176  0.0236 -1.9278 -0.9527
14449TIP3   OH264761   4.241   1.863   0.266  0.2487  0.3855 -0.2631
14449TIP3    H164762   4.218   1.892   0.355  0.7508  0.5106 -0.1747
14449TIP3    H264763   4.287   1.780   0.279 -0.9152 -0.3179 -0.4960
14450TIP3   OH264764   0.984   4.664  15.160  0.2296 -0.3762 -0.0758
14450TIP3    H164765   0.985   4.749  15.117 -2.2885  0.5700  1.6478
14450TIP3    H264766   0.941   4.606  15.098 -0.8253  0.3298 -0.0133
14451TIP3   OH264767   3.484   1.900   3.629 -0.0932  0.2722 -0.0189
14451TIP3    H164768   3.398   1.907   3.671  0.0252  0.8852  0.1283
14451TIP3    H264769   3.513   1.991   3.618  0.7998  0.0539  0.4777
14452TIP3   OH264770   6.056   5.026  15.768 -0.7011 -0.8019  0.5865
14452TIP3    H164771   6.076   5.118  15.786  0.5071 -1.0445  0.5701
14452TIP3    H264772   6.096   5.009  15.683 -0.4955 -1.4548  0.8071
14453TIP3   OH264773   1.075   6.783  12.766  0.0054  0.4289 -0.3460
14453TIP3    H164774   0.989   6.819  12.786 -0.0320  0.8284 -1.1776
14453TIP3    H264775   1.114   6.847  12.707 -0.0582 -0.8781 -1.8501
14454TIP3   OH264776   6.235   0.894   0.428 -0.5946 -0.5204  0.6245
14454TIP3    H164777   6.238   0.986   0.454 -0.7309 -0.0861 -0.8544
14454TIP3    H264778   6.174   0.853   0.490 -1.7768  0.7050  0.2903
14455TIP3   OH264779   4.546   1.322  11.663  0.0071 -0.2163  0.6192
14455TIP3    H164780   4.619   1.369  11.621  1.4332 -1.4968  1.5856
14455TIP3    H264781   4.542   1.360  11.751  0.3811 -1.0501  1.0024
14456TIP3   OH264782   3.336   4.848  16.734  0.4249  0.0732 -0.1706
14456TIP3    H164783   3.287   4.927  16.713  0.2847 -0.1674 -0.7614
14456TIP3    H264784   3.416   4.879  16.776  0.7901  0.5718 -1.2182
14457TIP3   OH264785   0.320   0.613  12.399  0.1144 -0.3714 -0.6318
14457TIP3    H164786   0.352   0.549  12.462 -0.1098 -0.2528 -0.3998
14457TIP3    H264787   0.225   0.602  12.400  0.1775 -1.2315 -1.8546
14458TIP3   OH264788   6.235   5.587  12.389  0.1333 -0.1966  0.2825
14458TIP3    H164789   6.266   5.516  12.445  0.8797 -0.7450 -0.8005
14458TIP3    H264790   6.311   5.610  12.336  0.1590  2.0403  1.2350
14459TIP3   OH264791   0.759   2.137  12.876  0.0642 -0.3045  0.1232
14459TIP3    H164792   0.792   2.138  12.966  0.7781  3.2252 -0.1075
14459TIP3    H264793   0.674   2.182  12.881 -0.3823 -1.0401 -0.7932
14460TIP3   OH264794   4.234   0.123   5.049  0.5347  0.3860  0.1275
14460TIP3    H164795   4.167   0.128   5.118  0.0156 -1.4338 -0.2209
14460TIP3    H264796   4.313   0.095   5.095 -0.1382 -2.1317 -0.1924
14461TIP3   OH264797   0.585   6.730  14.913  0.5777 -0.3560  0.1718
14461TIP3    H164798   0.585   6.636  14.933 -0.2926 -0.3328  0.2949
14461TIP3    H264799   0.575   6.772  14.999  0.7920 -0.1528  0.0973
14462TIP3   OH264800   3.382   1.450   0.419  0.8771  0.8482  0.3522
14462TIP3    H164801   3.303   1.448   0.473 -0.7381  0.4248 -1.9507
14462TIP3    H264802   3.454   1.441   0.481 -0.9230  0.4137  2.4239
14463TIP3   OH264803   3.330   1.109  12.723  0.0380  0.2915  0.3678
14463TIP3    H164804   3.254   1.076  12.771 -0.0078 -0.9273 -0.5137
14463TIP3    H264805   3.357   1.186  12.772  0.1813 -1.0854  2.5215
14464TIP3   OH264806   3.493   2.198   4.115  0.0844 -0.5324  0.4793
14464TIP3    H164807   3.550   2.210   4.039  0.8118 -2.6913  0.6626
14464TIP3    H264808   3.423   2.141   4.084 -0.6992  0.1691  0.9185
14465TIP3   OH264809   5.867   0.699  13.320  0.1790  0.1105  0.2308
14465TIP3    H164810   5.805   0.644  13.271  1.4776 -0.9420 -0.2631
14465TIP3    H264811   5.922   0.739  13.253 -0.3361  1.5192  0.6355
14466TIP3   OH264812   5.666   4.301  16.755  0.3566 -0.4636  0.3785
14466TIP3    H164813   5.682   4.289  16.662  0.1229  0.4643  0.2185
14466TIP3    H264814   5.649   4.212  16.788  1.2894 -0.8979 -0.2862
14467TIP3   OH264815   1.522   0.732   1.068  0.0599 -1.0572 -0.2669
14467TIP3    H164816   1.429   0.725   1.047  0.1733 -1.9574 -0.4572
14467TIP3    H264817   1.552   0.642   1.078  0.8894 -0.7671 -0.0951
14468TIP3   OH264818   4.330   5.360   5.391  0.0129 -0.3285  0.0932
14468TIP3    H164819   4.276   5.303   5.336 -0.3185 -0.2716  0.3624
14468TIP3    H264820   4.381   5.301   5.446  1.5969 -0.4494 -1.4461
14469TIP3   OH264821   0.725   4.662  12.541  0.0751 -0.0012  0.2620
14469TIP3    H164822   0.772   4.581  12.560  3.2549  1.4575 -1.0483
14469TIP3    H264823   0.750   4.721  12.612 -2.5092 -0.2095  1.4043
14470TIP3   OH264824   3.466   3.278   6.170 -0.1043  0.5857  0.3273
14470TIP3    H164825   3.556   3.268   6.139  0.1567  2.3517  0.4816
14470TIP3    H264826   3.457   3.212   6.239  0.9069  0.0695 -0.0269
14471TIP3   OH264827   4.159   5.223   5.230 -0.2004  0.2381 -0.3398
14471TIP3    H164828   4.088   5.170   5.265  0.2850  0.6977  1.3519
14471TIP3    H264829   4.118   5.275   5.161 -1.1803 -0.5635 -0.3770
14472TIP3   OH264830   2.158   5.091  13.263 -0.7858  0.7365 -0.2787
14472TIP3    H164831   2.155   5.069  13.170 -1.9153  1.3566 -0.3984
14472TIP3    H264832   2.167   5.186  13.265  2.8974  0.4434  0.2359
14473TIP3   OH264833   2.312   5.906   5.306  0.1881  0.1983 -0.3178
14473TIP3    H164834   2.223   5.936   5.326  0.7584 -0.4149  3.4768
14473TIP3    H264835   2.368   5.978   5.334  0.9814 -0.1214 -1.0942
14474TIP3   OH264836   3.211   2.090  14.538  0.4255 -0.1119  0.3956
14474TIP3    H164837   3.300   2.091  14.574  0.6954 -0.6744 -0.2470
14474TIP3    H264838   3.221   2.119  14.447 -0.2029  0.9359  0.6529
14475TIP3   OH264839   0.838   5.668  17.221 -0.5120 -0.3102  1.0419
14475TIP3    H164840   0.859   5.586  17.176 -0.0906  0.2572  0.2023
14475TIP3    H264841   0.885   5.662  17.304  0.6061 -0.3322  0.4121
14476TIP3   OH264842   0.424   6.653   2.131  0.1868  0.1745  0.0037
14476TIP3    H164843   0.487   6.583   2.115  0.5918 -0.0726  2.4778
14476TIP3    H264844   0.361   6.646   2.059  2.8911  0.3855 -2.5030
14477TIP3   OH264845   0.220   3.433  14.372 -0.1345  0.0385  0.3061
14477TIP3    H164846   0.185   3.436  14.283  1.0013  0.9750 -0.1214
14477TIP3    H264847   0.181   3.354  14.411  1.5248 -1.9787 -1.9407
14478TIP3   OH264848   4.071   2.942  12.673 -0.2534 -0.6363 -0.5109
14478TIP3    H164849   4.032   2.917  12.756 -1.9734  0.8648 -0.8516
14478TIP3    H264850   3.997   2.960  12.615  0.9042  2.2584 -1.1791
14479TIP3   OH264851   6.644   2.530  10.997 -0.2474  0.4881  0.4247
14479TIP3    H164852   6.602   2.477  10.929  1.5408 -0.6560  0.1971
14479TIP3    H264853   6.726   2.485  11.015 -0.4577  1.0764  2.9768
14480TIP3   OH264854   0.380   3.294   5.498  1.0531 -0.2250 -0.2035
14480TIP3    H164855   0.290   3.288   5.468  0.7788 -0.2599  0.6448
14480TIP3    H264856   0.392   3.387   5.520  1.8496  0.2028 -2.2866
14481TIP3   OH264857   4.950   5.847  11.019  0.5415  0.1465  0.1712
14481TIP3    H164858   4.906   5.763  11.029 -0.7701  0.4443 -2.5794
14481TIP3    H264859   4.888   5.911  11.054  0.0648  0.2826 -0.9148
14482TIP3   OH264860   4.099   1.167   2.842  0.2074 -0.4168  1.0442
14482TIP3    H164861   4.131   1.121   2.765 -0.8324 -0.0012  0.3489
14482TIP3    H264862   4.049   1.101   2.891 -0.0066 -0.4122  0.8306
14483TIP3   OH264863   0.860   1.351   3.564  0.1430 -0.4430  0.0470
14483TIP3    H164864   0.937   1.335   3.508  1.1964 -0.8442  1.5649
14483TIP3    H264865   0.875   1.295   3.641 -0.1570  1.7625  1.7466
14484TIP3   OH264866   5.348   2.666   1.291  0.3495 -0.0697  0.4723
14484TIP3    H164867   5.392   2.723   1.355  1.7432  0.7550 -1.1710
14484TIP3    H264868   5.315   2.593   1.343  2.2812  0.0994  2.0124
14485TIP3   OH264869   6.241   6.091  16.158 -0.4994  0.1360 -0.0895
14485TIP3    H164870   6.185   6.015  16.171 -1.0989  0.4007 -1.1329
14485TIP3    H264871   6.307   6.084  16.227  0.0810 -1.9156 -0.8293
14486TIP3   OH264872   5.304   4.980  13.811  0.2388  0.0581  0.3640
14486TIP3    H164873   5.306   4.891  13.776  2.7603  0.1616  0.1774
14486TIP3    H264874   5.252   5.030  13.748 -0.0237 -0.9800 -0.2536
14487TIP3   OH264875   3.205   4.137   2.852 -0.2121  0.2223 -0.4864
14487TIP3    H164876   3.295   4.120   2.878 -0.5743  2.0683  2.2216
14487TIP3    H264877   3.211   4.205   2.785  0.4629 -0.9982 -1.7059
14488TIP3   OH264878   5.741   2.287   3.374 -0.1632 -0.0459 -0.1843
14488TIP3    H164879   5.748   2.382   3.383  0.5362 -0.1686  0.5711
14488TIP3    H264880   5.713   2.274   3.283 -0.0466  0.8734 -0.3581
14489TIP3   OH264881   1.200   0.560  12.535 -0.1635  0.1657 -0.5214
14489TIP3    H164882   1.162   0.597  12.455  0.4059  1.4526 -0.2108
14489TIP3    H264883   1.226   0.636  12.587 -0.8744 -0.6514  1.0659
14490TIP3   OH264884   5.551   4.041   3.653 -0.6231  0.4096  0.6064
14490TIP3    H164885   5.516   4.067   3.738  1.5573 -0.2428  1.7414
14490TIP3    H264886   5.599   4.118   3.622 -1.3456  0.6189 -0.0179
14491TIP3   OH264887   5.648   1.414  15.046  0.1675 -0.1819  0.0308
14491TIP3    H164888   5.743   1.419  15.058  0.3169  0.2200 -1.2852
14491TIP3    H264889   5.636   1.353  14.973 -0.6221 -0.7170  0.5970
14492TIP3   OH264890   5.276   1.445   3.035 -0.2097 -0.2999 -0.3583
14492TIP3    H164891   5.342   1.380   3.059 -1.7304 -1.8203 -0.2007
14492TIP3    H264892   5.268   1.437   2.940 -0.3155 -0.2498 -0.3526
14493TIP3   OH264893   4.387   0.498   0.668  0.1384  0.4725  0.6706
14493TIP3    H164894   4.299   0.530   0.689 -0.7269 -0.1253 -1.8859
14493TIP3    H264895   4.426   0.568   0.615  1.4790  1.0303  2.3514
14494TIP3   OH264896   4.759   1.492  14.551 -0.3207  0.4194 -0.1135
14494TIP3    H164897   4.707   1.415  14.574  0.7153 -0.3441 -0.2895
14494TIP3    H264898   4.833   1.457  14.502  0.1572  1.5338 -0.2000
14495TIP3   OH264899   1.348   6.345  16.220 -0.2607 -0.4124 -0.2861
14495TIP3    H164900   1.411   6.416  16.236 -0.5740 -0.3788  0.8305
14495TIP3    H264901   1.394   6.286  16.160  0.3279  0.2975 -0.5512
14496TIP3   OH264902   6.087   1.284   3.116 -0.0776  0.4215  0.3916
14496TIP3    H164903   6.131   1.215   3.067  0.0047 -0.4478  1.6539
14496TIP3    H264904   6.157   1.325   3.168 -0.1370  1.4225 -0.2912
14497TIP3   OH264905   6.729   6.730   4.730 -0.3573 -0.3477  0.4830
14497TIP3    H164906   6.706   6.709   4.821 -0.3065 -2.2596  0.0754
14497TIP3    H264907   6.780   6.655   4.701  0.4286  0.6879 -0.8423
14498TIP3   OH264908   3.413   5.616   4.170  0.1932  0.2160 -0.5257
14498TIP3    H164909   3.342   5.555   4.188 -0.5588  1.5744  1.2570
14498TIP3    H264910   3.493   5.568   4.191 -0.3281 -0.5086 -0.2166
14499TIP3   OH264911   1.827   6.779   1.639 -0.2070  0.1783  0.6936
14499TIP3    H164912   1.835   6.769   1.734 -0.9747  1.0597  0.8539
14499TIP3    H264913   1.798   6.869   1.627 -2.7153 -0.7353 -0.2556
14500TIP3   OH264914   4.808   1.373  12.351  0.6262  0.3525  0.2828
14500TIP3    H164915   4.820   1.358  12.258 -0.8346 -1.5116  0.3508
14500TIP3    H264916   4.735   1.435  12.356 -1.4807 -2.0340  0.2013
14501TIP3   OH264917   5.906   5.364  14.812 -0.2240  0.1005  0.4058
14501TIP3    H164918   5.920   5.456  14.831 -0.5274  0.0778  0.7325
14501TIP3    H264919   5.949   5.317  14.884 -0.4625 -0.0054  0.4772
14502TIP3   OH264920   6.362   1.517  12.461 -0.3774  0.3556  0.1145
14502TIP3    H164921   6.270   1.540  12.456 -0.1187  1.1119 -1.8244
14502TIP3    H264922   6.383   1.481  12.374  0.7486 -1.3807  1.0712
14503TIP3   OH264923   1.209   2.331   0.436 -0.2456  0.1743  0.8135
14503TIP3    H164924   1.188   2.306   0.526 -0.9194 -1.0641  0.3214
14503TIP3    H264925   1.278   2.269   0.410 -1.5704 -0.8815 -0.2436
14504TIP3   OH264926   2.424   5.580   0.565  0.7601  0.4040  0.2346
14504TIP3    H164927   2.427   5.539   0.478  1.5708  0.8723  0.0430
14504TIP3    H264928   2.372   5.519   0.618 -0.1198  0.3349 -0.6871
14505TIP3   OH264929   5.449   5.728  15.621 -0.2387 -0.6231 -0.0962
14505TIP3    H164930   5.496   5.723  15.704 -0.4590 -2.4136 -0.0454
14505TIP3    H264931   5.411   5.640  15.611 -1.5577  0.0822 -1.2966
14506TIP3   OH264932   4.078   4.998  12.900 -0.3837 -0.4892 -0.0976
14506TIP3    H164933   4.102   5.083  12.937 -2.4828  0.1821 -0.2303
14506TIP3    H264934   4.046   5.019  12.812 -0.2482 -1.5174 -0.3939
14507TIP3   OH264935   2.324   4.402  13.063  0.0480 -0.0587  0.4680
14507TIP3    H164936   2.294   4.359  13.143 -0.7639 -1.3967 -0.5422
14507TIP3    H264937   2.259   4.380  12.998  0.6271  1.1561 -0.5490
14508TIP3   OH264938   4.146   0.491   3.218 -0.2290 -0.5167 -0.0666
14508TIP3    H164939   4.107   0.516   3.134 -0.8217 -0.2570  0.2756
14508TIP3    H264940   4.072   0.492   3.279  0.3094 -0.0786  0.5860
14509TIP3   OH264941   5.246   0.547  12.049 -0.1539  0.1551 -0.1902
14509TIP3    H164942   5.299   0.613  12.093 -0.4419 -0.4811  1.1146
14509TIP3    H264943   5.293   0.465  12.062  0.4093  0.1262 -2.1439
14510TIP3   OH264944   6.534   3.920  15.013 -0.1542 -0.0164 -0.4439
14510TIP3    H164945   6.493   3.893  15.095  0.0435  0.6502 -0.1210
14510TIP3    H264946   6.479   3.991  14.980  0.0828  0.0987 -0.5964
14511TIP3   OH264947   4.791   4.899   4.915  0.2017 -0.5620  0.0713
14511TIP3    H164948   4.725   4.969   4.922  0.3609 -0.2831 -1.0577
14511TIP3    H264949   4.869   4.935   4.955  0.8989  0.7283 -2.3098
14512TIP3   OH264950   6.459   0.995   1.324  0.4459 -0.0309 -0.2778
14512TIP3    H164951   6.464   1.075   1.271  1.1379 -0.3513 -0.7019
14512TIP3    H264952   6.466   1.026   1.414 -2.3709  0.6730 -0.2675
14513TIP3   OH264953   4.807   4.575  14.402 -0.6294  0.1949 -0.6987
14513TIP3    H164954   4.789   4.524  14.481 -1.7213  2.5325  0.6107
14513TIP3    H264955   4.898   4.604  14.413 -1.1085  1.3972  0.2495
14514TIP3   OH264956   4.035   4.118  12.913  0.0242 -0.1725 -0.4614
14514TIP3    H164957   4.081   4.172  12.848  0.1104  1.6120  1.0399
14514TIP3    H264958   4.104   4.075  12.962  0.0498  0.6456  0.2350
14515TIP3   OH264959   1.035   1.700   5.703 -0.1814 -0.3868  0.0544
14515TIP3    H164960   0.943   1.678   5.688  0.1831 -1.4030 -0.7179
14515TIP3    H264961   1.084   1.627   5.666  0.9675  0.4708 -0.1580
14516TIP3   OH264962   1.164   4.861   5.626 -0.0057 -0.4712  0.0940
14516TIP3    H164963   1.099   4.849   5.696 -1.2689  2.2758 -0.5486
14516TIP3    H264964   1.112   4.867   5.546  1.3723 -2.5763 -0.9811
14517TIP3   OH264965   1.975   2.730   1.866  0.0079  0.0576  0.3935
14517TIP3    H164966   2.041   2.800   1.861 -0.7221  0.9137  2.2689
14517TIP3    H264967   2.023   2.656   1.904  0.1402  0.3850  0.8810
14518TIP3   OH264968   5.917   3.471   0.290 -0.1376  0.4363  0.1902
14518TIP3    H164969   5.823   3.458   0.291  0.0023 -0.5679  2.2692
14518TIP3    H264970   5.943   3.473   0.382  2.3340 -2.8366 -0.3365
14519TIP3   OH264971   3.576   5.579  10.837  0.1779 -0.1270  0.0549
14519TIP3    H164972   3.529   5.510  10.789  0.4730 -0.7591  0.6678
14519TIP3    H264973   3.509   5.644  10.857 -0.7411 -1.6529  2.0903
14520TIP3   OH264974   4.605   5.541  15.724 -0.0889 -1.0623  0.1751
14520TIP3    H164975   4.558   5.466  15.686 -0.9290 -0.7174  0.5093
14520TIP3    H264976   4.537   5.592  15.767  0.2631  0.6571 -1.2398
14521TIP3   OH264977   1.533   2.185   1.084 -0.2092  0.0109 -0.5639
14521TIP3    H164978   1.536   2.103   1.134 -1.4870 -0.6571 -1.5533
14521TIP3    H264979   1.441   2.195   1.061 -0.2125  2.1773  0.2550
14522TIP3   OH264980   3.719   5.044   0.384 -0.5394 -0.3083  0.0876
14522TIP3    H164981   3.651   5.110   0.388 -0.6607 -0.4643  0.6992
14522TIP3    H264982   3.790   5.080   0.438 -0.2809 -0.3098 -0.2473
14523TIP3   OH264983   3.522   2.207   0.974  0.4387  0.6899  0.5545
14523TIP3    H164984   3.517   2.294   0.935  0.2026  0.2017 -0.5421
14523TIP3    H264985   3.435   2.191   1.010 -0.4236 -0.2299 -1.8085
14524TIP3   OH264986   4.037   3.223   2.111  0.1812 -0.0516 -0.0059
14524TIP3    H164987   4.018   3.231   2.204 -0.0498  0.4400 -0.0893
14524TIP3    H264988   3.966   3.168   2.076 -1.1770  1.8186 -0.3248
14525TIP3   OH264989   3.775   3.488  11.786 -0.4977 -0.2068  0.4863
14525TIP3    H164990   3.712   3.529  11.845  0.5737 -1.8308  2.8583
14525TIP3    H264991   3.853   3.542  11.791  0.0610 -1.0932  1.6723
14526TIP3   OH264992   1.155   2.214   4.812 -0.2044 -0.2394 -0.0297
14526TIP3    H164993   1.163   2.305   4.839  0.2708  0.2542 -1.7752
14526TIP3    H264994   1.061   2.198   4.809 -0.3114  0.5948 -1.0351
14527TIP3   OH264995   6.620   6.368   5.022  0.5172  0.4492  0.6348
14527TIP3    H164996   6.710   6.352   5.052  0.3503 -3.5732 -0.7102
14527TIP3    H264997   6.600   6.293   4.966 -1.9114  3.8204 -3.2868
14528TIP3   OH264998   0.734   3.082  13.504  0.3668  0.5568 -0.2507
14528TIP3    H164999   0.756   3.127  13.422  3.2912  0.2308  0.3085
14528TIP3    H265000   0.776   3.134  13.572  1.1820 -1.2981  0.6924
14529TIP3   OH265001   2.003   6.048  11.927  0.4076  0.3410  0.0098
14529TIP3    H165002   2.027   6.082  11.841  1.9383  0.4688  0.4751
14529TIP3    H265003   2.020   6.121  11.987  0.7703 -0.2331  0.6070
14530TIP3   OH265004   1.980   5.293   0.117 -0.4284 -0.9494 -0.6115
14530TIP3    H165005   2.016   5.360   0.175  1.4976  0.1466 -3.0006
14530TIP3    H265006   1.885   5.307   0.121 -0.1350  1.0994 -0.0941
14531TIP3   OH265007   0.612   4.504  11.460  0.1630  0.1398 -0.3190
14531TIP3    H165008   0.702   4.536  11.455  0.2009  0.1443  0.3345
14531TIP3    H265009   0.565   4.554  11.394  0.5428  0.4752 -0.3358
14532TIP3   OH265010   3.581   3.554  14.890  0.5048 -0.3532  0.1032
14532TIP3    H165011   3.559   3.465  14.864 -2.3591  0.7467 -1.4207
14532TIP3    H265012   3.575   3.553  14.986 -0.1448 -1.6234  0.0619
14533TIP3   OH265013   0.706   4.517   1.748  0.1909 -0.1673 -0.3158
14533TIP3    H165014   0.665   4.594   1.708 -0.9123 -1.1304 -1.0835
14533TIP3    H265015   0.745   4.470   1.674  1.4694  0.0062  0.2340
14534TIP3   OH265016   2.676   2.800   6.083  0.2039 -0.2606  0.2838
14534TIP3    H165017   2.689   2.837   6.170  0.4321  1.9574 -0.6748
14534TIP3    H265018   2.590   2.831   6.056  0.2240 -0.7674 -0.3778
14535TIP3   OH265019   0.600   4.011  12.275  0.5154 -0.7441  0.0679
14535TIP3    H165020   0.505   4.019  12.283  0.7808  1.5834  1.3596
14535TIP3    H265021   0.626   4.079  12.213  1.4809 -0.2422  0.9829
14536TIP3   OH265022   4.046   0.493  12.430  0.4756 -0.4758  0.2054
14536TIP3    H165023   4.141   0.494  12.435  0.5119  2.3187  0.1820
14536TIP3    H265024   4.017   0.538  12.509 -0.8506 -1.7997  0.4905
14537TIP3   OH265025   1.828   4.903  15.367 -0.2682 -0.1250 -0.2377
14537TIP3    H165026   1.866   4.972  15.312  0.8979  1.0867  2.0287
14537TIP3    H265027   1.744   4.939  15.396  0.3033  0.3364  0.8785
14538TIP3   OH265028   2.398   3.423   3.864  0.4225  0.0708  0.4370
14538TIP3    H165029   2.415   3.467   3.781 -2.0777 -0.4902 -0.4229
14538TIP3    H265030   2.443   3.340   3.857 -2.3068 -1.3276 -1.7246
14539TIP3   OH265031   4.810   3.452   2.527  0.0378 -0.2216 -0.3117
14539TIP3    H165032   4.799   3.501   2.446 -0.2787 -0.0062 -0.1397
14539TIP3    H265033   4.822   3.362   2.499 -3.2585 -0.6497 -0.4729
14540TIP3   OH265034   0.266   0.670   4.943 -0.4503 -0.7487 -0.2706
14540TIP3    H165035   0.251   0.603   5.011 -1.0205 -1.1912 -0.8309
14540TIP3    H265036   0.350   0.710   4.968  0.5631 -2.5758 -0.6640
14541TIP3   OH265037   4.794   4.001   1.021  0.4826 -0.3825 -0.0388
14541TIP3    H165038   4.701   4.019   1.004  1.1949  1.5590 -2.0120
14541TIP3    H265039   4.814   4.050   1.100 -0.0722 -0.5199  0.1907
14542TIP3   OH265040   2.020   0.610   1.077 -0.4582 -0.4537  0.4307
14542TIP3    H165041   1.941   0.660   1.097 -0.1406  0.9756 -1.7595
14542TIP3    H265042   2.090   0.655   1.125 -0.5543 -0.2346  0.3651
14543TIP3   OH265043   5.320   4.069  10.778 -0.4525  0.1453  0.0012
14543TIP3    H165044   5.393   4.024  10.737 -0.2046  0.0294  0.5619
14543TIP3    H265045   5.334   4.162  10.757 -0.1121  0.1298  0.1517
14544TIP3   OH265046   3.861   1.201  16.819 -0.6144  0.3642 -0.4075
14544TIP3    H165047   3.883   1.178  16.910  0.6326 -2.0330 -1.2783
14544TIP3    H265048   3.786   1.145  16.798 -0.2606  0.1705 -1.1724
14545TIP3   OH265049   3.784   5.170  10.759  0.7318 -0.2505  0.2698
14545TIP3    H165050   3.835   5.252  10.760 -0.6518  0.6269  0.2984
14545TIP3    H265051   3.697   5.196  10.788 -0.7841 -1.0171 -3.4060
14546TIP3   OH265052   4.810   0.308  15.257  0.0292 -0.1606  0.8435
14546TIP3    H165053   4.843   0.347  15.338  2.2901  0.7310 -0.4694
14546TIP3    H265054   4.716   0.297  15.273  0.2835  0.7754  3.2619
14547TIP3   OH265055   2.293   2.753   2.157  0.2655  0.2843  0.2272
14547TIP3    H165056   2.216   2.797   2.193 -1.0797 -2.7651  1.3211
14547TIP3    H265057   2.257   2.691   2.094  1.7669 -1.4148  0.9878
14548TIP3   OH265058   2.050   2.650   0.186  1.0558 -0.1583 -0.0678
14548TIP3    H165059   2.118   2.665   0.251 -0.2920  0.1646  1.2961
14548TIP3    H265060   1.984   2.598   0.231 -0.7681  1.6483 -0.5712
14549TIP3   OH265061   5.890   2.672   3.166 -0.3320  0.1961  0.1554
14549TIP3    H165062   5.894   2.763   3.195  0.7625  0.3325 -0.3883
14549TIP3    H265063   5.929   2.622   3.238 -0.2496  0.2352  0.1377
14550TIP3   OH265064   4.982   3.620  13.089  0.5746 -0.1596  0.9217
14550TIP3    H165065   4.929   3.571  13.026 -0.7987 -0.1745  2.0483
14550TIP3    H265066   4.995   3.706  13.049  1.1319 -0.7239 -0.1027
14551TIP3   OH265067   2.989   3.463  16.163 -0.5175  0.4934  0.0812
14551TIP3    H165068   3.002   3.532  16.098  3.6261 -0.1153  0.0968
14551TIP3    H265069   3.029   3.498  16.243  0.4826 -1.3745  0.4207
14552TIP3   OH265070   5.064   1.262  14.576  0.2520 -0.5244  0.5572
14552TIP3    H165071   5.077   1.356  14.560  1.6375 -1.1054 -2.0496
14552TIP3    H265072   5.132   1.239  14.639 -0.1170  0.2152  1.2334
14553TIP3   OH265073   0.360   6.212   5.324  0.2551  0.4162 -0.0426
14553TIP3    H165074   0.366   6.293   5.273 -1.3933  0.6292  0.0757
14553TIP3    H265075   0.448   6.200   5.360  0.6340  1.9165 -0.4247
14554TIP3   OH265076   5.802   3.512  15.300 -0.2608 -0.1951  0.3282
14554TIP3    H165077   5.735   3.487  15.364 -0.6689 -0.4692 -0.1901
14554TIP3    H265078   5.796   3.607  15.295 -0.8731 -0.2452  0.0158
14555TIP3   OH265079   4.369   4.782   5.587  0.2476 -0.5345 -1.0170
14555TIP3    H165080   4.332   4.740   5.664 -0.6346  1.9865 -0.0031
14555TIP3    H265081   4.459   4.749   5.583  0.2868 -0.7715  1.0439
14556TIP3   OH265082   3.255   3.281  13.711  0.4664 -0.3141  0.5915
14556TIP3    H165083   3.175   3.293  13.661 -0.6939 -2.6838  1.7831
14556TIP3    H265084   3.325   3.284  13.646 -0.6854  0.4098 -0.6383
14557TIP3   OH265085   3.515   3.422   2.592  0.4127  0.1025  0.0330
14557TIP3    H165086   3.423   3.401   2.575 -0.5607  3.2865  0.9930
14557TIP3    H265087   3.528   3.398   2.684  1.0174 -1.8149 -0.5356
14558TIP3   OH265088   3.332   3.377  17.037  0.0573 -0.4574  0.2455
14558TIP3    H165089   3.388   3.349  16.965  0.3785 -0.2122  0.3974
14558TIP3    H265090   3.378   3.452  17.076  1.1469 -2.1351  2.2795
14559TIP3   OH265091   4.853   3.523  15.701  0.0046 -0.1262 -0.3291
14559TIP3    H165092   4.931   3.579  15.697  0.5320 -0.7549  0.8751
14559TIP3    H265093   4.878   3.451  15.759 -2.0602  0.6072  1.5759
14560TIP3   OH265094   5.189   2.264  17.237 -0.2869 -0.4680  0.5233
14560TIP3    H165095   5.142   2.343  17.208  0.7589 -0.3621 -0.9726
14560TIP3    H265096   5.131   2.192  17.214 -0.2132 -0.2735 -0.2906
14561TIP3   OH265097   0.999   2.876  15.363  0.0167 -0.1131 -0.2350
14561TIP3    H165098   1.072   2.815  15.364 -0.9206 -1.2767 -0.8017
14561TIP3    H265099   1.010   2.926  15.283 -0.0102 -0.5580 -0.5204
14562TIP3   OH265100   5.242   5.863  16.040 -0.4343  0.1315  0.0567
14562TIP3    H165101   5.333   5.879  16.068  0.0382 -0.5526 -1.0423
14562TIP3    H265102   5.216   5.944  15.996 -0.0774  0.0493 -0.3145
14563TIP3   OH265103   2.574   1.994  14.819  0.0583 -0.0124  0.4938
14563TIP3    H165104   2.548   2.066  14.876  1.3820 -1.6222  3.2019
14563TIP3    H265105   2.567   1.916  14.874  2.3082 -1.4932 -1.2351
14564TIP3   OH265106   3.711   6.591   5.204 -0.1571 -0.3668  0.3172
14564TIP3    H165107   3.769   6.639   5.144 -0.8954  0.9747  0.6397
14564TIP3    H265108   3.760   6.584   5.286  0.4014 -1.1796 -0.0854
14565TIP3   OH265109   3.673   4.390   6.408 -0.0743 -0.7733  0.1119
14565TIP3    H165110   3.713   4.359   6.327 -1.8864 -2.0202 -0.3512
14565TIP3    H265111   3.715   4.339   6.477 -1.4950 -2.7832 -0.4545
14566TIP3   OH265112   3.936   1.248   2.193  0.1717  0.2003 -0.2746
14566TIP3    H165113   3.847   1.281   2.203 -0.7903 -1.5472 -2.4853
14566TIP3    H265114   3.971   1.295   2.118  0.5744 -0.1982 -0.3402
14567TIP3   OH265115   4.033   4.319   0.215  0.3537  0.0122 -0.2458
14567TIP3    H165116   4.107   4.330   0.274 -0.4042  0.2440  0.6631
14567TIP3    H265117   4.042   4.392   0.153  1.2511 -0.3400 -0.5496
14568TIP3   OH265118   4.824   4.551   3.040 -0.2449 -0.0045 -0.0520
14568TIP3    H165119   4.797   4.602   2.963  2.2202  1.5639  0.0894
14568TIP3    H265120   4.919   4.553   3.038 -0.1403 -0.3374  2.8093
14569TIP3   OH265121   4.049   5.861  11.671 -0.0283  0.2114 -0.2496
14569TIP3    H165122   3.976   5.799  11.668  1.9466 -2.2756  0.7360
14569TIP3    H265123   4.059   5.891  11.581 -0.5986 -1.4752 -0.8941
14570TIP3   OH265124   6.295   1.841   0.689 -0.5248  0.0888 -0.3005
14570TIP3    H165125   6.255   1.825   0.603 -0.3742  0.7787 -0.5042
14570TIP3    H265126   6.315   1.935   0.688 -3.3555  0.7712  1.6622
14571TIP3   OH265127   5.814   5.578   3.932  0.5428  0.5578 -0.0115
14571TIP3    H165128   5.891   5.625   3.900  0.3119  0.7681 -0.2602
14571TIP3    H265129   5.815   5.495   3.884  0.5925  0.5758 -0.0417
14572TIP3   OH265130   1.790   5.031   4.952  0.7232 -0.0016  0.3071
14572TIP3    H165131   1.725   4.980   4.999 -1.2545  1.0562 -1.2218
14572TIP3    H265132   1.783   5.000   4.861  1.5421  0.9470 -0.0833
14573TIP3   OH265133   6.251   3.003  15.784  0.2940 -0.2455 -0.2947
14573TIP3    H165134   6.156   3.005  15.771  0.1557  1.1108  0.8043
14573TIP3    H265135   6.279   3.093  15.769  1.2883 -0.4448  0.3274
14574TIP3   OH265136   6.405   6.611   2.791 -0.1942 -0.1283  0.2603
14574TIP3    H165137   6.466   6.641   2.859 -0.7503  0.8335  0.3480
14574TIP3    H265138   6.322   6.598   2.837  0.2393 -2.6917  0.3940
14575TIP3   OH265139   6.236   0.524   0.441 -0.1302 -0.1438  0.0424
14575TIP3    H165140   6.177   0.581   0.491  0.2131 -0.1540  0.4645
14575TIP3    H265141   6.193   0.438   0.443  0.8180 -0.5995  1.9702
14576TIP3   OH265142   1.473   6.162   3.480  0.1295  0.3353 -0.1232
14576TIP3    H165143   1.564   6.143   3.504  0.5918  1.1543 -1.1794
14576TIP3    H265144   1.479   6.202   3.393 -1.4005 -1.6183 -1.1902
14577TIP3   OH265145   5.040   0.662  15.338  0.3576 -0.1230  0.3930
14577TIP3    H165146   5.043   0.679  15.244  0.6810 -2.2948 -0.0276
14577TIP3    H265147   5.086   0.735  15.378  0.7633  0.5010 -1.1867
14578TIP3   OH265148   6.772   0.473   4.376  0.1414 -0.6383 -0.4542
14578TIP3    H165149   6.860   0.474   4.338 -0.0976 -0.4871 -1.0028
14578TIP3    H265150   6.730   0.552   4.343 -0.1502 -0.6300 -0.0700
14579TIP3   OH265151   4.880   0.810  13.357 -0.0758  0.1716  0.2220
14579TIP3    H165152   4.890   0.881  13.420 -0.8380  0.1360  0.3867
14579TIP3    H265153   4.856   0.734  13.409 -1.6330  0.3572 -0.1886
14580TIP3   OH265154   3.409   0.386   4.522  0.3539  0.7211  0.8490
14580TIP3    H165155   3.380   0.426   4.440  0.8227 -0.6303  0.0010
14580TIP3    H265156   3.329   0.353   4.563  0.1799  0.9010  0.6517
14581TIP3   OH265157   1.932   6.252  16.071  0.7793 -0.0276 -0.3923
14581TIP3    H165158   1.918   6.326  16.013  0.2161  0.2627  0.1010
14581TIP3    H265159   1.845   6.235  16.109  0.9666 -0.7421 -0.2760
14582TIP3   OH265160   3.045   1.549   2.228 -0.5637  0.2013  0.2315
14582TIP3    H165161   2.953   1.563   2.206 -0.4714 -0.1824 -0.4031
14582TIP3    H265162   3.091   1.619   2.182 -0.4861  0.1089  0.1708
14583TIP3   OH265163   1.538   6.595  12.761  0.3110  0.0080 -0.1075
14583TIP3    H165164   1.508   6.506  12.782  0.4130  0.2416  1.0659
14583TIP3    H265165   1.574   6.588  12.673  1.5394 -1.4181  0.4849
14584TIP3   OH265166   2.906   6.664  15.277 -0.6062  0.4325  0.1455
14584TIP3    H165167   2.965   6.732  15.244  0.8749 -1.5485 -1.4496
14584TIP3    H265168   2.908   6.674  15.372  1.6798  0.9251  0.0737
14585TIP3   OH265169   1.465   0.664  15.096 -0.2213 -0.6575  0.6018
14585TIP3    H165170   1.450   0.650  15.002 -0.3039  1.4909  0.2626
14585TIP3    H265171   1.389   0.623  15.138 -0.0476 -1.8804 -0.2459
14586TIP3   OH265172   5.177   1.152  15.622  0.3081 -0.1551  0.4768
14586TIP3    H165173   5.161   1.062  15.651  0.1832 -0.5507 -0.7717
14586TIP3    H265174   5.124   1.160  15.543  2.1332  0.2797 -0.7112
14587TIP3   OH265175   0.213   0.170   2.094 -0.5133  0.5863  0.0191
14587TIP3    H165176   0.295   0.126   2.071 -0.3403  0.9049  0.0147
14587TIP3    H265177   0.234   0.218   2.174 -0.6902  0.6869  0.0046
14588TIP3   OH265178   2.346   6.510   3.453  0.4078 -0.0787  0.0669
14588TIP3    H165179   2.272   6.450   3.444 -0.1425  0.4349  1.0514
14588TIP3    H265180   2.352   6.554   3.368  0.1459 -0.7703 -0.3079
14589TIP3   OH265181   3.864   2.912  14.314  0.0863 -0.2422 -0.6135
14589TIP3    H165182   3.814   2.873  14.243 -1.2471  2.0601 -1.0106
14589TIP3    H265183   3.798   2.954  14.369  1.5014  2.5523 -0.9468
14590TIP3   OH265184   5.830   4.574   2.533  0.1958 -0.4477  0.3124
14590TIP3    H165185   5.789   4.616   2.609  1.1334 -2.3714  1.9496
14590TIP3    H265186   5.919   4.609   2.531  0.4772 -1.1323  0.7081
14591TIP3   OH265187   2.079   1.125  11.205  0.1080 -0.1113  0.6193
14591TIP3    H165188   2.014   1.056  11.220  0.0443  0.1557  1.6055
14591TIP3    H265189   2.093   1.125  11.110 -1.6189  0.0900  0.3465
14592TIP3   OH265190   2.247   5.401  10.989 -0.7036 -0.4378  0.9289
14592TIP3    H165191   2.192   5.323  10.985  1.8685 -2.3905  2.0947
14592TIP3    H265192   2.266   5.422  10.898  1.1493 -3.0991  0.6662
14593TIP3   OH265193   4.106   5.647  14.023 -0.2308  0.1196 -0.1259
14593TIP3    H165194   4.185   5.688  14.056  1.4118 -1.9058 -1.4263
14593TIP3    H265195   4.137   5.578  13.964 -2.9301 -1.4361  0.1791
14594TIP3   OH265196   0.985   5.312  12.793  0.0654  0.1895  0.6546
14594TIP3    H165197   0.897   5.303  12.829 -0.2873 -0.5345 -0.3701
14594TIP3    H265198   0.973   5.366  12.714  0.3330 -1.0104 -0.2238
14595TIP3   OH265199   6.319   1.758   2.064 -0.1160 -0.6248 -0.6161
14595TIP3    H165200   6.331   1.791   1.976  1.9621  1.5107  0.4176
14595TIP3    H265201   6.260   1.821   2.106 -1.6677 -2.0064 -0.6406
14596TIP3   OH265202   3.403   0.039  12.299  0.0061  0.0188 -0.1099
14596TIP3    H165203   3.495   0.054  12.279 -0.1390 -1.1540 -1.7868
14596TIP3    H265204   3.400  -0.051  12.330 -0.7615 -0.4819 -1.5568
14597TIP3   OH265205   5.651   1.184  14.900 -0.8419  0.5975  0.1820
14597TIP3    H165206   5.569   1.149  14.864 -0.5885 -0.3204  0.4708
14597TIP3    H265207   5.719   1.145  14.845 -0.4895 -0.2720  1.2279
14598TIP3   OH265208   1.363   5.222  11.063  0.6650  0.4825 -0.3170
14598TIP3    H165209   1.305   5.298  11.068 -1.2492 -1.0027  0.9088
14598TIP3    H265210   1.377   5.207  10.970 -1.5788  0.4078 -0.6616
14599TIP3   OH265211   1.491   3.320  15.394 -0.0082  0.1542  0.0288
14599TIP3    H165212   1.498   3.230  15.424 -1.0808 -0.1700 -0.6325
14599TIP3    H265213   1.540   3.322  15.312  0.5435  0.3368  0.3586
14600TIP3   OH265214   6.389   3.097  13.856  0.2133  0.1131 -0.0473
14600TIP3    H165215   6.435   3.107  13.939  1.1629 -1.5310 -0.3561
14600TIP3    H265216   6.340   3.178  13.846 -0.5260  0.0297  2.4962
14601TIP3   OH265217   1.741   3.956   3.847 -0.0064 -0.4381  0.4133
14601TIP3    H165218   1.793   3.931   3.771  1.5462 -1.4587  1.7779
14601TIP3    H265219   1.679   3.883   3.859  0.0662 -0.5012  0.4048
14602TIP3   OH265220   3.633   3.929   6.580  0.8009  0.3711 -0.2597
14602TIP3    H165221   3.700   3.989   6.615 -0.1368  1.0830  0.3376
14602TIP3    H265222   3.675   3.843   6.582  2.5567  1.1433 -2.1367
14603TIP3   OH265223   4.799   3.361  11.755  0.1977 -0.2158 -0.4368
14603TIP3    H165224   4.876   3.315  11.719 -0.8468 -1.9069 -0.5467
14603TIP3    H265225   4.825   3.384  11.844  0.5443 -1.5032 -0.1907
14604TIP3   OH265226   5.274   3.839   0.624 -0.0619  0.1052 -0.3747
14604TIP3    H165227   5.364   3.860   0.650  0.2087 -0.4854 -0.8135
14604TIP3    H265228   5.282   3.757   0.575 -1.0966 -1.0187  1.2917
14605TIP3   OH265229   0.259   3.794  13.079 -0.0122 -0.1516 -0.1693
14605TIP3    H165230   0.276   3.704  13.107  0.9054 -0.4541 -1.6085
14605TIP3    H265231   0.346   3.832  13.068 -0.4037  1.3532  1.7305
14606TIP3   OH265232   1.862   4.330  11.963 -0.1207 -0.1179 -0.1585
14606TIP3    H165233   1.877   4.243  11.926 -4.4070 -0.9171 -0.1941
14606TIP3    H265234   1.862   4.316  12.057  0.8097  0.1417 -0.1185
14607TIP3   OH265235   0.603   3.835   1.872 -0.2189 -0.0938 -0.4158
14607TIP3    H165236   0.613   3.765   1.808 -0.6033 -0.6120  0.0805
14607TIP3    H265237   0.530   3.806   1.927  2.1350 -1.2013  2.2257
14608TIP3   OH265238   3.213   3.097  16.169 -0.0670 -0.4356  0.4142
14608TIP3    H165239   3.231   3.008  16.138  1.8409 -0.2210  0.8334
14608TIP3    H265240   3.291   3.147  16.145 -1.0440  1.0812  0.3656
14609TIP3   OH265241   2.675   1.567  15.590  0.1044  0.9646  0.1812
14609TIP3    H165242   2.737   1.609  15.651 -2.0450  1.1035  2.3442
14609TIP3    H265243   2.594   1.617  15.601 -1.1516 -0.8565 -0.6640
14610TIP3   OH265244   5.070   5.296  13.069 -0.0714  0.5611  0.4405
14610TIP3    H165245   5.117   5.214  13.077  1.5368  0.9331 -3.8391
14610TIP3    H265246   4.980   5.271  13.046  0.0254  0.0002  0.6788
14611TIP3   OH265247   2.646   0.356   5.131  0.2679  0.0156 -0.2851
14611TIP3    H165248   2.556   0.353   5.097 -0.3641 -1.0727  1.4179
14611TIP3    H265249   2.641   0.417   5.204  0.5648 -1.2490  0.8016
14612TIP3   OH265250   6.112   1.034  16.128  0.8490  0.3775  0.0893
14612TIP3    H165251   6.093   1.078  16.045  1.5999  0.0849 -0.2465
14612TIP3    H265252   6.178   1.089  16.170  0.2862  0.6604  0.6186
14613TIP3   OH265253   6.302   3.643  15.814  0.5621  0.2970  0.3775
14613TIP3    H165254   6.392   3.613  15.800  1.3682  2.7352  0.1342
14613TIP3    H265255   6.304   3.737  15.794 -2.3834  0.0933 -1.1571
14614TIP3   OH265256   1.700   4.556  13.541 -0.7821  0.2833 -0.4984
14614TIP3    H165257   1.719   4.579  13.632  1.5858 -0.2455 -0.8359
14614TIP3    H265258   1.644   4.478  13.548 -2.6872  1.6798  0.4999
14615TIP3   OH265259   3.384   4.757   5.252  0.0811 -0.2073  0.1582
14615TIP3    H165260   3.454   4.734   5.191  0.4391  1.3792 -0.0574
14615TIP3    H265261   3.423   4.748   5.339  0.3323 -0.0633  0.0614
14616TIP3   OH265262   0.780   4.492  10.636  0.6144  0.2590  0.8901
14616TIP3    H165263   0.760   4.399  10.642  0.4895  0.3888  2.7404
14616TIP3    H265264   0.739   4.520  10.554  2.1364 -1.6671 -0.5730
14617TIP3   OH265265   0.825   0.529  14.190  0.1679  0.0078 -0.1878
14617TIP3    H165266   0.867   0.523  14.104  0.2900 -0.1102 -0.1214
14617TIP3    H265267   0.855   0.612  14.226  2.2916 -1.1680  0.8669
14618TIP3   OH265268   2.349   1.388   3.988  0.0696  0.4913  0.0645
14618TIP3    H165269   2.323   1.415   3.900  0.4649  1.6403  0.3011
14618TIP3    H265270   2.336   1.466   4.042  1.6742  0.3601  0.6594
14619TIP3   OH265271   5.894   0.575  12.616  0.3669  0.1412 -0.0715
14619TIP3    H165272   5.799   0.575  12.629  0.3576  1.0063 -0.1127
14619TIP3    H265273   5.914   0.662  12.583  0.9032 -0.7228 -2.1345
14620TIP3   OH265274   6.287   4.560  14.126 -0.1385  0.3732  0.0957
14620TIP3    H165275   6.194   4.581  14.118 -0.6288 -1.5642  0.4251
14620TIP3    H265276   6.326   4.639  14.164 -1.5993  1.3012 -0.2944
14621TIP3   OH265277   5.064   1.947  11.607 -0.1415  0.5226  0.1687
14621TIP3    H165278   4.968   1.939  11.603 -0.3569  2.4025  1.0048
14621TIP3    H265279   5.095   1.908  11.526 -1.7823  2.1596 -1.2895
14622TIP3   OH265280   0.075   2.917   2.873 -0.2171 -0.8321 -0.0441
14622TIP3    H165281   0.160   2.921   2.915  0.9633  2.0941 -2.5709
14622TIP3    H265282   0.081   2.841   2.815  0.7275 -0.5144 -0.3655
14623TIP3   OH265283   6.053   5.234   3.574 -0.3998  0.2460 -0.3828
14623TIP3    H165284   6.104   5.229   3.493 -1.3900 -0.5709 -0.9615
14623TIP3    H265285   6.092   5.168   3.631  1.3032  1.8823  0.3998
14624TIP3   OH265286   4.265   6.445  16.796  0.0535  0.1581 -0.2253
14624TIP3    H165287   4.334   6.511  16.788  1.5009 -0.8101  3.3419
14624TIP3    H265288   4.191   6.492  16.835  0.1639  0.2298 -0.1055
14625TIP3   OH265289   5.908   2.949  15.215 -0.2684 -0.1794  0.2134
14625TIP3    H165290   5.866   2.874  15.258  1.1189 -0.2193  1.5416
14625TIP3    H265291   5.903   2.929  15.122  0.5075 -2.1655  0.5647
14626TIP3   OH265292   0.157   6.403  13.008  0.2351 -0.0050 -0.6136
14626TIP3    H165293   0.140   6.430  13.098  0.6265  1.1277 -0.8663
14626TIP3    H265294   0.169   6.308  13.013  1.7558  0.2341  0.7521
14627TIP3   OH265295   6.629   1.447   4.124  0.4613 -0.4801  0.1141
14627TIP3    H165296   6.646   1.488   4.209 -1.6277 -0.0638  0.3668
14627TIP3    H265297   6.636   1.519   4.061 -0.1308 -0.3415  0.2002
14628TIP3   OH265298   0.270   4.695   1.563  0.1907  0.1515  0.4384
14628TIP3    H165299   0.275   4.674   1.470 -3.3335 -2.1434  0.6609
14628TIP3    H265300   0.340   4.644   1.603 -0.5921 -1.7388 -0.5391
14629TIP3   OH265301   1.215   6.639   2.116  0.1727 -0.2802  0.0203
14629TIP3    H165302   1.298   6.643   2.069 -0.0967 -0.4958 -0.4794
14629TIP3    H265303   1.227   6.696   2.192  0.8152 -0.4036  0.0117
14630TIP3   OH265304   1.450   0.232   6.251  0.0747 -1.1441  0.3321
14630TIP3    H165305   1.463   0.138   6.234  0.5649 -0.6395 -2.2507
14630TIP3    H265306   1.387   0.234   6.323  1.6680 -3.4691  1.8999
14631TIP3   OH265307   2.147   4.864   0.757  0.1109 -0.5200 -0.4885
14631TIP3    H165308   2.078   4.896   0.699  1.5723  2.0476 -0.9038
14631TIP3    H265309   2.101   4.812   0.823 -1.9937 -0.3586 -1.7839
14632TIP3   OH265310   5.703   2.548  14.379 -1.0381 -0.7297 -0.8930
14632TIP3    H165311   5.667   2.635  14.361 -1.3892 -0.2430  2.0242
14632TIP3    H265312   5.663   2.522  14.462  1.8286 -2.1426  0.0998
14633TIP3   OH265313   1.666   5.365   6.202 -0.3122  0.5308 -0.2728
14633TIP3    H165314   1.574   5.387   6.212 -0.3776 -0.1870  0.8312
14633TIP3    H265315   1.700   5.364   6.292  0.7020  0.5158 -0.6527
14634TIP3   OH265316   1.620   2.732  17.158 -0.0044 -0.5302  0.6311
14634TIP3    H165317   1.709   2.765  17.145 -0.9352  1.6803 -0.3700
14634TIP3    H265318   1.598   2.758  17.248 -0.0182 -0.1983  0.5312
14635TIP3   OH265319   3.525   4.905  15.296 -0.0728  0.0788 -0.1105
14635TIP3    H165320   3.562   4.969  15.236  1.1780  0.1826  0.7616
14635TIP3    H265321   3.590   4.897  15.367 -1.9142  0.6238  1.6945
14636TIP3   OH265322   6.108   5.774  16.535 -0.3849  0.7178 -0.1985
14636TIP3    H165323   6.127   5.712  16.606  1.3660  0.2093 -1.0662
14636TIP3    H265324   6.061   5.845  16.577  1.6714  1.0055  1.7323
14637TIP3   OH265325   3.113   0.933   2.790 -0.3607  0.1605  0.0587
14637TIP3    H165326   3.080   0.856   2.743  0.9257 -0.4416  0.1246
14637TIP3    H265327   3.149   0.898   2.871 -0.2491  0.9002  0.3287
14638TIP3   OH265328   0.167   0.861   6.268 -1.3720  0.3647  0.4484
14638TIP3    H165329   0.083   0.890   6.232 -1.6524 -0.4834  0.4198
14638TIP3    H265330   0.185   0.924   6.338 -0.8387  1.9919 -1.1259
14639TIP3   OH265331   0.645   3.645   0.534  0.5650 -1.0309  0.2741
14639TIP3    H165332   0.679   3.556   0.530  0.7264 -0.9965  0.8253
14639TIP3    H265333   0.599   3.657   0.451  0.2630 -1.7388  0.3325
14640TIP3   OH265334   3.902   6.499   5.975 -0.1026  0.3452 -0.1505
14640TIP3    H165335   3.867   6.412   5.996  1.2882 -0.2186 -0.1121
14640TIP3    H265336   3.924   6.493   5.882 -0.8539  0.9685 -0.3789
14641TIP3   OH265337   5.360   6.638   4.482  0.1533 -0.1060 -0.0431
14641TIP3    H165338   5.383   6.545   4.489  0.9297 -0.0887 -2.1510
14641TIP3    H265339   5.270   6.642   4.516 -0.2341 -1.7815 -0.7969
14642TIP3   OH265340   0.067   1.193   1.736  0.0495 -0.2530 -0.6578
14642TIP3    H165341   0.161   1.178   1.737  0.0790  0.0083  0.1700
14642TIP3    H265342   0.048   1.241   1.816 -0.5408  1.2481 -1.6565
14643TIP3   OH265343   1.641   6.692  15.837  0.6528  0.2123  0.1354
14643TIP3    H165344   1.661   6.784  15.821 -2.3590  0.9098  0.1116
14643TIP3    H265345   1.582   6.668  15.765  1.4781 -1.7862  0.0888
14644TIP3   OH265346   0.216   3.569   4.155  0.4599 -0.2404 -0.6586
14644TIP3    H165347   0.271   3.524   4.090 -3.5883 -2.1803 -2.9249
14644TIP3    H265348   0.176   3.641   4.107 -0.6794 -0.1919  0.3334
14645TIP3   OH265349   5.919   1.811  13.848 -0.4827  0.4109 -0.1573
14645TIP3    H165350   5.899   1.738  13.789 -0.2676 -0.4461  0.8242
14645TIP3    H265351   5.835   1.832  13.890  0.3060 -2.3857  3.0530
14646TIP3   OH265352   3.132   6.534   5.061  0.3647 -0.0212  0.3615
14646TIP3    H165353   3.056   6.504   5.112 -0.0249 -0.5243 -0.5070
14646TIP3    H265354   3.207   6.492   5.102  0.0249 -0.6434  0.3494
14647TIP3   OH265355   1.438   3.943  15.228 -0.1706  0.7835  0.4763
14647TIP3    H165356   1.472   3.879  15.290 -0.8576  0.8393  0.9092
14647TIP3    H265357   1.386   3.892  15.166  0.7938  0.6792 -0.2674
14648TIP3   OH265358   5.618   6.690   3.215  0.1467  0.0976  0.5373
14648TIP3    H165359   5.528   6.658   3.209  0.6573 -1.3283  0.2898
14648TIP3    H265360   5.609   6.785   3.224 -1.3620  0.0154  0.0552
14649TIP3   OH265361   4.361   5.468   4.999 -0.4122  0.1223  0.4148
14649TIP3    H165362   4.331   5.503   5.083 -1.6503 -0.1868  0.1116
14649TIP3    H265363   4.288   5.482   4.939  0.1248 -0.4613 -0.3951
14650TIP3   OH265364   0.754   1.638   5.349 -0.4218 -0.6143  0.2712
14650TIP3    H165365   0.833   1.587   5.330  0.5982  0.6996  0.8962
14650TIP3    H265366   0.744   1.630   5.444 -1.8223 -1.8900  0.0233
14651TIP3   OH265367   5.744   4.805  15.020  1.1031 -0.0512  0.5962
14651TIP3    H165368   5.685   4.813  15.095  1.4592 -2.0857  1.1196
14651TIP3    H265369   5.742   4.892  14.979  0.3699  0.8906  2.5432
14652TIP3   OH265370   2.326   3.246  14.812  0.1034  0.8848  0.2423
14652TIP3    H165371   2.299   3.158  14.839  1.5889 -0.0511 -1.2844
14652TIP3    H265372   2.347   3.290  14.895  0.9507 -0.7416  0.9272
14653TIP3   OH265373   2.828   1.706  16.863  0.5565 -0.1698  0.3473
14653TIP3    H165374   2.831   1.801  16.870 -0.6615 -0.0484 -0.4878
14653TIP3    H265375   2.740   1.683  16.893  0.2505 -0.8643 -1.0392
14654TIP3   OH265376   5.799   4.634   0.911  0.0679 -0.0300  0.5290
14654TIP3    H165377   5.883   4.635   0.866  0.3805 -0.5885  1.0823
14654TIP3    H265378   5.785   4.725   0.937  0.1668  0.1867 -0.1672
14655TIP3   OH265379   5.538   5.871  16.062  0.3517  0.0779  0.2437
14655TIP3    H165380   5.541   5.848  15.969 -0.9268 -1.2615  0.5006
14655TIP3    H265381   5.627   5.855  16.094  0.9293  1.0528 -0.8611
14656TIP3   OH265382   0.080   6.184  14.355 -0.2242  0.2139  0.4868
14656TIP3    H165383   0.138   6.259  14.371 -0.9598  1.1426 -0.9780
14656TIP3    H265384   0.005   6.222  14.308  0.6654 -1.8496 -2.7848
14657TIP3   OH265385   3.288   4.958   0.999 -0.1373 -0.2466 -0.1408
14657TIP3    H165386   3.358   4.935   1.060 -0.1120  0.7717  0.2159
14657TIP3    H265387   3.330   5.010   0.931 -0.3298 -0.6403 -0.5697
14658TIP3   OH265388   4.636   2.003  16.562 -0.2226  0.3302 -0.0879
14658TIP3    H165389   4.540   2.007  16.562 -0.1799  2.8797  2.7067
14658TIP3    H265390   4.664   2.094  16.550  1.7713  0.2282  3.2322
14659TIP3   OH265391   5.504   0.264  12.683 -0.1587  0.3639 -0.3843
14659TIP3    H165392   5.528   0.226  12.767  0.5470 -0.5520 -0.9894
14659TIP3    H265393   5.450   0.340  12.705 -2.4038 -1.5305  0.8294
14660TIP3   OH265394   2.703   0.620  13.880 -0.1533 -0.3483  0.5290
14660TIP3    H165395   2.718   0.547  13.820 -2.5844  1.1947 -2.1008
14660TIP3    H265396   2.648   0.583  13.949 -0.9662 -1.1589 -0.5221
14661TIP3   OH265397   4.252   2.400  11.783  0.2527  0.4278 -0.1439
14661TIP3    H165398   4.229   2.384  11.692 -0.8875 -2.0604  0.5433
14661TIP3    H265399   4.253   2.496  11.792  0.0983  0.6818 -2.6632
14662TIP3   OH265400   0.025   4.203   5.013 -0.0605 -0.3380  0.5263
14662TIP3    H165401  -0.024   4.199   4.931 -1.8956  1.1258  1.5133
14662TIP3    H265402   0.081   4.280   5.004  0.1750 -0.5253  0.4036
14663TIP3   OH265403   5.177   2.359  16.268 -0.6661 -0.3383  0.0891
14663TIP3    H165404   5.212   2.275  16.298  0.5966  0.2046  0.1940
14663TIP3    H265405   5.159   2.408  16.349  1.4455  0.6084  0.0177
14664TIP3   OH265406   1.715   6.523   1.585 -0.5498 -0.1103  0.0660
14664TIP3    H165407   1.680   6.578   1.515  0.3530 -0.0474 -0.3411
14664TIP3    H265408   1.769   6.582   1.637 -1.6583 -0.0271  1.1598
14665TIP3   OH265409   5.066   5.463  15.539  0.4462  0.4520  0.1072
14665TIP3    H165410   5.012   5.532  15.579 -0.5702 -0.3138  0.0724
14665TIP3    H265411   5.088   5.498  15.453  1.4258  1.4896  0.7686
14666TIP3   OH265412   4.299   4.216   3.195 -0.1308 -0.3333  0.0642
14666TIP3    H165413   4.339   4.255   3.118 -1.2469  0.3652 -0.1629
14666TIP3    H265414   4.345   4.256   3.269  0.2399 -0.2531 -0.2109
14667TIP3   OH265415   0.854   4.231  14.150  0.3784 -0.5482 -0.0417
14667TIP3    H165416   0.886   4.263  14.066  3.7923  2.6579  2.3114
14667TIP3    H265417   0.776   4.282  14.168 -1.5082 -2.6273 -2.0868
14668TIP3   OH265418   4.710   2.030   4.199  0.1701  0.6119 -0.4058
14668TIP3    H165419   4.671   2.063   4.119  0.5230  1.0668 -0.3908
14668TIP3    H265420   4.785   1.979   4.170 -1.7813 -2.2782 -0.5960
14669TIP3   OH265421   5.411   4.751  14.776  0.3431  0.5051  0.0644
14669TIP3    H165422   5.339   4.789  14.725  0.8549  1.8750  0.3534
14669TIP3    H265423   5.367   4.699  14.844 -0.3463 -0.5300 -1.1521
14670TIP3   OH265424   1.495   4.805  15.179  0.2789  0.7728  0.4629
14670TIP3    H165425   1.448   4.755  15.246  0.8998 -1.2253 -0.5766
14670TIP3    H265426   1.434   4.809  15.105  0.9150  0.0563 -0.0961
14671TIP3   OH265427   4.234   2.271   5.825  0.0542 -0.4052  0.3264
14671TIP3    H165428   4.315   2.293   5.870  1.0625 -2.1289 -0.6054
14671TIP3    H265429   4.207   2.187   5.862 -3.1523  1.6825  3.0289
14672TIP3   OH265430   2.942   4.715   2.249 -0.3487  0.3825  0.4631
14672TIP3    H165431   2.895   4.779   2.196 -0.3305  1.8082  2.1274
14672TIP3    H265432   2.952   4.757   2.334  1.4877 -1.0152  0.9701
14673TIP3   OH265433   4.278   5.974  16.039  0.4446  0.6115 -0.0064
14673TIP3    H165434   4.247   5.975  15.948 -0.3114  0.5202  0.2471
14673TIP3    H265435   4.317   5.887  16.050  1.7817  1.1176 -0.6512
14674TIP3   OH265436   0.477   3.762  15.403 -0.2561  0.0832  0.2345
14674TIP3    H165437   0.397   3.813  15.391 -1.9826 -2.4903  0.4601
14674TIP3    H265438   0.478   3.700  15.329  1.3817 -0.1195  0.3930
14675TIP3   OH265439   5.892   4.486   5.383  0.6587 -0.2144  0.1040
14675TIP3    H165440   5.980   4.524   5.383  0.4910  0.2427  2.3964
14675TIP3    H265441   5.891   4.429   5.306  2.8477  0.0303 -0.1419
14676TIP3   OH265442   1.826   2.391  11.971  0.1066  0.2095  0.4975
14676TIP3    H165443   1.758   2.385  12.038  0.2066  0.0143  0.5821
14676TIP3    H265444   1.837   2.485  11.956 -2.1156  0.1854 -1.4740
14677TIP3   OH265445   0.836   0.402  12.322  0.3450  0.1255  0.2190
14677TIP3    H165446   0.793   0.325  12.359 -0.2742  0.3432 -0.0314
14677TIP3    H265447   0.821   0.471  12.388  1.5353 -0.1498  0.7852
14678TIP3   OH265448   0.592   1.821   5.428 -0.2429  0.4019 -0.0536
14678TIP3    H165449   0.578   1.782   5.514 -1.0002  0.4996 -0.1324
14678TIP3    H265450   0.643   1.755   5.380  0.3925  0.4541  0.5508
14679TIP3   OH265451   5.206   5.628   2.670  0.1352 -0.3573 -0.1205
14679TIP3    H165452   5.270   5.680   2.622 -1.4503 -0.2665 -2.1937
14679TIP3    H265453   5.126   5.633   2.617 -1.5278 -0.6637  2.2872
14680TIP3   OH265454   5.311   0.588   0.872 -0.2541  0.7859  0.2888
14680TIP3    H165455   5.341   0.503   0.839 -1.2756 -0.8131  3.2405
14680TIP3    H265456   5.273   0.631   0.795 -1.3875 -2.2159 -0.9338
14681TIP3   OH265457   0.638   2.308  15.227  0.0094  0.0530  0.1685
14681TIP3    H165458   0.669   2.231  15.275  1.0979  0.4701  0.1504
14681TIP3    H265459   0.640   2.281  15.135 -0.4863 -0.1979  0.2320
14682TIP3   OH265460   1.126   5.824  14.387 -0.6107  0.0165  0.7773
14682TIP3    H165461   1.056   5.888  14.399  0.0104  1.0267 -0.7798
14682TIP3    H265462   1.082   5.740  14.378 -1.4962  0.3623  1.8002
14683TIP3   OH265463   3.583   3.128  11.217  0.2118  0.4246  0.4087
14683TIP3    H165464   3.490   3.142  11.235 -0.4177 -1.5280 -1.1185
14683TIP3    H265465   3.598   3.171  11.133  1.1089  2.1451  1.4193
14684TIP3   OH265466   4.582   1.845  11.311  0.0183  0.2586  0.1228
14684TIP3    H165467   4.657   1.800  11.350  0.2274  0.0580 -0.5074
14684TIP3    H265468   4.597   1.839  11.217 -0.6889  0.3981  0.0022
14685TIP3   OH265469   3.945   2.492   3.091  0.3043 -0.1288  0.3132
14685TIP3    H165470   3.981   2.454   3.010 -0.2425  2.2284 -1.0982
14685TIP3    H265471   4.017   2.486   3.154  1.4570 -0.0729 -0.9739
14686TIP3   OH265472   4.096   5.712   2.432  0.1529 -0.3767 -0.4291
14686TIP3    H165473   4.070   5.706   2.524  1.7590 -1.1741 -0.0194
14686TIP3    H265474   4.022   5.675   2.384 -0.7370  0.1264  0.5121
14687TIP3   OH265475   1.001   0.251  15.423 -0.2276 -0.3405 -0.4483
14687TIP3    H165476   1.047   0.193  15.363 -0.1010 -1.7419  0.9508
14687TIP3    H265477   1.007   0.207  15.508 -1.9663  0.6866  0.2466
14688TIP3   OH265478   6.008   2.324  16.368  0.2402 -1.1701  0.2128
14688TIP3    H165479   5.998   2.229  16.371  1.6993 -1.3857 -0.9919
14688TIP3    H265480   6.025   2.343  16.276  3.1463 -0.0931  0.9169
14689TIP3   OH265481   2.271   4.535   3.586  0.3395 -0.0508  0.0115
14689TIP3    H165482   2.218   4.461   3.556  0.0731 -1.1297  3.0149
14689TIP3    H265483   2.361   4.509   3.570  0.2252 -0.8150  0.6067
14690TIP3   OH265484   5.984   6.493  15.408 -0.1142  0.2495 -0.5202
14690TIP3    H165485   5.981   6.421  15.470  2.6184  1.2251  0.8080
14690TIP3    H265486   5.978   6.572  15.462  1.3093  1.0963 -1.5707
14691TIP3   OH265487   1.923   4.666  14.289 -0.0570 -0.4516  0.2973
14691TIP3    H165488   1.970   4.633  14.212 -3.0443 -2.0166 -0.9781
14691TIP3    H265489   1.852   4.603  14.302 -0.1723  0.2851  3.8264
14692TIP3   OH265490   0.151   6.190  15.744 -0.0526 -0.1171  0.1230
14692TIP3    H165491   0.185   6.143  15.819 -0.6364 -0.1017  0.4055
14692TIP3    H265492   0.160   6.283  15.767 -0.7311 -0.1186  0.4061
14693TIP3   OH265493   2.402   4.333  17.018 -0.2880  0.6399 -0.4144
14693TIP3    H165494   2.456   4.335  16.938  0.3698  0.6844  0.0285
14693TIP3    H265495   2.326   4.281  16.993  0.3258 -0.0809 -0.8234
14694TIP3   OH265496   5.664   6.095   1.311 -0.6456 -0.0249  0.2888
14694TIP3    H165497   5.627   6.041   1.241  0.7141 -0.4163 -0.1486
14694TIP3    H265498   5.596   6.160   1.330 -1.3566 -0.4329 -0.8195
14695TIP3   OH265499   2.819   2.952  14.621 -0.5661  0.0926  0.2770
14695TIP3    H165500   2.797   2.877  14.676 -2.7326 -1.9534 -3.1316
14695TIP3    H265501   2.738   3.002  14.613  0.1561  1.3094  0.3156
14696TIP3   OH265502   5.270   0.419   5.906 -0.1442  0.1598 -0.0986
14696TIP3    H165503   5.283   0.395   5.997 -2.9328 -0.3958  0.2093
14696TIP3    H265504   5.331   0.363   5.857  1.5918  0.7003  1.4220
14697TIP3   OH265505   6.253   3.954   5.423  0.1492  0.2110 -0.0277
14697TIP3    H165506   6.193   4.014   5.466  0.6553  1.9085 -1.5984
14697TIP3    H265507   6.337   3.968   5.467 -0.0371 -0.3208  0.4960
14698TIP3   OH265508   4.978   2.940  14.158  0.1048  0.4483 -0.0472
14698TIP3    H165509   4.922   2.992  14.101 -0.1183  0.8885  0.5760
14698TIP3    H265510   4.937   2.854  14.160 -0.1579  0.5718 -0.1498
14699TIP3   OH265511   1.944   4.845   5.312 -0.8439  0.0457  0.5438
14699TIP3    H165512   1.870   4.786   5.293  0.2378 -1.1731  0.0412
14699TIP3    H265513   1.961   4.831   5.406 -0.2875 -0.8127  0.3222
14700TIP3   OH265514   0.917   4.608  11.338 -0.3495  0.0767 -0.1621
14700TIP3    H165515   0.975   4.668  11.291 -1.0419  1.9380  1.2987
14700TIP3    H265516   0.974   4.538  11.370  1.1557  2.0234  1.4905
14701TIP3   OH265517   0.636   5.643   2.157  0.2624  0.3756  0.0467
14701TIP3    H165518   0.635   5.571   2.220  0.4263 -0.0344 -0.4243
14701TIP3    H265519   0.628   5.722   2.212 -0.2296 -0.0101  0.5353
14702TIP3   OH265520   3.286   1.383   5.965 -0.2423  0.3202 -0.4174
14702TIP3    H165521   3.346   1.324   5.920  0.5821  1.4710 -0.8740
14702TIP3    H265522   3.201   1.368   5.924 -0.3827 -1.6625  0.5522
14703TIP3   OH265523   2.680   3.446   5.877  0.4883  0.0245 -0.1939
14703TIP3    H165524   2.706   3.373   5.933  0.7070  0.6152  0.4935
14703TIP3    H265525   2.587   3.461   5.898  0.1812 -0.6680 -1.0361
14704TIP3   OH265526   2.134   4.406  11.981  0.1006  0.2787 -0.2279
14704TIP3    H165527   2.040   4.425  11.988  0.1720  1.3861 -1.8204
14704TIP3    H265528   2.141   4.352  11.902  0.8791  0.8658 -0.5658
14705TIP3   OH265529   0.013   5.790  16.758 -0.3332  0.2320 -0.1327
14705TIP3    H165530  -0.038   5.710  16.749  0.1920  0.0288 -1.3553
14705TIP3    H265531   0.062   5.797  16.676 -0.9033  2.1648 -0.3429
14706TIP3   OH265532   2.823   5.142   3.030  0.8757  0.2273 -0.1573
14706TIP3    H165533   2.825   5.054   2.990  0.6534 -0.1164  0.5797
14706TIP3    H265534   2.733   5.153   3.060  1.0423  0.4864  0.2462
14707TIP3   OH265535   3.260   3.238  15.308 -0.6130 -0.0175 -0.4319
14707TIP3    H165536   3.209   3.294  15.250 -0.5953 -0.9384 -1.3667
14707TIP3    H265537   3.336   3.213  15.255 -1.4119 -2.1987 -0.6130
14708TIP3   OH265538   1.373   2.610   2.886 -0.5674 -0.2226 -0.2252
14708TIP3    H165539   1.337   2.693   2.915 -0.2280 -0.8006  1.9531
14708TIP3    H265540   1.337   2.545   2.947  2.8887 -1.0118  1.0983
14709TIP3   OH265541   0.123   0.952  11.880  0.4196  0.4350  0.1011
14709TIP3    H165542   0.071   0.904  11.944  0.6663  0.9619  0.7036
14709TIP3    H265543   0.212   0.918  11.890  0.7243  1.4591  0.9834
14710TIP3   OH265544   1.172   6.447  16.779  0.2769 -0.0348  0.1535
14710TIP3    H165545   1.180   6.464  16.873 -0.5248 -2.0715  0.6039
14710TIP3    H265546   1.138   6.358  16.773  0.5488 -0.0186 -2.0822
14711TIP3   OH265547   2.164   3.780   3.690  0.5193  0.4478 -0.1463
14711TIP3    H165548   2.257   3.792   3.707  0.4562  0.6514  0.0527
14711TIP3    H265549   2.137   3.860   3.644  0.5299  0.2172 -0.5563
14712TIP3   OH265550   0.450   0.277   1.664 -0.2992 -1.0576  0.0599
14712TIP3    H165551   0.404   0.220   1.726 -0.3993 -1.8781 -0.7543
14712TIP3    H265552   0.531   0.301   1.710  0.9114 -3.8659 -0.5049
14713TIP3   OH265553   4.631   1.020  16.480 -0.8111  0.9514 -0.0765
14713TIP3    H165554   4.680   1.068  16.414 -0.8043 -0.2690 -0.9664
14713TIP3    H265555   4.580   1.088  16.526 -2.3964  1.5776 -2.6616
14714TIP3   OH265556   0.479   1.231  12.022 -0.3098 -0.2927 -0.3296
14714TIP3    H165557   0.511   1.320  12.038 -1.9759  0.0403  1.4440
14714TIP3    H265558   0.557   1.178  12.010  0.8214  0.9022  1.5329
14715TIP3   OH265559   0.244   3.629   3.118 -0.1865  0.2332  0.2240
14715TIP3    H165560   0.268   3.573   3.192 -0.6043  0.6394  0.6724
14715TIP3    H265561   0.316   3.691   3.109  0.9176 -1.2197 -1.1332
14716TIP3   OH265562   6.375   0.012   6.010 -0.9831 -0.1009 -0.5195
14716TIP3    H165563   6.370   0.094   6.059  0.6979  0.2360 -0.8625
14716TIP3    H265564   6.388  -0.055   6.077 -1.9287 -0.0420 -0.2706
14717TIP3   OH265565   0.364   3.461  15.474 -0.1301  0.1279  0.2102
14717TIP3    H165566   0.388   3.513  15.397  0.0968 -1.5947 -0.9142
14717TIP3    H265567   0.279   3.497  15.501 -0.5220  0.3542 -1.2397
14718TIP3   OH265568   0.824   1.164   3.209 -0.1211 -0.5104 -0.8732
14718TIP3    H165569   0.873   1.107   3.268 -1.5782 -0.4880  0.3949
14718TIP3    H265570   0.743   1.117   3.191 -0.5814  0.3937 -1.2008
14719TIP3   OH265571   2.714   5.641  14.948 -0.5684 -0.0453  0.4259
14719TIP3    H165572   2.772   5.655  15.023 -1.1999  2.2549  0.5380
14719TIP3    H265573   2.650   5.577  14.979  0.4524 -0.7602  1.1063
14720TIP3   OH265574   0.329   2.757  10.973 -0.6572 -0.5477  0.5381
14720TIP3    H165575   0.369   2.680  10.933  0.5681  0.2534  0.1902
14720TIP3    H265576   0.356   2.753  11.064 -0.2291 -0.2936  0.4227
14721TIP3   OH265577   1.910   4.278  15.853 -0.2846  0.1659  0.1683
14721TIP3    H165578   1.836   4.280  15.914 -1.4626  0.3655 -1.2615
14721TIP3    H265579   1.978   4.329  15.897 -0.2544 -1.7229  2.4109
14722TIP3   OH265580   5.063   3.225  14.041  0.4298 -0.0224  0.9473
14722TIP3    H165581   4.970   3.230  14.019  0.3653  2.7332  1.6381
14722TIP3    H265582   5.064   3.203  14.134  0.3670  2.8795  1.6703
14723TIP3   OH265583   3.395   0.194  12.043  0.3899 -0.1511 -0.0113
14723TIP3    H165584   3.332   0.242  12.096  0.1398 -1.7757  1.2159
14723TIP3    H265585   3.444   0.141  12.106  1.5029 -0.5453 -1.1865
14724TIP3   OH265586   6.777   1.577   3.149  0.0383  0.4021  0.4329
14724TIP3    H165587   6.765   1.484   3.130 -2.3192  0.7963 -0.1821
14724TIP3    H265588   6.817   1.578   3.236  0.4057 -1.1831  0.3027
14725TIP3   OH265589   0.688   2.997   3.717  0.3901  0.6174 -0.5147
14725TIP3    H165590   0.647   2.917   3.683 -1.5818  1.2904  0.1894
14725TIP3    H265591   0.626   3.029   3.783  2.0446  1.7164  0.5424
14726TIP3   OH265592   5.156   0.406  11.344 -0.4623 -0.4912 -0.4569
14726TIP3    H165593   5.237   0.433  11.387 -0.9378  1.2314 -0.6034
14726TIP3    H265594   5.183   0.339  11.282  0.7590 -0.3557 -0.0852
14727TIP3   OH265595   1.598   4.134   1.307 -0.0770 -0.6108  0.1047
14727TIP3    H165596   1.559   4.124   1.220 -0.2867 -0.7385  0.2111
14727TIP3    H265597   1.585   4.049   1.349 -0.0551 -0.5235  0.2899
14728TIP3   OH265598   4.697   6.700  12.073 -0.1462 -0.2823 -0.1899
14728TIP3    H165599   4.696   6.795  12.067 -0.0505 -0.2212  0.6070
14728TIP3    H265600   4.780   6.680  12.116 -0.5799 -0.6577  0.4975
14729TIP3   OH265601   3.583   4.247   2.080 -0.0004 -0.0901 -0.1288
14729TIP3    H165602   3.542   4.161   2.074  0.1014 -0.1756  0.3369
14729TIP3    H265603   3.676   4.229   2.085  0.0155  0.0439  0.0556
14730TIP3   OH265604   3.166   4.739   2.804 -0.1657 -0.5306 -0.4964
14730TIP3    H165605   3.164   4.802   2.732  2.0418 -1.7828 -1.7171
14730TIP3    H265606   3.088   4.685   2.792 -1.0313  0.7365 -0.5851
14731TIP3   OH265607   4.892   2.665  13.768 -0.0835 -0.1060  0.1809
14731TIP3    H165608   4.964   2.721  13.797  1.9164 -1.9548 -1.0473
14731TIP3    H265609   4.868   2.700  13.682  0.9314 -0.8767 -0.4315
14732TIP3   OH265610   0.084   3.799   3.744  0.3744 -0.0767  0.0881
14732TIP3    H165611   0.149   3.864   3.718  1.6307 -1.3552 -0.0459
14732TIP3    H265612   0.003   3.848   3.755  1.1692  1.4007 -0.5954
14733TIP3   OH265613   3.317   5.683   4.823 -0.5105  0.3069 -0.9249
14733TIP3    H165614   3.408   5.711   4.832 -0.4230 -0.4046  0.6397
14733TIP3    H265615   3.321   5.606   4.766 -0.0988  0.0749 -0.5816
14734TIP3   OH265616   0.766   1.650   5.015 -0.2606 -0.1759 -0.4132
14734TIP3    H165617   0.728   1.721   5.067 -1.2970 -1.2085  0.2577
14734TIP3    H265618   0.693   1.617   4.963 -0.1276 -1.7370  0.3802
14735TIP3   OH265619   0.982   0.875  15.873 -0.2990  0.0998 -0.7720
14735TIP3    H165620   1.024   0.885  15.788  0.2546  0.4809 -0.4625
14735TIP3    H265621   0.947   0.787  15.873  1.4904 -0.6471 -0.6151
14736TIP3   OH265622   5.160   3.032   0.763  0.3524 -0.0128 -0.3157
14736TIP3    H165623   5.093   3.083   0.718 -0.8673 -1.0813  0.2453
14736TIP3    H265624   5.115   2.996   0.840  1.5657 -0.7542  0.0620
14737TIP3   OH265625   6.743   2.285   4.364 -0.1291 -0.6816  0.0592
14737TIP3    H165626   6.769   2.376   4.354  0.7114 -0.8512  0.6719
14737TIP3    H265627   6.816   2.235   4.328  0.3626 -1.1576  1.6613
14738TIP3   OH265628   3.598   1.680  11.294 -0.0333  0.5199 -0.8255
14738TIP3    H165629   3.664   1.611  11.306  0.5997  1.4020  1.0109
14738TIP3    H265630   3.626   1.726  11.215  0.8113  0.0791 -0.7951
14739TIP3   OH265631   3.709   2.659   1.003 -0.1603 -0.2494 -0.2142
14739TIP3    H165632   3.690   2.747   1.037 -1.2192 -0.2638 -0.7450
14739TIP3    H265633   3.731   2.607   1.080  0.8627  0.5873  0.0620
14740TIP3   OH265634   3.423   3.625   2.766  0.4309 -0.1347 -0.3939
14740TIP3    H165635   3.369   3.547   2.773  0.1444  0.0422 -0.6420
14740TIP3    H265636   3.498   3.607   2.823  0.0254 -0.3047  0.0965
14741TIP3   OH265637   3.259   1.516   6.232 -0.6255 -0.0363 -0.6227
14741TIP3    H165638   3.185   1.510   6.292  1.7142 -0.8921  2.3331
14741TIP3    H265639   3.245   1.444   6.170 -0.4511 -2.6080  2.1639
14742TIP3   OH265640   2.917   0.778  10.611  0.6629  0.1914  0.2397
14742TIP3    H165641   2.890   0.772  10.703 -0.7095 -1.2940 -0.2417
14742TIP3    H265642   2.987   0.713  10.602  1.3059  0.8501  0.3898
14743TIP3   OH265643   1.779   1.727  16.657 -0.1751 -0.2552  0.5539
14743TIP3    H165644   1.762   1.821  16.646 -1.4737 -0.5074  0.3441
14743TIP3    H265645   1.751   1.708  16.746 -3.7300 -1.2476 -0.7136
14744TIP3   OH265646   1.293   2.430   3.063 -0.3052 -0.5163  0.1967
14744TIP3    H165647   1.223   2.428   3.128 -1.5494  0.5775 -1.0772
14744TIP3    H265648   1.336   2.345   3.071 -2.4219 -1.5979  0.3079
14745TIP3   OH265649   2.068   2.635   1.517  0.1300  0.3461 -0.1722
14745TIP3    H165650   2.009   2.619   1.443  0.2687  0.1650 -0.2433
14745TIP3    H265651   2.154   2.644   1.477  0.2647 -0.1284  0.0034
14746TIP3   OH265652   3.552   6.251  13.790  0.4610 -0.0539 -0.1347
14746TIP3    H165653   3.642   6.269  13.820 -0.4255 -0.3085  2.8804
14746TIP3    H265654   3.496   6.289  13.857 -1.6618 -1.6474 -0.9291
14747TIP3   OH265655   2.295   5.117   3.092 -0.7404 -0.5945 -0.0392
14747TIP3    H165656   2.260   5.060   3.160 -1.4068  0.2946  0.3795
14747TIP3    H265657   2.284   5.206   3.127 -3.0343  0.0288 -2.1322
14748TIP3   OH265658   1.186   2.864   5.196  0.3351  0.0063 -0.0214
14748TIP3    H165659   1.106   2.837   5.241 -1.0994 -3.1075 -4.2259
14748TIP3    H265660   1.171   2.957   5.176 -2.2611 -0.5015 -0.6939
14749TIP3   OH265661   1.372   5.367   0.696 -0.2460 -0.0098 -0.0469
14749TIP3    H165662   1.377   5.280   0.736  0.0628  0.0601  0.0700
14749TIP3    H265663   1.311   5.356   0.623  0.9429 -0.7053 -0.9608
14750TIP3   OH265664   6.635   3.937  15.701 -0.2489 -0.1110  0.1140
14750TIP3    H165665   6.709   3.982  15.661 -1.0722  1.2195  0.0715
14750TIP3    H265666   6.671   3.896  15.779  0.6965 -0.1167 -0.3213
14751TIP3   OH265667   6.354   3.748  12.346 -0.1735 -0.1674 -0.2692
14751TIP3    H165668   6.262   3.773  12.332 -0.3808  1.1133  3.0112
14751TIP3    H265669   6.349   3.657  12.377 -0.3773  0.0552  0.3561
14752TIP3   OH265670   0.879   6.391  13.789  0.4500  0.1142 -0.2773
14752TIP3    H165671   0.864   6.411  13.881 -1.0107  1.5325 -0.8111
14752TIP3    H265672   0.973   6.404  13.777  0.7718 -0.7438  1.1491
14753TIP3   OH265673   6.686   3.407  12.853  0.4539 -0.4425  0.1438
14753TIP3    H165674   6.766   3.452  12.879  0.4529  0.4961 -1.4275
14753TIP3    H265675   6.620   3.434  12.918  1.2396 -0.7532  1.0882
14754TIP3   OH265676   5.943   1.469  14.668  0.1361  0.3583  0.0536
14754TIP3    H165677   5.933   1.403  14.736 -0.3454 -0.1969 -0.5568
14754TIP3    H265678   5.906   1.549  14.706  0.0034  0.0848  0.4946
14755TIP3   OH265679   0.492   0.991   0.544  0.1389  0.0138  0.7510
14755TIP3    H165680   0.502   0.905   0.586 -0.4263  0.0552  0.9764
14755TIP3    H265681   0.511   1.054   0.613 -0.0602  0.0770  0.7471
14756TIP3   OH265682   5.878   5.656   3.242  0.4794 -0.3452  0.6406
14756TIP3    H165683   5.972   5.653   3.264  0.6493  0.0090 -0.0151
14756TIP3    H265684   5.854   5.748   3.253  0.2580 -0.3976  0.5968
14757TIP3   OH265685   2.250   2.609  16.188  0.3794 -0.7528  0.1545
14757TIP3    H165686   2.299   2.604  16.270 -1.3156 -1.1142  1.1607
14757TIP3    H265687   2.251   2.519  16.155 -0.1640 -0.9017  0.5268
14758TIP3   OH265688   2.927   1.990   2.862  0.2424 -0.2373 -0.4703
14758TIP3    H165689   2.868   2.021   2.930  1.1702 -0.4472  0.4511
14758TIP3    H265690   2.893   2.027   2.781 -0.7838  0.1430  0.1331
14759TIP3   OH265691   3.454   3.564   5.991 -0.3768 -0.1864 -0.2284
14759TIP3    H165692   3.508   3.499   6.035 -1.0123  0.9072  2.2601
14759TIP3    H265693   3.517   3.627   5.955  0.1040  0.1634  1.1786
14760TIP3   OH265694   0.335   1.609   5.978 -0.5331 -0.1744 -0.2124
14760TIP3    H165695   0.400   1.665   6.020 -1.3369  0.0821  0.6987
14760TIP3    H265696   0.266   1.599   6.043 -0.2349 -2.5321 -0.2220
14761TIP3   OH265697   5.118   5.266   3.624 -0.1661 -0.0959 -0.2500
14761TIP3    H165698   5.046   5.309   3.577  0.1605  0.8328  0.0778
14761TIP3    H265699   5.182   5.246   3.557 -0.0102  0.5831 -0.3113
14762TIP3   OH265700   2.060   1.358   3.856 -0.1146  0.2969 -0.1729
14762TIP3    H165701   2.069   1.400   3.942 -0.7737  1.8774 -0.8552
14762TIP3    H265702   2.116   1.410   3.798  0.4472 -0.8550 -0.6823
14763TIP3   OH265703   3.378   0.934  14.743 -0.5304  0.3646 -0.2633
14763TIP3    H165704   3.317   1.007  14.740 -0.9982  0.0249  1.0046
14763TIP3    H265705   3.360   0.885  14.663 -5.1369 -2.3062  2.2561
14764TIP3   OH265706   2.538   4.164   1.855 -0.2631  0.4426  0.2096
14764TIP3    H165707   2.569   4.086   1.900 -1.1073  0.8369  1.4916
14764TIP3    H265708   2.528   4.230   1.924 -1.1326  1.1937 -0.6134
14765TIP3   OH265709   6.785   2.604  14.848 -0.4130 -0.4330 -0.1956
14765TIP3    H165710   6.729   2.534  14.882 -1.6794  0.6991  0.0916
14765TIP3    H265711   6.812   2.653  14.925  0.5903 -0.6767 -0.3830
14766TIP3   OH265712   0.964   0.828  12.125 -0.1625  0.8381 -0.2521
14766TIP3    H165713   0.876   0.836  12.087 -0.7737 -2.7129  0.2433
14766TIP3    H265714   1.021   0.807  12.051 -0.0013  1.5035 -0.3211
14767TIP3   OH265715   5.239   1.855  15.835 -0.4795  0.1485  0.4978
14767TIP3    H165716   5.313   1.883  15.890  0.2832  0.6409 -0.7627
14767TIP3    H265717   5.187   1.799  15.892 -0.2196  1.4259  2.0379
14768TIP3   OH265718   6.128   0.032  13.401 -0.1124  0.4096 -0.1813
14768TIP3    H165719   6.046   0.060  13.362  0.4456  0.6568 -1.1916
14768TIP3    H265720   6.110   0.027  13.495 -1.2230  0.6329 -0.3821
14769TIP3   OH265721   1.285   4.439   0.854  0.0849 -0.6736  0.5484
14769TIP3    H165722   1.355   4.381   0.883  0.8663 -0.0886 -0.1810
14769TIP3    H265723   1.214   4.379   0.829  0.5059 -1.2763  0.7809
14770TIP3   OH265724   2.196   6.145   0.056  0.0415  0.6574 -0.0403
14770TIP3    H165725   2.195   6.187  -0.030 -0.6315  1.2961  0.2734
14770TIP3    H265726   2.119   6.088   0.054  0.5542 -0.0336 -0.2038
14771TIP3   OH265727   0.775   3.284  15.087 -0.2944  0.2915 -0.5580
14771TIP3    H165728   0.742   3.337  15.014 -2.6170  0.8986  0.8820
14771TIP3    H265729   0.870   3.293  15.082 -0.3793  0.0982 -3.6514
14772TIP3   OH265730   3.461   5.705  11.691  0.0625 -0.2272 -0.8554
14772TIP3    H165731   3.508   5.654  11.626 -1.2519  0.1962 -2.1575
14772TIP3    H265732   3.528   5.761  11.732  0.9905 -0.9204 -1.4135
14773TIP3   OH265733   0.992   1.832  13.541  0.0628 -0.4436 -0.5382
14773TIP3    H165734   0.920   1.818  13.602  0.2746  0.0933 -0.1564
14773TIP3    H265735   1.024   1.919  13.562  0.6833 -0.5938 -0.8497
14774TIP3   OH265736   5.214   1.633  16.337 -0.5983 -0.3051  0.2001
14774TIP3    H165737   5.184   1.648  16.427 -2.3493  0.4204 -0.4802
14774TIP3    H265738   5.222   1.538  16.330  0.2734 -0.3296  1.3312
14775TIP3   OH265739   5.627   6.624  17.009  0.1403  0.1839  0.4252
14775TIP3    H165740   5.603   6.559  16.942 -2.8074  1.8338 -0.2392
14775TIP3    H265741   5.618   6.578  17.092 -0.2618 -0.7398 -0.1295
14776TIP3   OH265742   1.316   5.690   3.683 -0.9705  0.0616 -0.3620
14776TIP3    H165743   1.318   5.779   3.648  0.0343  1.0099  2.0142
14776TIP3    H265744   1.385   5.644   3.636 -1.9722  0.3111 -2.1155
14777TIP3   OH265745   0.911   2.234   4.939 -0.2049  0.3877 -0.0351
14777TIP3    H165746   0.965   2.275   5.006  0.3309 -0.1545 -0.1346
14777TIP3    H265747   0.855   2.174   4.987 -1.0614  1.2968  0.1224
14778TIP3   OH265748   5.898   6.678  15.100  0.1664 -0.7986 -0.1301
14778TIP3    H165749   5.822   6.659  15.044 -0.7266 -0.2685  0.8777
14778TIP3    H265750   5.860   6.713  15.181  1.4717 -0.9804  0.5754
14779TIP3   OH265751   4.444   5.783  14.947 -0.1338 -0.1249  0.4093
14779TIP3    H165752   4.413   5.801  14.858 -0.9288 -1.0912  0.4955
14779TIP3    H265753   4.526   5.833  14.953  0.2174 -0.4832 -1.0552
14780TIP3   OH265754   6.212   2.359  16.871  0.1124 -0.1302  0.0277
14780TIP3    H165755   6.277   2.377  16.804 -1.1107  0.1844 -1.1035
14780TIP3    H265756   6.135   2.329  16.822 -1.0480  0.8188  1.2333
14781TIP3   OH265757   0.084   1.731   0.288  0.3914 -0.9089 -0.4728
14781TIP3    H165758   0.043   1.816   0.272 -0.2917 -1.1416  0.0233
14781TIP3    H265759   0.173   1.740   0.254  0.3846  0.0661 -0.2344
14782TIP3   OH265760   5.563   5.063   3.319 -0.3596  0.0738 -0.7250
14782TIP3    H165761   5.596   4.980   3.355 -0.3590  0.0019 -0.8934
14782TIP3    H265762   5.641   5.105   3.283 -0.2628  0.3971 -0.1487
14783TIP3   OH265763   2.807   1.467  14.333  0.0430 -0.3198 -0.0018
14783TIP3    H165764   2.886   1.499  14.290 -0.9144 -0.7050 -2.1473
14783TIP3    H265765   2.799   1.376  14.303 -2.0566  0.2035 -1.1408
14784TIP3   OH265766   2.983   4.375  15.357  0.3188  0.1817 -0.3361
14784TIP3    H165767   3.021   4.381  15.445 -1.8277 -2.6690  0.8679
14784TIP3    H265768   2.889   4.367  15.373  0.0789 -2.3296 -2.8191
14785TIP3   OH265769   3.351   5.919  15.703  0.1113  0.1445  0.5052
14785TIP3    H165770   3.383   5.895  15.617  0.8243  3.3406 -0.1915
14785TIP3    H265771   3.256   5.921  15.694  0.0086 -2.3251  0.6312
14786TIP3   OH265772   3.733   2.453  15.524 -0.0078  0.1610 -0.4751
14786TIP3    H165773   3.791   2.524  15.496 -0.7196  0.0831 -2.1704
14786TIP3    H265774   3.767   2.375  15.480  0.2897 -0.4178  0.7525
14787TIP3   OH265775   6.717   5.668   4.050  0.1647  0.3403  0.6533
14787TIP3    H165776   6.795   5.686   3.998  0.3763 -2.5320 -0.1131
14787TIP3    H265777   6.747   5.670   4.141  0.9479  0.1435  0.3990
14788TIP3   OH265778   4.047   4.379  13.731  0.6093 -0.4335  0.3647
14788TIP3    H165779   3.992   4.401  13.655  0.4943 -3.0380 -0.3672
14788TIP3    H265780   4.134   4.409  13.707  0.4304 -0.5989 -0.5283
14789TIP3   OH265781   4.906   0.511   2.550  0.3104  0.2578 -0.3605
14789TIP3    H165782   4.929   0.585   2.494 -0.7028 -0.3410 -1.5805
14789TIP3    H265783   4.989   0.488   2.593  1.0882  0.7641 -1.5374
14790TIP3   OH265784   4.782   4.693   4.729  1.3048  0.6626 -0.1741
14790TIP3    H165785   4.774   4.762   4.794  1.0697  1.0044 -0.5664
14790TIP3    H265786   4.869   4.706   4.691  0.9678  1.1917 -0.7613
14791TIP3   OH265787   3.139   2.577   3.708  0.4912  0.0280  0.4237
14791TIP3    H165788   3.196   2.507   3.739 -1.2761 -0.9251  1.5867
14791TIP3    H265789   3.070   2.585   3.774 -0.1536  1.8876 -0.4023
14792TIP3   OH265790   4.281   6.673  13.048 -0.1759 -0.1872 -0.1453
14792TIP3    H165791   4.286   6.674  12.953 -0.8054 -0.1182 -0.1842
14792TIP3    H265792   4.363   6.712  13.078 -0.2262  0.3127 -0.6659
14793TIP3   OH265793   0.442   0.649   0.540  0.1644  0.0612  0.2160
14793TIP3    H165794   0.507   0.628   0.608  1.3287  1.7658 -0.3277
14793TIP3    H265795   0.459   0.585   0.470  0.4494 -0.2723  0.5864
14794TIP3   OH265796   6.228   3.883   3.076  0.3733  0.1098 -0.1502
14794TIP3    H165797   6.276   3.865   3.157 -2.7826  1.5780  2.1769
14794TIP3    H265798   6.254   3.971   3.052  1.1335 -0.2371 -0.5974
14795TIP3   OH265799   2.823   4.459   4.042  0.2879 -0.5365  0.5132
14795TIP3    H165800   2.810   4.447   4.136 -0.8888 -0.3788  0.3845
14795TIP3    H265801   2.803   4.373   4.004 -3.0380  0.3463  0.0742
14796TIP3   OH265802   4.238   6.091   3.375 -1.1079 -0.1911 -0.2540
14796TIP3    H165803   4.162   6.080   3.431 -1.2832 -1.5116 -0.7304
14796TIP3    H265804   4.298   6.145   3.426 -2.3086  0.7464  0.1682
14797TIP3   OH265805   2.709   5.440  15.440 -0.3808  0.0994 -0.2439
14797TIP3    H165806   2.718   5.345  15.432 -1.7924 -0.0225 -0.5688
14797TIP3    H265807   2.681   5.453  15.531  1.7184  0.3697  0.3820
14798TIP3   OH265808   5.877   3.287   2.375  0.1204 -0.2982 -0.0425
14798TIP3    H165809   5.911   3.305   2.463 -1.2393 -0.6312  0.5615
14798TIP3    H265810   5.921   3.205   2.350  0.4396 -0.2573  0.3633
14799TIP3   OH265811   2.258   6.508  16.844 -0.3738 -0.1704  0.2646
14799TIP3    H165812   2.218   6.582  16.888 -0.3604 -0.5397  0.8978
14799TIP3    H265813   2.189   6.473  16.787 -0.5813 -0.0797  0.4633
14800TIP3   OH265814   0.257   6.241   5.632 -0.0416  0.2693 -0.2338
14800TIP3    H165815   0.338   6.204   5.599 -0.2686 -1.6022  1.2285
14800TIP3    H265816   0.280   6.331   5.658  1.3757 -0.0101 -0.5042
14801TIP3   OH265817   1.689   2.180   6.440 -1.2913  0.1087 -0.0413
14801TIP3    H165818   1.620   2.158   6.378  0.6871  1.4024 -2.8223
14801TIP3    H265819   1.669   2.269   6.468 -0.3975  0.7228 -1.3514
14802TIP3   OH265820   3.331   2.684  14.959  0.1318  0.2779 -0.6112
14802TIP3    H165821   3.330   2.590  14.976 -0.2202  0.4296  0.2023
14802TIP3    H265822   3.410   2.716  15.003 -0.3502  0.5412  0.0619
14803TIP3   OH265823   1.328   1.534  11.011  0.4899  0.2825 -0.2097
14803TIP3    H165824   1.282   1.491  11.083 -0.0876  2.7131  0.9364
14803TIP3    H265825   1.355   1.463  10.953 -2.6144 -1.4056  0.3285
14804TIP3   OH265826   0.234   6.605   1.956  0.6839 -0.0812  0.0020
14804TIP3    H165827   0.229   6.510   1.947 -0.0743 -0.2055  1.5676
14804TIP3    H265828   0.152   6.629   1.999  0.3295  1.4315 -1.4839
14805TIP3   OH265829   0.947   6.505   3.113  0.6005 -0.6623 -0.2994
14805TIP3    H165830   0.899   6.489   3.194 -0.5279 -2.8808 -1.3650
14805TIP3    H265831   0.882   6.492   3.044  1.4001  1.7915 -1.5565
14806TIP3   OH265832   0.433   2.132   1.897 -0.5210 -0.0031 -0.3562
14806TIP3    H165833   0.441   2.225   1.874  0.5587 -0.4520 -1.8187
14806TIP3    H265834   0.486   2.086   1.832  0.8191 -1.4768  1.7231
14807TIP3   OH265835   6.509   5.121  10.894 -0.0057 -0.4557 -0.5677
14807TIP3    H165836   6.560   5.202  10.891  1.6935 -1.5076 -0.9529
14807TIP3    H265837   6.418   5.150  10.896  0.5768  1.4606 -0.5412
14808TIP3   OH265838   6.062   5.539   1.197  0.2856  0.0582 -0.6939
14808TIP3    H165839   6.090   5.452   1.170 -1.8648 -1.0042  0.3113
14808TIP3    H265840   6.141   5.593   1.192  1.1905 -1.4302 -3.3545
14809TIP3   OH265841   0.425   4.848   4.406  0.6091  0.0132  0.3739
14809TIP3    H165842   0.451   4.831   4.497  1.5330  0.8880  0.2854
14809TIP3    H265843   0.507   4.841   4.357 -0.2052 -2.5276 -0.7138
14810TIP3   OH265844   6.017   6.294  14.853  0.0499 -0.0674  0.0422
14810TIP3    H165845   5.940   6.310  14.907  0.5782 -1.2109  1.1743
14810TIP3    H265846   6.082   6.259  14.914  0.4929 -1.8913 -1.4318
14811TIP3   OH265847   2.742   4.633  16.095  0.0639  0.1449 -0.0043
14811TIP3    H165848   2.791   4.713  16.116 -0.3706  0.7822 -1.3731
14811TIP3    H265849   2.805   4.578  16.049 -0.0353  0.2733 -0.2918
14812TIP3   OH265850   0.523   0.617  12.668 -0.3760 -0.2452 -0.2026
14812TIP3    H165851   0.491   0.705  12.690 -2.4068 -1.0092 -0.0353
14812TIP3    H265852   0.544   0.578  12.753 -2.2940 -0.9569 -0.0254
14813TIP3   OH265853   1.318   3.824   3.147 -0.3712  0.1323  0.1221
14813TIP3    H165854   1.288   3.832   3.238 -2.7986  0.5070 -0.6769
14813TIP3    H265855   1.408   3.855   3.149 -0.1988 -0.4056  2.5158
14814TIP3   OH265856   3.488   5.842   2.238  0.4190  0.1622 -0.0339
14814TIP3    H165857   3.512   5.906   2.305 -0.9240  0.7336 -0.0812
14814TIP3    H265858   3.400   5.815   2.261  0.1778 -0.0986 -1.2159
14815TIP3   OH265859   0.474   4.716  12.155 -0.5728  0.1646  0.6655
14815TIP3    H165860   0.423   4.787  12.194 -0.4077  1.0612 -0.7571
14815TIP3    H265861   0.564   4.734  12.181 -0.8017 -0.8523  2.2978
14816TIP3   OH265862   3.424   4.660   2.891  0.0084 -0.0018  0.0648
14816TIP3    H165863   3.436   4.755   2.897 -1.5505  0.1739  0.6982
14816TIP3    H265864   3.335   4.645   2.924  0.4786 -1.7473  0.6049
14817TIP3   OH265865   5.392   1.417  14.422 -0.3149 -0.5223 -0.0295
14817TIP3    H165866   5.476   1.403  14.466 -0.0796  0.4299 -0.1578
14817TIP3    H265867   5.338   1.462  14.486 -0.1253  0.4526 -0.5471
14818TIP3   OH265868   4.736   4.054   0.063  0.0268  0.0619  1.1513
14818TIP3    H165869   4.744   4.138   0.019  2.1241 -0.6021  0.1716
14818TIP3    H265870   4.735   3.990  -0.008  1.2128 -0.8888  1.9653
14819TIP3   OH265871   3.233   3.512   1.317  0.1453  0.6252 -0.1166
14819TIP3    H165872   3.207   3.420   1.314  1.2283  0.3380 -1.4075
14819TIP3    H265873   3.163   3.559   1.272  0.1353  0.2942 -0.4465
14820TIP3   OH265874   0.603   1.068  15.376  0.1094  0.4408 -0.3795
14820TIP3    H165875   0.518   1.026  15.361 -0.4388  1.5527 -0.4242
14820TIP3    H265876   0.596   1.105  15.463  0.7579  0.0600 -0.1646
14821TIP3   OH265877   1.222   0.026  15.905 -0.3040  0.0589 -0.2090
14821TIP3    H165878   1.231  -0.034  15.978  0.3256  1.0346  0.5309
14821TIP3    H265879   1.208  -0.030  15.829  1.4383 -1.0756  0.2766
14822TIP3   OH265880   5.411   6.773   5.755  0.1431 -0.1748  0.0942
14822TIP3    H165881   5.439   6.769   5.663 -0.5947  0.2520 -0.1531
14822TIP3    H265882   5.430   6.685   5.788  1.0968 -0.1137 -0.2580
14823TIP3   OH265883   5.832   3.327   1.336 -0.5300  0.1716 -0.0347
14823TIP3    H165884   5.802   3.354   1.249 -1.5172  1.6855  0.7704
14823TIP3    H265885   5.927   3.321   1.327 -0.3955  2.6278 -0.5986
14824TIP3   OH265886   1.837   2.650   0.608 -0.1163 -0.7086 -0.0713
14824TIP3    H165887   1.838   2.703   0.528  2.0764  0.9033  0.9827
14824TIP3    H265888   1.785   2.701   0.670  0.5336 -0.6341  0.4104
14825TIP3   OH265889   1.071   1.696  12.303  0.2172 -0.6995  0.1823
14825TIP3    H165890   1.018   1.696  12.223  2.1018  1.4684 -1.1117
14825TIP3    H265891   1.145   1.639  12.283  0.6938 -0.1566  0.3938
14826TIP3   OH265892   1.559   1.827   1.708 -0.1717  0.2802  0.2311
14826TIP3    H165893   1.603   1.850   1.789 -0.3666  1.0778  0.1230
14826TIP3    H265894   1.468   1.809   1.734  0.0405 -0.5961  0.3494
14827TIP3   OH265895   1.917   4.789  12.290 -0.3847  0.2099 -0.5756
14827TIP3    H165896   1.967   4.870  12.304 -1.4903  0.7473  0.4245
14827TIP3    H265897   1.881   4.798  12.202 -0.2536  0.6702 -0.5861
14828TIP3   OH265898   0.747   1.925   5.936 -0.1640  0.5626 -0.1947
14828TIP3    H165899   0.779   1.842   5.902  1.2956  0.8050  0.5424
14828TIP3    H265900   0.761   1.987   5.865  0.6864  0.5908 -0.0080
14829TIP3   OH265901   2.367   3.615   2.144 -0.1333 -0.5375 -0.0023
14829TIP3    H165902   2.457   3.586   2.159  0.6865  2.7301  1.7767
14829TIP3    H265903   2.360   3.620   2.049  1.6625 -0.5427 -0.1654
14830TIP3   OH265904   6.299   0.352  15.271  0.5646  0.3275 -0.1436
14830TIP3    H165905   6.233   0.420  15.281 -0.8932 -1.3993  2.9490
14830TIP3    H265906   6.287   0.319  15.183 -1.7737  1.0100 -0.1010
14831TIP3   OH265907   4.666   4.336  13.147  0.0350 -0.6913  0.1840
14831TIP3    H165908   4.643   4.251  13.185  2.5276 -1.2298  0.5437
14831TIP3    H265909   4.623   4.400  13.204 -0.1422 -1.6402  1.1286
14832TIP3   OH265910   1.903   2.841  12.287  0.4262 -0.3288  0.6820
14832TIP3    H165911   1.867   2.798  12.364 -2.6395  0.0093 -0.4745
14832TIP3    H265912   1.899   2.934  12.307 -2.3219 -0.1227 -0.6159
14833TIP3   OH265913   5.395   5.033   4.212  0.6911 -0.3405 -0.0469
14833TIP3    H165914   5.328   5.046   4.146 -0.6059 -1.8813  0.9162
14833TIP3    H265915   5.377   5.100   4.278 -1.2146 -2.0167  1.1999
14834TIP3   OH265916   6.375   5.387  12.517 -0.1878 -0.1438 -0.0378
14834TIP3    H165917   6.296   5.345  12.551 -0.4378  0.4724  0.1521
14834TIP3    H265918   6.412   5.433  12.593 -0.3776  0.6704 -0.4293
14835TIP3   OH265919   4.823   2.961   1.235  0.2300 -0.3748 -0.1870
14835TIP3    H165920   4.801   2.913   1.155  1.8368  1.3359 -1.6977
14835TIP3    H265921   4.808   2.898   1.306 -0.4416 -2.1679 -1.8874
14836TIP3   OH265922   6.252   3.299   0.479  1.1740  0.4882 -0.4768
14836TIP3    H165923   6.254   3.252   0.396  1.3246 -1.2362  0.4944
14836TIP3    H265924   6.302   3.379   0.462  1.4529  0.0171 -1.9646
14837TIP3   OH265925   2.015   3.132   4.917 -0.2872 -0.3017 -0.5550
14837TIP3    H165926   2.106   3.115   4.943 -0.8750  0.6115  2.2334
14837TIP3    H265927   2.021   3.153   4.823  2.3574 -0.3293 -0.4471
14838TIP3   OH265928   2.819   1.538   5.739  0.0498 -0.6896  0.3117
14838TIP3    H165929   2.738   1.585   5.719  0.8100  0.0569 -1.1201
14838TIP3    H265930   2.809   1.509   5.829 -1.6098 -0.1800  0.3025
14839TIP3   OH265931   0.186   3.736  14.559  0.0801 -0.5766 -0.0894
14839TIP3    H165932   0.281   3.742  14.558  0.0322  0.3888  0.6116
14839TIP3    H265933   0.165   3.697  14.644 -0.0661 -2.4527 -0.9711
14840TIP3   OH265934   2.539   3.677  12.140  0.0522  0.3073  0.6614
14840TIP3    H165935   2.588   3.679  12.058  0.1630  0.4695  0.7325
14840TIP3    H265936   2.457   3.722  12.120 -0.1978 -0.2297  0.4552
14841TIP3   OH265937   5.794   1.064  10.674 -0.0229 -0.0407 -0.2731
14841TIP3    H165938   5.889   1.078  10.673 -0.2863  2.0290 -2.8723
14841TIP3    H265939   5.779   1.007  10.598 -0.8519 -0.3801  0.1526
14842TIP3   OH265940   2.761   5.429   2.502 -0.3510 -0.0794  0.1030
14842TIP3    H165941   2.736   5.407   2.592 -0.4789  1.3030  0.4191
14842TIP3    H265942   2.750   5.524   2.497 -1.7042 -0.3133 -1.7947
14843TIP3   OH265943   5.578   1.954   5.305 -0.1020 -0.1946  0.5618
14843TIP3    H165944   5.574   1.877   5.361 -0.1445  1.1714  2.5042
14843TIP3    H265945   5.486   1.979   5.292 -0.0223  1.0308  2.1412
14844TIP3   OH265946   4.167   0.343   4.912 -0.0989 -0.3070  0.4832
14844TIP3    H165947   4.087   0.348   4.965 -0.4838  2.2249 -0.2904
14844TIP3    H265948   4.207   0.259   4.937 -2.4693 -1.1452  1.6164
14845TIP3   OH265949   5.861   2.255  14.123 -0.4879  0.3649 -0.3477
14845TIP3    H165950   5.895   2.171  14.092 -2.2426 -0.9405  1.1331
14845TIP3    H265951   5.787   2.232  14.179 -0.1912  2.8377  1.1715
14846TIP3   OH265952   5.793   4.416  14.699 -0.7729 -0.2522  0.2711
14846TIP3    H165953   5.724   4.481  14.715 -1.2559 -1.4998  3.6557
14846TIP3    H265954   5.759   4.362  14.628 -2.1553  0.7108  0.1808
14847TIP3   OH265955   3.518   1.577  15.991 -0.1889 -0.1541  0.2777
14847TIP3    H165956   3.611   1.576  15.970  0.3135  0.9624  2.2843
14847TIP3    H265957   3.475   1.604  15.910  1.1699 -1.1962 -0.8228
14848TIP3   OH265958   3.867   2.736  15.665  0.0102  0.0652 -0.1743
14848TIP3    H165959   3.865   2.826  15.632 -1.4017  0.1550  0.1368
14848TIP3    H265960   3.932   2.738  15.736 -0.3447  0.9375  0.1350
14849TIP3   OH265961   3.269   5.417   3.179 -0.1624  0.4814  0.3413
14849TIP3    H165962   3.234   5.457   3.099  0.6681 -1.5929 -1.1022
14849TIP3    H265963   3.224   5.333   3.185  1.1501 -0.1772  1.0317
14850TIP3   OH265964   3.403   3.782   1.655 -0.3884  0.4756 -0.0763
14850TIP3    H165965   3.478   3.823   1.613 -0.4010  0.3470 -0.2248
14850TIP3    H265966   3.341   3.766   1.584 -0.5783  0.6312  0.0547
14851TIP3   OH265967   1.998   1.048  12.462  0.5787  0.3219 -0.6542
14851TIP3    H165968   2.049   0.968  12.452 -1.0686 -0.8238 -0.1864
14851TIP3    H265969   2.004   1.091  12.377 -0.3982 -1.4735 -1.6845
14852TIP3   OH265970   6.115   6.551  11.970  1.3585  0.3989 -0.6726
14852TIP3    H165971   6.075   6.636  11.953  1.0102  0.5133  0.6802
14852TIP3    H265972   6.111   6.506  11.886 -0.8726  0.7217 -0.7786
14853TIP3   OH265973   1.981   2.515  13.210 -0.5422  0.2428 -0.0110
14853TIP3    H165974   1.978   2.506  13.115  0.5813 -2.1365  0.1436
14853TIP3    H265975   2.046   2.583  13.226  0.5392 -0.5805 -0.8932
14854TIP3   OH265976   3.478   3.316  13.482 -0.6605  0.2407 -0.1259
14854TIP3    H165977   3.488   3.287  13.391 -0.2231  2.1676 -0.7058
14854TIP3    H265978   3.451   3.407  13.475 -1.5911  0.1284  1.6869
14855TIP3   OH265979   2.053   0.910   3.301 -0.2004  0.0858  0.0069
14855TIP3    H165980   1.994   0.851   3.256 -0.3241  1.4931 -1.7408
14855TIP3    H265981   2.017   0.918   3.390 -0.6255 -1.7790  0.0074
14856TIP3   OH265982   6.678   2.376  13.540 -0.5632 -0.3326 -0.3415
14856TIP3    H165983   6.656   2.469  13.537 -0.1798 -0.1193  2.3008
14856TIP3    H265984   6.774   2.375  13.545 -0.4978 -0.9181 -1.6303
14857TIP3   OH265985   1.443   1.420   0.395  0.2408  0.9358  0.0241
14857TIP3    H165986   1.360   1.374   0.384  0.2686  1.0595 -0.7410
14857TIP3    H265987   1.425   1.487   0.460 -0.2511  0.9349 -0.1074
14858TIP3   OH265988   5.872   0.372  13.455 -0.1875  0.3312 -0.6224
14858TIP3    H165989   5.803   0.421  13.410 -0.3710 -0.4805 -1.2211
14858TIP3    H265990   5.881   0.291  13.405  0.2388 -0.1723  0.2659
14859TIP3   OH265991   1.442   3.601   6.546  0.8581 -0.2817  0.2010
14859TIP3    H165992   1.431   3.543   6.471  0.7613  1.9428 -1.5825
14859TIP3    H265993   1.533   3.592   6.571  0.6545 -1.7536  0.4224
14860TIP3   OH265994   4.327   3.040  16.226 -0.2538 -0.6350 -0.6931
14860TIP3    H165995   4.335   2.947  16.205 -2.6172 -1.0424  0.0887
14860TIP3    H265996   4.317   3.082  16.140 -2.1661 -1.4502 -0.8972
14861TIP3   OH265997   2.349   6.258   1.132 -0.4475  0.1726 -0.0018
14861TIP3    H165998   2.409   6.185   1.150 -1.0324 -0.7499 -1.6373
14861TIP3    H265999   2.402   6.336   1.142 -0.1586 -0.3894  3.2143
14862TIP3   OH266000   6.014   5.655  17.019 -0.4838  0.0112  0.7455
14862TIP3    H166001   6.092   5.677  17.070 -0.3482 -0.2334  0.6412
14862TIP3    H266002   5.945   5.709  17.058 -0.0848  0.8486  0.3010
14863TIP3   OH266003   4.742   6.331  14.787  0.6021 -0.2986 -0.2236
14863TIP3    H166004   4.764   6.240  14.768  1.8459 -0.3032  1.1734
14863TIP3    H266005   4.731   6.333  14.882  0.0550  0.9009 -0.3102
14864TIP3   OH266006   2.566   5.795   0.680 -0.4492  0.4672 -0.0703
14864TIP3    H166007   2.549   5.709   0.640  0.3283  0.8753 -1.2899
14864TIP3    H266008   2.485   5.845   0.665 -1.2803 -0.3471  1.4966
14865TIP3   OH266009   3.229   6.181   5.365  0.0808 -0.3440  0.3573
14865TIP3    H166010   3.209   6.256   5.422 -2.0037 -1.0159  0.5499
14865TIP3    H266011   3.265   6.221   5.286 -0.0218  0.7968  0.8645
14866TIP3   OH266012   6.779   0.562  11.704  0.1291 -0.2475 -0.0147
14866TIP3    H166013   6.692   0.557  11.743 -0.1651 -2.9162 -0.9163
14866TIP3    H266014   6.823   0.632  11.752 -1.8236 -0.2473  1.8458
14867TIP3   OH266015   0.467   5.862  16.115 -0.1588 -0.1876 -0.0631
14867TIP3    H166016   0.520   5.872  16.193 -1.1658 -0.2725  0.6486
14867TIP3    H266017   0.514   5.800  16.060  1.3430  1.0748 -0.2326
14868TIP3   OH266018   3.166   5.497   3.806  0.6742  0.3453 -0.2735
14868TIP3    H166019   3.184   5.584   3.841  2.3217  0.1864 -0.7042
14868TIP3    H266020   3.237   5.481   3.744 -1.1292 -0.1757 -2.2538
14869TIP3   OH266021   2.312   6.441  13.229 -0.1335 -0.1521  0.2495
14869TIP3    H166022   2.241   6.453  13.292 -0.6561  0.3348 -0.4359
14869TIP3    H266023   2.289   6.362  13.181  0.1895 -0.4385  0.5612
14870TIP3   OH266024   2.068   4.954  12.670 -0.3227  0.8567 -0.2518
14870TIP3    H166025   2.137   4.913  12.722 -0.9967  0.2065  0.1339
14870TIP3    H266026   2.039   5.028  12.724 -0.3034  0.8047 -0.1704
14871TIP3   OH266027   2.804   5.256  12.332  0.4230  0.7976  0.1705
14871TIP3    H166028   2.897   5.233  12.335  0.2449 -0.3182 -1.8703
14871TIP3    H266029   2.772   5.234  12.419  1.5982 -0.9646  0.1965
14872TIP3   OH266030   4.773   3.633   1.347 -0.1171  0.4182  0.0442
14872TIP3    H166031   4.786   3.667   1.258  0.0338 -1.3304 -0.6300
14872TIP3    H266032   4.709   3.562   1.336  1.5411 -1.2884  0.9484
14873TIP3   OH266033   6.360   2.947  11.588 -0.2576 -0.8633 -0.3758
14873TIP3    H166034   6.266   2.955  11.606 -0.1924  0.4467 -0.5698
14873TIP3    H266035   6.365   2.886  11.514 -1.0938  0.7724 -1.8027
14874TIP3   OH266036   0.791   4.444  15.033 -0.1522  0.0968  0.4110
14874TIP3    H166037   0.740   4.508  15.083  0.7091  0.0195  1.4080
14874TIP3    H266038   0.834   4.496  14.965 -0.3001  0.4172  0.5594
14875TIP3   OH266039   3.396   1.475  16.819  0.5011  0.7360  0.3810
14875TIP3    H166040   3.317   1.482  16.872 -0.3383 -1.1009 -0.6224
14875TIP3    H266041   3.463   1.444  16.880  0.1778  1.1791  0.9645
14876TIP3   OH266042   4.747   6.028  11.038  0.2743  0.3378 -0.9926
14876TIP3    H166043   4.701   6.026  11.122  1.5938  0.0667 -0.2772
14876TIP3    H266044   4.762   6.121  11.021  1.3187  0.3274 -0.1967
14877TIP3   OH266045   2.965   1.730   6.124  0.0463  0.1203 -0.3607
14877TIP3    H166046   2.911   1.785   6.181 -0.9512 -0.4620 -0.7308
14877TIP3    H266047   3.020   1.792   6.076  1.8756  0.5573  2.1628
14878TIP3   OH266048   2.683   4.229  12.069  0.2156 -0.0514 -0.0744
14878TIP3    H166049   2.662   4.319  12.093  0.3722 -0.2285  0.7576
14878TIP3    H266050   2.735   4.236  11.989  1.9652  0.7187  1.1074
14879TIP3   OH266051   0.674   4.565   5.785 -0.4108  0.1839 -0.0745
14879TIP3    H166052   0.581   4.561   5.763 -0.0251 -0.9501 -1.5524
14879TIP3    H266053   0.680   4.522   5.871 -1.1806 -0.1459 -0.1864
14880TIP3   OH266054   3.201   4.530   2.451 -0.3883  0.5691 -0.1753
14880TIP3    H166055   3.145   4.457   2.477  1.7697 -1.3803 -0.8652
14880TIP3    H266056   3.172   4.552   2.363  0.1592 -0.6868 -0.6798
14881TIP3   OH266057   6.710   2.493  15.669  0.3272 -0.2156 -0.2007
14881TIP3    H166058   6.625   2.480  15.627 -0.0268 -0.7818  0.6787
14881TIP3    H266059   6.704   2.581  15.708 -0.0473 -0.4764  0.3242
14882TIP3   OH266060   1.008   2.601   2.762  0.5914  0.0162  0.2897
14882TIP3    H166061   1.061   2.642   2.830  1.2005 -0.8629  0.3552
14882TIP3    H266062   1.047   2.630   2.680 -0.3124  1.2988  0.3002
14883TIP3   OH266063   2.812   2.930   2.127  0.5301  0.2103 -0.5458
14883TIP3    H166064   2.724   2.904   2.099  1.0740 -1.6247 -0.5770
14883TIP3    H266065   2.841   2.859   2.184  2.1703  0.5965 -0.8905
14884TIP3   OH266066   2.943   4.364  16.611  0.5548  0.0270 -0.0442
14884TIP3    H166067   2.925   4.283  16.659 -0.0303  1.1446  1.7087
14884TIP3    H266068   3.020   4.345  16.558  1.3392 -1.2429  1.4885
14885TIP3   OH266069   1.986   2.107  15.067  0.0440  0.2554  0.5684
14885TIP3    H166070   2.072   2.128  15.028 -0.0911 -0.6631 -0.2442
14885TIP3    H266071   1.952   2.036  15.012 -0.9818  0.2190  1.2490
14886TIP3   OH266072   0.502   5.799  10.843 -0.1192  0.0477  0.0212
14886TIP3    H166073   0.544   5.858  10.905  1.6023 -1.1480  0.0512
14886TIP3    H266074   0.503   5.846  10.760 -1.1985  1.1123  0.6016
14887TIP3   OH266075   3.896   6.097  11.743  0.3637  0.1336  0.3701
14887TIP3    H166076   3.920   6.040  11.670 -1.2241 -0.3374  0.1987
14887TIP3    H266077   3.905   6.041  11.821  0.6115  0.1944  0.3829
14888TIP3   OH266078   2.795   2.680  13.027  0.9576  0.3148  0.0151
14888TIP3    H166079   2.765   2.683  13.118  0.3968  0.1929 -0.1659
14888TIP3    H266080   2.778   2.769  12.994 -0.0054  0.0058 -0.3402
14889TIP3   OH266081   4.701   0.287  14.798  0.5658  0.4074  0.1531
14889TIP3    H166082   4.655   0.356  14.846  0.3060 -1.5031  2.6798
14889TIP3    H266083   4.643   0.267  14.724 -1.1414  0.2820  1.5002
14890TIP3   OH266084   0.958   0.304  11.727  0.1087 -0.0705  0.2033
14890TIP3    H166085   0.922   0.233  11.673 -0.8321 -3.0797  4.4926
14890TIP3    H266086   0.905   0.303  11.807  1.2571  4.3485  1.1462
14891TIP3   OH266087   6.103   3.755  12.734  0.1674  0.1619  0.4011
14891TIP3    H166088   6.195   3.751  12.707  0.7844  0.4139  2.3849
14891TIP3    H266089   6.096   3.690  12.804 -1.5623 -0.9665 -0.7966
14892TIP3   OH266090   5.164   2.573  14.600  0.2230 -0.3307  0.2221
14892TIP3    H166091   5.172   2.521  14.679 -1.3839  1.3148  1.5245
14892TIP3    H266092   5.206   2.656  14.621  2.8365 -1.0607 -1.8508
14893TIP3   OH266093   3.516   3.173  11.900  0.3176 -0.0864  0.4586
14893TIP3    H166094   3.481   3.262  11.897  0.0829 -0.2176 -1.3102
14893TIP3    H266095   3.440   3.116  11.888  0.5279 -0.5161  1.1282
14894TIP3   OH266096   5.725   3.437  15.936  0.1115 -0.4815 -0.2767
14894TIP3    H166097   5.751   3.447  16.027  0.9494 -1.9482 -0.3260
14894TIP3    H266098   5.808   3.441  15.887 -0.0762 -2.0253 -0.7479
14895TIP3   OH266099   3.885   2.520   6.552  0.4343 -0.3428 -0.1108
14895TIP3    H166100   3.798   2.508   6.591  0.0110 -1.1970 -1.2779
14895TIP3    H266101   3.902   2.437   6.507  1.2585  0.3305 -1.0477
14896TIP3   OH266102   5.410   6.348   2.399  0.0852 -0.2769 -0.2546
14896TIP3    H166103   5.415   6.441   2.419  0.4281 -0.3556  0.0198
14896TIP3    H266104   5.401   6.345   2.304 -0.2787  0.0472 -0.2331
14897TIP3   OH266105   5.883   4.428   5.673 -0.0226 -0.1164 -0.4926
14897TIP3    H166106   5.963   4.378   5.690 -0.4535 -0.4667  0.5817
14897TIP3    H266107   5.881   4.439   5.578  0.9506 -0.6888 -0.5890
14898TIP3   OH266108   5.536   1.778   4.111  0.3132  0.0851  0.1487
14898TIP3    H166109   5.509   1.804   4.199  0.9502  0.5663  0.1970
14898TIP3    H266110   5.532   1.859   4.059 -0.2086 -0.2244 -0.3042
14899TIP3   OH266111   4.174   0.444   2.176  0.7951  0.2067 -0.0699
14899TIP3    H166112   4.222   0.438   2.094 -1.1901  0.9111 -1.3114
14899TIP3    H266113   4.087   0.475   2.151 -0.2073 -0.6706  2.1588
14900TIP3   OH266114   5.990   6.002  16.634  0.5408  0.7237 -0.0553
14900TIP3    H166115   5.896   6.010  16.652  0.3145  0.4486 -1.0940
14900TIP3    H266116   6.012   6.083  16.587  1.4353  2.1157  2.6301
14901TIP3   OH266117   1.398   0.968  14.861 -0.2910 -0.3318  0.2937
14901TIP3    H166118   1.392   1.003  14.772 -0.0075 -2.1328 -0.4745
14901TIP3    H266119   1.491   0.972  14.882  0.2017 -3.2751 -0.9803
14902TIP3   OH266120   4.489   1.638   1.699 -0.2079  0.3106 -0.0494
14902TIP3    H166121   4.576   1.611   1.667 -0.4525  1.4349 -1.7213
14902TIP3    H266122   4.448   1.680   1.623 -1.0639  2.4834  1.5651
14903TIP3   OH266123   1.302   3.472   2.209 -0.1559  0.3304 -0.2949
14903TIP3    H166124   1.348   3.550   2.240 -0.6322  1.4268 -2.2615
14903TIP3    H266125   1.210   3.490   2.225 -0.4055  0.8698 -2.1399
14904TIP3   OH266126   5.632   1.114   3.602  0.2233  0.0282  0.4135
14904TIP3    H166127   5.716   1.071   3.620 -0.6957 -1.9190  0.2899
14904TIP3    H266128   5.572   1.074   3.666 -0.8784  0.4401 -0.3575
14905TIP3   OH266129   2.793   3.738  13.674  0.1818 -0.2902 -0.2533
14905TIP3    H166130   2.785   3.821  13.722 -2.0316  0.0577 -1.1747
14905TIP3    H266131   2.842   3.681  13.733 -1.8680  0.3698  2.1826
14906TIP3   OH266132   5.943   5.962   0.806  0.0002 -0.5361 -0.3359
14906TIP3    H166133   5.952   5.891   0.869  0.1901  0.6577  1.0043
14906TIP3    H266134   5.883   6.024   0.847  0.4845  0.4761 -1.1287
14907TIP3   OH266135   0.737   0.505  15.178 -0.1888  0.1469  0.8035
14907TIP3    H166136   0.692   0.589  15.184 -0.3009 -0.0050  2.0908
14907TIP3    H266137   0.690   0.458  15.109 -0.8169  0.7094  0.8373
14908TIP3   OH266138   5.018   6.507   5.537 -0.5404 -0.6663 -0.3411
14908TIP3    H166139   4.976   6.586   5.503 -0.0559 -0.2352  0.0682
14908TIP3    H266140   5.107   6.510   5.502 -0.7480 -1.4440 -0.9819
14909TIP3   OH266141   5.706   3.953  12.880 -0.2870  0.3143  0.1534
14909TIP3    H166142   5.675   3.950  12.970  1.9317 -0.2611  0.9501
14909TIP3    H266143   5.700   4.045  12.855 -0.0991  0.6175  1.1953
14910TIP3   OH266144   3.252   3.415  12.918 -0.3201 -0.4445 -0.0256
14910TIP3    H166145   3.283   3.500  12.949  0.6840  0.0221 -2.1888
14910TIP3    H266146   3.161   3.410  12.945  0.4796 -0.0351  2.8529
14911TIP3   OH266147   1.036   2.642  13.998 -0.3705 -0.5155  0.0293
14911TIP3    H166148   0.988   2.718  14.029  0.0236 -1.1351  2.2828
14911TIP3    H266149   1.103   2.678  13.940 -1.6689  0.6103 -0.8026
14912TIP3   OH266150   4.247   3.865  16.728 -0.6721 -0.1574 -0.5998
14912TIP3    H166151   4.339   3.852  16.750 -1.1883 -2.0406  0.5502
14912TIP3    H266152   4.224   3.949  16.768  0.0318 -0.6206  0.8014
14913TIP3   OH266153   2.155   0.699   2.000 -0.3225  0.3453  0.2346
14913TIP3    H166154   2.217   0.772   2.008  0.9219 -0.5641 -0.8434
14913TIP3    H266155   2.144   0.687   1.906 -1.6224  0.0542  0.4159
14914TIP3   OH266156   2.965   3.561   3.674 -0.4154  0.5249  0.1594
14914TIP3    H166157   3.057   3.564   3.699 -0.5109 -0.8149  0.7292
14914TIP3    H266158   2.922   3.622   3.734  0.0629  0.9657  0.0583
14915TIP3   OH266159   1.467   1.687   1.394 -0.0584 -0.0587 -0.1873
14915TIP3    H166160   1.436   1.625   1.459  0.5315  0.2459  0.3923
14915TIP3    H266161   1.506   1.632   1.326  0.8890 -0.3090  0.5469
14916TIP3   OH266162   2.135   5.397   2.617 -0.7222 -0.4806  0.3535
14916TIP3    H166163   2.128   5.367   2.526  0.2346 -3.0064  1.0930
14916TIP3    H266164   2.162   5.489   2.609  0.4594 -0.9796 -1.9129
14917TIP3   OH266165   0.255   4.285   2.395  0.1940  0.4339  0.4544
14917TIP3    H166166   0.271   4.270   2.488  0.1246 -0.6651  0.2986
14917TIP3    H266167   0.161   4.300   2.389  0.3569  1.5290  0.6937
14918TIP3   OH266168   1.607   1.204   5.873 -0.1202 -0.0195  0.4643
14918TIP3    H166169   1.519   1.207   5.834  0.5366  0.2615 -1.0282
14918TIP3    H266170   1.636   1.295   5.876  0.5161 -0.2038  0.0232
14919TIP3   OH266171   2.391   5.148   1.086 -0.8864  0.2164 -0.1989
14919TIP3    H166172   2.485   5.137   1.074 -0.6033  1.5331  0.7669
14919TIP3    H266173   2.367   5.080   1.149 -0.2669  0.9854  0.8852
14920TIP3   OH266174   2.114   0.973  15.063  0.1686 -0.4740 -0.3585
14920TIP3    H166175   2.027   0.984  15.103  0.4189  0.0742  0.0398
14920TIP3    H266176   2.095   0.958  14.971 -0.3278  0.2206 -0.3748
14921TIP3   OH266177   1.805   4.231   2.884 -0.0727  0.0569 -0.4515
14921TIP3    H166178   1.790   4.284   2.806  0.6368 -0.2740 -0.8214
14921TIP3    H266179   1.883   4.179   2.863  0.1148 -0.0458  0.4682
14922TIP3   OH266180   0.000   5.049   0.912  0.3524 -0.3207  0.1330
14922TIP3    H166181  -0.040   4.995   0.979  2.3364 -1.7865  0.1788
14922TIP3    H266182   0.084   5.075   0.950  0.9049 -0.0600 -1.2482
14923TIP3   OH266183   0.605   2.715  11.310 -0.0324 -0.5895  0.4788
14923TIP3    H166184   0.615   2.759  11.225  0.0337 -0.3428  0.6133
14923TIP3    H266185   0.621   2.784  11.374 -1.3515 -0.4794  0.6935
14924TIP3   OH266186   0.994   0.980   5.275  0.4302  0.1421 -0.0099
14924TIP3    H166187   0.959   1.037   5.206 -0.3047  1.5862  1.5129
14924TIP3    H266188   1.085   1.008   5.285  0.4526  0.1345 -0.1887
14925TIP3   OH266189   0.682   1.476  12.026  0.3774  0.0958 -0.0182
14925TIP3    H166190   0.654   1.472  12.118  1.3051 -0.6103  0.2392
14925TIP3    H266191   0.602   1.498  11.978 -0.5458 -1.4510  0.7521
14926TIP3   OH266192   5.716   5.026  12.373  0.1071 -0.2117  0.1198
14926TIP3    H166193   5.784   4.958  12.376 -0.1786 -0.5714 -1.1666
14926TIP3    H266194   5.754   5.100  12.420  1.1180 -0.6382 -0.0064
14927TIP3   OH266195   0.566   4.269   0.092  0.4221 -0.0688 -1.1641
14927TIP3    H166196   0.606   4.309   0.015  1.2395 -1.9592 -1.7459
14927TIP3    H266197   0.510   4.200   0.058  0.2888 -0.5020 -0.0946
14928TIP3   OH266198   4.036   5.432  17.124 -0.6102 -0.8224 -0.2766
14928TIP3    H166199   4.018   5.447  17.031  0.9467 -0.7683 -0.5818
14928TIP3    H266200   3.975   5.362  17.149 -2.4635  0.5577 -0.8010
14929TIP3   OH266201   6.713   4.324   3.024  0.0907 -0.3606  0.4187
14929TIP3    H166202   6.753   4.318   3.110 -0.8298  0.4284  0.9144
14929TIP3    H266203   6.627   4.362   3.040  0.2351  0.5941 -0.9427
14930TIP3   OH266204   6.388   1.211   3.944 -0.0316 -0.2096  0.9741
14930TIP3    H166205   6.294   1.224   3.957  0.0277 -0.1858  1.3627
14930TIP3    H266206   6.426   1.218   4.031  0.3928  0.3023  0.7544
14931TIP3   OH266207   3.305   4.239  12.349  0.1627  0.3271  0.7231
14931TIP3    H166208   3.304   4.180  12.275 -0.7432 -0.6096  1.4721
14931TIP3    H266209   3.320   4.326  12.311 -0.9386 -0.0513 -0.6026
14932TIP3   OH266210   3.347   3.101   3.751  0.2198  0.3864  0.6026
14932TIP3    H166211   3.271   3.096   3.809 -0.1016 -0.8861  0.0879
14932TIP3    H266212   3.327   3.174   3.692 -0.8684 -0.2764  0.1208
14933TIP3   OH266213   6.040   6.377  12.881  0.7919  0.2225  0.0158
14933TIP3    H166214   6.112   6.436  12.902  1.7163 -1.4711  1.7835
14933TIP3    H266215   5.995   6.363  12.965  0.0373 -0.8573 -0.5527
14934TIP3   OH266216   3.479   1.116  17.010 -0.7250  0.4298 -0.3867
14934TIP3    H166217   3.500   1.096  17.101 -0.3857  0.8957 -0.3582
14934TIP3    H266218   3.397   1.070  16.993 -1.4451  1.3600  0.5372
14935TIP3   OH266219   5.416   1.603   5.777 -0.2818 -0.7019 -0.3129
14935TIP3    H166220   5.337   1.561   5.742 -0.0524 -0.8799 -0.6199
14935TIP3    H266221   5.399   1.611   5.871 -1.2162  0.4400 -0.5557
14936TIP3   OH266222   5.551   4.078   4.367  0.0632 -0.7674 -0.4456
14936TIP3    H166223   5.456   4.074   4.372  0.0337  0.6443  0.3759
14936TIP3    H266224   5.581   4.052   4.454  0.3321  1.1522  0.0621
14937TIP3   OH266225   3.923   0.615   0.243  0.3580 -0.5231  0.0511
14937TIP3    H166226   3.934   0.523   0.266 -0.0818 -0.3830  0.8149
14937TIP3    H266227   3.854   0.647   0.301 -1.1446 -0.3022 -1.8006
14938TIP3   OH266228   2.587   3.927  13.763  0.0198  0.0838 -0.2703
14938TIP3    H166229   2.515   3.990  13.760  0.9361  1.1572  0.0945
14938TIP3    H266230   2.588   3.896  13.853  0.0296  0.0954 -0.2657
14939TIP3   OH266231   5.168   4.436   4.054  0.1019  0.2100 -0.0796
14939TIP3    H166232   5.209   4.520   4.076 -1.8170  1.2760 -0.3972
14939TIP3    H266233   5.180   4.382   4.132  2.3262  0.3930 -0.2808
14940TIP3   OH266234   3.863   1.557   4.753  0.3074  0.3093 -0.0004
14940TIP3    H166235   3.818   1.485   4.708 -1.1025  0.2678  1.4191
14940TIP3    H266236   3.954   1.549   4.725  0.2444 -2.2424  0.3497
14941TIP3   OH266237   6.100   0.584   2.418  0.0192 -0.2156 -0.0269
14941TIP3    H166238   6.024   0.639   2.440  0.5821  0.1618  0.9788
14941TIP3    H266239   6.114   0.530   2.496  1.7125  0.7787  0.3636
14942TIP3   OH266240   3.773   2.716   2.455 -0.6242 -0.5637  0.0570
14942TIP3    H166241   3.778   2.670   2.371 -0.0476 -0.5006  0.0597
14942TIP3    H266242   3.811   2.655   2.519  1.1325  0.3480 -0.1160
14943TIP3   OH266243   1.795   6.077   1.072 -0.4245 -0.1309 -0.2625
14943TIP3    H166244   1.764   5.993   1.039 -0.4567  0.4027 -1.6364
14943TIP3    H266245   1.716   6.123   1.100 -0.5186 -0.1061 -0.5731
14944TIP3   OH266246   5.988   6.599   2.032 -0.0881 -0.4088 -0.1556
14944TIP3    H166247   6.005   6.505   2.040 -0.6174 -0.3342  2.0765
14944TIP3    H266248   6.064   6.641   2.071 -0.4299  0.0626  0.0081
14945TIP3   OH266249   4.863   5.724  13.606  0.0436  0.3257  0.5354
14945TIP3    H166250   4.786   5.669  13.615  0.5971 -0.3518  1.1327
14945TIP3    H266251   4.926   5.690  13.670  1.3185  0.0659 -0.8234
14946TIP3   OH266252   1.628   1.723   5.346 -0.2549  0.1069 -0.4348
14946TIP3    H166253   1.633   1.800   5.402 -1.9478  2.3517 -3.1921
14946TIP3    H266254   1.719   1.697   5.331  0.2616  0.4184  1.9889
14947TIP3   OH266255   3.204   1.626  13.664 -0.1141 -0.1173  0.2910
14947TIP3    H166256   3.166   1.616  13.751 -0.5326  2.2623  0.4196
14947TIP3    H266257   3.132   1.658  13.610  0.7106  0.6765 -0.3635
14948TIP3   OH266258   5.053   6.012   1.280 -0.8338  0.2032 -0.6039
14948TIP3    H166259   5.007   5.931   1.300  0.5062 -0.5132 -0.3384
14948TIP3    H266260   4.990   6.081   1.301 -1.0446 -0.6733  1.8240
14949TIP3   OH266261   6.735   4.279  17.056  0.4791 -0.3700  0.2643
14949TIP3    H166262   6.670   4.328  17.106  0.1915 -0.0118 -0.4447
14949TIP3    H266263   6.810   4.338  17.049 -0.0582  0.1926 -1.0226
14950TIP3   OH266264   1.357   4.311  15.995  0.7080 -0.7838 -0.5752
14950TIP3    H166265   1.289   4.266  16.046  1.6313 -1.0205  0.4851
14950TIP3    H266266   1.331   4.299  15.904 -2.4227  1.8766 -0.1321
14951TIP3   OH266267   0.596   0.551   0.762  0.0991 -0.4026  0.1789
14951TIP3    H166268   0.658   0.481   0.786 -0.1732 -0.4683  0.6919
14951TIP3    H266269   0.561   0.581   0.846  2.5637  2.5319  0.2487
14952TIP3   OH266270   5.291   6.255  15.050  0.4714 -0.0385  0.2794
14952TIP3    H166271   5.279   6.269  15.144 -2.9333  1.6778 -0.3355
14952TIP3    H266272   5.308   6.342  15.014  0.0128 -0.4309 -0.9227
14953TIP3   OH266273   4.604   3.421   1.239  0.0357  0.4228  0.4035
14953TIP3    H166274   4.601   3.424   1.143  0.8962  0.1283  0.3667
14953TIP3    H266275   4.675   3.360   1.259 -2.0045 -1.8025  1.2163
14954TIP3   OH266276   2.515   0.102  13.199  0.3849  0.0106 -0.2107
14954TIP3    H166277   2.482   0.094  13.110  1.2323 -1.0464 -0.4462
14954TIP3    H266278   2.438   0.089  13.254  0.0682 -0.5730 -0.7775
14955TIP3   OH266279   2.483   5.298   3.583 -0.2247 -0.1610 -0.4442
14955TIP3    H166280   2.452   5.225   3.636 -0.8051 -1.5122 -2.5751
14955TIP3    H266281   2.533   5.257   3.512 -0.5192  1.4969 -1.6553
14956TIP3   OH266282   1.869   5.258   3.031 -0.1591  0.0273 -0.2421
14956TIP3    H166283   1.850   5.341   3.074 -0.0622  0.5695 -1.2524
14956TIP3    H266284   1.865   5.193   3.102 -2.0656  0.6294  0.2057
14957TIP3   OH266285   2.024   6.006   5.309  0.1527  0.3110  0.3164
14957TIP3    H166286   2.023   5.911   5.293  1.4316  0.5930 -1.6442
14957TIP3    H266287   1.936   6.035   5.284  0.0506 -0.2443  0.0180
14958TIP3   OH266288   5.517   4.341   4.684  0.9060 -0.2640  0.0495
14958TIP3    H166289   5.517   4.246   4.695 -2.0164 -0.3440 -0.1696
14958TIP3    H266290   5.529   4.355   4.590  1.0353 -0.4337  0.0419
14959TIP3   OH266291   5.003   6.544  14.723  0.2614  0.7109 -0.0338
14959TIP3    H166292   4.914   6.571  14.744  0.4707  1.0223  0.4684
14959TIP3    H266293   5.013   6.458  14.764  0.2955  0.8158  0.1798
14960TIP3   OH266294   1.462   3.616  14.358 -0.7769  0.1438 -0.2248
14960TIP3    H166295   1.505   3.609  14.272  0.2894 -0.0147  0.3157
14960TIP3    H266296   1.369   3.622  14.337 -0.5222  0.1949 -1.4042
14961TIP3   OH266297   0.542   5.787  11.997  0.0341 -0.9460 -0.5864
14961TIP3    H166298   0.512   5.835  11.920  3.2384 -4.1467 -3.9669
14961TIP3    H266299   0.477   5.718  12.009 -0.3014 -0.6289 -0.5533
14962TIP3   OH266300   2.487   1.571   4.390 -0.2620  0.2847 -0.3403
14962TIP3    H166301   2.580   1.552   4.404 -0.9640 -2.4019  1.0349
14962TIP3    H266302   2.459   1.504   4.328 -1.7906 -0.4056  1.0685
14963TIP3   OH266303   5.774   2.648  16.908 -0.2064  0.2396  0.3387
14963TIP3    H166304   5.807   2.570  16.953  0.2891 -0.6996 -1.5830
14963TIP3    H266305   5.725   2.614  16.833 -1.9017  1.7374  0.7359
14964TIP3   OH266306   3.991   2.865  10.845 -0.4595  0.5277  0.1056
14964TIP3    H166307   3.989   2.848  10.939 -1.5112  0.4988  0.0848
14964TIP3    H266308   4.014   2.780  10.806 -0.5989  0.3992  0.3015
14965TIP3   OH266309   0.641   3.444   0.919 -0.4139  0.2018 -0.2898
14965TIP3    H166310   0.690   3.377   0.872 -0.3100  0.0582  0.0211
14965TIP3    H266311   0.666   3.432   1.011 -1.0994  0.0737 -0.1226
14966TIP3   OH266312   0.342   1.931   5.534  0.8304 -0.7102 -0.9967
14966TIP3    H166313   0.355   1.882   5.615  2.9509 -0.3285 -1.0959
14966TIP3    H266314   0.359   2.022   5.559 -0.5092 -0.3213 -1.4265
14967TIP3   OH266315   4.837   6.168  16.081 -0.1084 -0.3776  0.2831
14967TIP3    H166316   4.887   6.205  16.008  2.6873  0.2899  2.4383
14967TIP3    H266317   4.764   6.123  16.039  1.6292 -0.3704 -2.9614
14968TIP3   OH266318   3.654   0.012   3.274 -0.0182  0.1905  0.7367
14968TIP3    H166319   3.609   0.017   3.189  0.5576 -0.7177  0.3740
14968TIP3    H266320   3.681   0.102   3.292 -2.4215  0.8471  1.2057
14969TIP3   OH266321   6.242   3.618   3.820 -0.4859  0.3575  0.3603
14969TIP3    H166322   6.334   3.621   3.792 -0.9032 -0.1709 -1.1260
14969TIP3    H266323   6.213   3.530   3.798 -0.9713  0.0687  2.1171
14970TIP3   OH266324   4.091   0.669  16.057 -0.2545  0.0506 -0.4256
14970TIP3    H166325   4.098   0.733  15.986 -0.5003  0.1478 -0.3643
14970TIP3    H266326   4.012   0.619  16.037 -1.8771  1.8887  1.2193
14971TIP3   OH266327   3.769   1.567   2.082 -0.0509  0.3512  0.0563
14971TIP3    H166328   3.758   1.577   2.176  2.9543 -0.7469  0.5798
14971TIP3    H266329   3.703   1.502   2.057 -1.0087  0.8133  1.3558
14972TIP3   OH266330   1.788   4.219  16.296  0.0110 -0.4273  0.1259
14972TIP3    H166331   1.800   4.124  16.293 -0.4583 -0.4408 -3.1842
14972TIP3    H266332   1.693   4.231  16.299  0.0746 -0.0541  0.7202
14973TIP3   OH266333   2.517   5.001   4.856  0.0062 -0.0297 -0.3625
14973TIP3    H166334   2.560   5.070   4.906 -1.1243  0.5537 -0.1713
14973TIP3    H266335   2.430   5.037   4.835 -0.2056 -0.9744 -1.1705
14974TIP3   OH266336   0.420   2.829   4.509 -0.1360 -0.0663  0.1951
14974TIP3    H166337   0.402   2.735   4.506  0.9044 -0.3191  1.0919
14974TIP3    H266338   0.336   2.871   4.491 -0.0699 -1.1501 -2.9876
14975TIP3   OH266339   5.563   3.560  14.789 -0.8098 -0.0841 -0.4230
14975TIP3    H166340   5.528   3.637  14.743  0.5494 -0.9826 -3.0592
14975TIP3    H266341   5.636   3.594  14.840 -1.5418  0.7162  0.1237
14976TIP3   OH266342   0.974   2.669   4.075  0.2856 -0.1117 -0.2746
14976TIP3    H166343   0.894   2.719   4.090 -0.2074 -0.2145 -2.3183
14976TIP3    H266344   1.031   2.730   4.027  1.2828 -0.1719  0.8205
14977TIP3   OH266345   4.270   4.578  14.817 -0.3537 -0.2038  0.3331
14977TIP3    H166346   4.252   4.608  14.727 -1.1182 -1.3127  0.1145
14977TIP3    H266347   4.209   4.627  14.871 -0.5366 -0.2314  0.1512
14978TIP3   OH266348   1.275   1.586  11.823  0.3405  0.3093  0.0423
14978TIP3    H166349   1.362   1.620  11.844  0.9040 -0.9669 -0.2153
14978TIP3    H266350   1.291   1.499  11.787 -0.9596  0.5715 -1.1943
14979TIP3   OH266351   6.444   6.149  10.367 -0.1166  0.5603  0.0037
14979TIP3    H166352   6.506   6.203  10.319 -0.2814  0.5100 -0.2674
14979TIP3    H266353   6.431   6.072  10.312  0.1971  0.1932  0.4430
14980TIP3   OH266354   5.244   0.559  14.735 -0.6543  0.3899  0.0076
14980TIP3    H166355   5.187   0.631  14.761 -1.0260 -0.0716  0.4556
14980TIP3    H266356   5.187   0.482  14.732 -0.3008  0.1461 -0.6596
14981TIP3   OH266357   2.586   4.681   4.045 -0.0315 -0.4300  0.1925
14981TIP3    H166358   2.513   4.621   4.060  1.1396 -2.1713 -0.8810
14981TIP3    H266359   2.661   4.623   4.027  1.4015  1.3364  0.3822
14982TIP3   OH266360   4.385   4.254   2.576  0.1656 -0.4228 -0.1841
14982TIP3    H166361   4.350   4.165   2.568 -0.2790 -0.3090  0.5147
14982TIP3    H266362   4.321   4.301   2.629 -0.3501  0.7235 -1.7851
14983TIP3   OH266363   5.045   0.006   0.753 -0.6153  0.1118 -0.2939
14983TIP3    H166364   5.106  -0.054   0.795  0.6135 -0.2081 -2.4856
14983TIP3    H266365   5.068   0.092   0.788 -0.6839 -0.3363  0.8922
14984TIP3   OH266366   4.797   6.317   5.519 -0.4392  0.4550 -0.0677
14984TIP3    H166367   4.805   6.408   5.549 -0.6725  0.4012  0.1576
14984TIP3    H266368   4.725   6.281   5.571 -1.0565  0.4526 -0.9143
14985TIP3   OH266369   1.279   3.482  16.115  0.1068 -0.0404 -0.1356
14985TIP3    H166370   1.206   3.486  16.053  0.2924  1.6917 -0.2768
14985TIP3    H266371   1.347   3.537  16.075  0.4453  0.6096  1.3172
14986TIP3   OH266372   4.617   1.234  10.878  0.7691 -0.5462 -0.2934
14986TIP3    H166373   4.602   1.269  10.966  0.7972 -1.7591  0.2074
14986TIP3    H266374   4.532   1.239  10.835  1.2034  2.0368 -0.9548
14987TIP3   OH266375   4.863   4.676   3.665  0.1286  0.2413  0.1316
14987TIP3    H166376   4.912   4.750   3.631 -1.1486  1.6092  1.1668
14987TIP3    H266377   4.925   4.630   3.722  1.0736  0.2026 -0.9078
14988TIP3   OH266378   1.375   4.117  14.327 -0.0211  0.3573  0.0457
14988TIP3    H166379   1.310   4.112  14.397 -0.2858  1.3519 -0.1269
14988TIP3    H266380   1.363   4.204  14.289  0.0436 -0.2122 -1.3088
14989TIP3   OH266381   0.418   0.255  13.588 -0.2376 -0.0269  0.1873
14989TIP3    H166382   0.468   0.242  13.507  0.2461  0.4577  0.4101
14989TIP3    H266383   0.445   0.341  13.620 -1.2841  0.2891  0.2581
14990TIP3   OH266384   1.206   4.764   4.351 -0.0005 -0.7299 -0.6159
14990TIP3    H166385   1.222   4.825   4.424 -0.1124  0.1876 -1.3505
14990TIP3    H266386   1.111   4.753   4.349  0.0404 -1.1947 -0.2833
14991TIP3   OH266387   4.079   0.061  14.896  0.1606 -0.1530 -0.1583
14991TIP3    H166388   4.100   0.092  14.808  1.3743  0.4442  0.3307
14991TIP3    H266389   3.997   0.105  14.918  0.9119  1.2807 -0.1942
14992TIP3   OH266390   4.144   5.266  16.845  0.0351  0.4560 -0.3455
14992TIP3    H166391   4.200   5.265  16.923  1.0960  2.1029 -1.0635
14992TIP3    H266392   4.096   5.348  16.852  0.2549  0.6833 -1.5254
14993TIP3   OH266393   0.153   1.988  11.921 -0.5481 -0.6793 -0.7391
14993TIP3    H166394   0.211   1.928  11.968  0.0774 -0.4611 -1.2130
14993TIP3    H266395   0.207   2.021  11.849 -0.9727  0.2622 -0.6222
14994TIP3   OH266396   4.585   0.572   3.859  0.0343  0.0162 -0.2746
14994TIP3    H166397   4.519   0.615   3.912 -0.0188  1.3111 -1.3671
14994TIP3    H266398   4.625   0.642   3.809  0.9356 -1.0169 -1.0275
14995TIP3   OH266399   2.149   0.213  14.193  0.1749 -0.4064  0.3314
14995TIP3    H166400   2.190   0.167  14.120 -1.9577  0.6160 -1.5981
14995TIP3    H266401   2.107   0.144  14.244  0.3958 -0.9874 -0.2643
14996TIP3   OH266402   4.608   3.020  16.946 -0.3013 -0.3502  0.4602
14996TIP3    H166403   4.572   2.969  17.019  0.5878  0.0771  1.2147
14996TIP3    H266404   4.548   3.094  16.937  0.7455  0.7518  2.1948
14997TIP3   OH266405   6.016   4.619  16.435 -0.3860  0.2561  0.1379
14997TIP3    H166406   5.987   4.600  16.524 -0.4952  2.6558  0.6568
14997TIP3    H266407   5.969   4.699  16.412 -0.3774 -0.3603 -2.0911
14998TIP3   OH266408   5.197   0.928  10.517  0.4510 -0.3334  0.6811
14998TIP3    H166409   5.140   0.862  10.477  0.5549 -0.2358  0.3701
14998TIP3    H266410   5.147   1.009  10.513  0.6104 -0.2478  0.4100
14999TIP3   OH266411   2.271   5.325   5.367  0.2370  0.2682  0.0018
14999TIP3    H166412   2.287   5.369   5.450  0.6619 -1.5858  0.9230
14999TIP3    H266413   2.211   5.254   5.389 -0.2090  0.1976 -1.4046
15000TIP3   OH266414   6.022   4.385   1.747 -0.5313  0.2561  0.2082
15000TIP3    H166415   6.053   4.305   1.789 -1.4587 -0.0369  0.3449
15000TIP3    H266416   5.929   4.389   1.768 -1.3487 -0.6194 -2.8653
15001TIP3   OH266417   5.656   1.466   4.054  0.3797  0.4995  0.2416
15001TIP3    H166418   5.596   1.488   4.125  0.7920 -0.2302  0.8205
15001TIP3    H266419   5.690   1.551   4.025  0.8251  0.7479  1.4606
15002TIP3   OH266420   0.126   0.152  14.355 -0.0525 -0.1901 -0.0401
15002TIP3    H166421   0.185   0.212  14.310 -0.0547 -1.5239 -1.8664
15002TIP3    H266422   0.178   0.118  14.428  0.6796  0.3232 -0.3158
15003TIP3   OH266423   6.268   4.148   1.604  0.1439 -0.1261 -0.4762
15003TIP3    H166424   6.233   4.238   1.606  0.8706  0.1478  0.7758
15003TIP3    H266425   6.192   4.093   1.587 -0.5089  0.6491 -0.1143
15004TIP3   OH266426   4.651   5.088  15.434 -0.3087 -0.2679  0.0348
15004TIP3    H166427   4.700   5.088  15.351  2.0292  0.4975  1.3788
15004TIP3    H266428   4.714   5.118  15.499 -1.9248 -1.5358  2.2388
15005TIP3   OH266429   4.357   1.964  14.015  0.3154  0.4107 -0.5588
15005TIP3    H166430   4.290   1.968  13.947 -1.6928 -1.5069  1.1933
15005TIP3    H266431   4.337   2.037  14.073 -2.7452 -2.3325  2.0376
15006TIP3   OH266432   4.485   5.420   5.795 -0.1133 -0.3848 -0.3405
15006TIP3    H166433   4.503   5.366   5.872  0.0838 -0.8410 -0.7061
15006TIP3    H266434   4.488   5.510   5.828  1.7032 -0.4956 -0.1514
15007TIP3   OH266435   6.067   6.493  12.225  0.2463 -0.4680  0.2478
15007TIP3    H166436   6.088   6.517  12.135  2.0020 -0.5926  0.6113
15007TIP3    H266437   6.071   6.398  12.227 -1.5351 -0.5634  0.0577
15008TIP3   OH266438   2.724   5.277   0.346  0.5303  0.8504 -0.1991
15008TIP3    H166439   2.660   5.261   0.276 -0.7278  2.7331  0.4774
15008TIP3    H266440   2.690   5.228   0.421 -0.8169  2.7897  0.5085
15009TIP3   OH266441   2.617   6.394   0.021 -0.0538  0.0999 -0.1672
15009TIP3    H166442   2.550   6.356   0.078  0.0495  0.1109 -0.0371
15009TIP3    H266443   2.609   6.346  -0.061 -2.0050  1.9254 -1.0819
15010TIP3   OH266444   3.326   4.605  14.516 -0.3260  0.0515  0.1288
15010TIP3    H166445   3.314   4.700  14.504 -0.1344  0.3489  2.0906
15010TIP3    H266446   3.416   4.589  14.492 -1.1797 -0.1439 -3.0676
15011TIP3   OH266447   0.153   4.239   1.987  0.0508 -0.2923  0.2548
15011TIP3    H166448   0.146   4.327   1.951  1.0127  0.0984  0.9799
15011TIP3    H266449   0.072   4.227   2.037  0.8053  0.9979  1.8576
15012TIP3   OH266450   5.685   5.812   2.116  0.2879 -0.6418 -0.1828
15012TIP3    H166451   5.704   5.900   2.150  0.3408  0.0182 -1.8643
15012TIP3    H266452   5.619   5.777   2.175 -0.9918  1.2247 -0.4760
15013TIP3   OH266453   3.759   3.971   2.924 -0.1658  0.2151  0.0133
15013TIP3    H166454   3.826   3.939   2.863  0.8526  1.6352  0.3783
15013TIP3    H266455   3.802   3.972   3.009 -1.2201 -0.5805  0.5770
15014TIP3   OH266456   3.408   6.327  12.215 -0.1612  0.0601 -0.1068
15014TIP3    H166457   3.401   6.418  12.187  0.2274  0.1378  0.0555
15014TIP3    H266458   3.501   6.308  12.213  0.0054  0.4573  2.4066
15015TIP3   OH266459   2.493   3.663   3.144 -0.0130 -0.1201  0.5295
15015TIP3    H166460   2.478   3.692   3.054 -0.0516 -0.0752  0.5503
15015TIP3    H266461   2.570   3.713   3.172 -1.2085  1.3693  1.2032
15016TIP3   OH266462   0.918   5.233  15.298  0.2451  0.3122  0.5313
15016TIP3    H166463   1.002   5.215  15.340  0.3382 -0.6261 -0.0315
15016TIP3    H266464   0.938   5.230  15.204 -0.2695  0.8455  0.4024
15017TIP3   OH266465   2.851   4.305  13.239 -1.0260 -0.5197  0.0955
15017TIP3    H166466   2.922   4.353  13.282 -0.1906 -1.8913  0.3035
15017TIP3    H266467   2.779   4.306  13.302  0.3911 -3.0245  1.8537
15018TIP3   OH266468   3.553   1.115   0.791 -0.3382  0.2798 -0.3602
15018TIP3    H166469   3.464   1.144   0.773  0.0581  0.7830 -1.5951
15018TIP3    H266470   3.598   1.121   0.707  1.9233  3.8689  0.9634
15019TIP3   OH266471   3.502   0.986   3.907  0.4645 -0.4353 -0.0136
15019TIP3    H166472   3.592   0.982   3.937 -0.1170 -1.3901  1.6564
15019TIP3    H266473   3.460   1.052   3.962  0.0126 -0.3815 -0.4171
15020TIP3   OH266474   0.980   5.738   4.761 -0.1874  0.4196 -0.0764
15020TIP3    H166475   0.924   5.811   4.735  0.7179  1.5465  1.0510
15020TIP3    H266476   0.929   5.691   4.827 -1.1438 -0.5148 -1.4662
15021TIP3   OH266477   0.249   4.682  17.176 -0.5370  0.2670 -0.3767
15021TIP3    H166478   0.224   4.749  17.112  0.4528  2.0422  1.0498
15021TIP3    H266479   0.213   4.601  17.141 -1.7107  1.5306 -2.1804
15022TIP3   OH266480   1.658   5.732   2.293  0.5980 -0.2731  1.0428
15022TIP3    H166481   1.597   5.803   2.272 -0.4732 -1.2986  0.5788
15022TIP3    H266482   1.736   5.752   2.243  0.4813  0.8213  1.2760
15023TIP3   OH266483   2.352   4.769  13.505  0.5985 -0.4578  0.1030
15023TIP3    H166484   2.388   4.806  13.424 -0.5901  0.8640  0.1537
15023TIP3    H266485   2.367   4.675  13.497  1.7337 -0.1960 -1.0229
15024TIP3   OH266486   5.038   2.710   3.664 -0.5378 -0.0603  0.9034
15024TIP3    H166487   5.081   2.636   3.708 -0.2727 -1.5971 -1.7707
15024TIP3    H266488   4.944   2.691   3.671 -0.5311  0.1271  1.5053
15025TIP3   OH266489   2.731   3.986   3.760  0.3861  0.0525  0.5143
15025TIP3    H166490   2.722   3.989   3.855  1.4812 -1.7416  0.6831
15025TIP3    H266491   2.680   3.910   3.733  0.5596  0.2078 -0.2655
15026TIP3   OH266492   6.560   4.918   0.553  0.5152  0.0114 -0.5417
15026TIP3    H166493   6.621   4.897   0.483  0.9466  1.3053 -0.5583
15026TIP3    H266494   6.488   4.856   0.541  1.9904 -1.7789 -0.2833
15027TIP3   OH266495   6.666   0.377   4.007  0.4893 -0.2139 -0.6434
15027TIP3    H166496   6.681   0.325   4.086 -1.4432 -0.8563 -0.6755
15027TIP3    H266497   6.609   0.322   3.953  0.0782  1.0990 -1.5593
15028TIP3   OH266498   4.960   0.157  16.760 -0.1938 -0.1445 -0.4586
15028TIP3    H166499   4.901   0.233  16.753 -0.1096 -0.1824 -1.6131
15028TIP3    H266500   5.045   0.190  16.733  0.3597 -0.0675  1.3113
15029TIP3   OH266501   0.962   5.513   2.785  0.0098  0.6036 -0.4780
15029TIP3    H166502   0.998   5.454   2.851  1.8682  2.2105 -0.0061
15029TIP3    H266503   0.994   5.600   2.810 -3.3301  1.9719 -0.6923
15030TIP3   OH266504   6.321   4.138  12.119  0.3030 -0.1942 -0.0521
15030TIP3    H166505   6.252   4.170  12.062  0.9768  0.6877 -0.3746
15030TIP3    H266506   6.362   4.067  12.070 -1.8501 -2.2980  1.0813
15031TIP3   OH266507   5.213   1.464   6.240  0.7205  0.2309  0.2841
15031TIP3    H166508   5.151   1.391   6.235 -0.9435  1.7027 -1.6294
15031TIP3    H266509   5.211   1.492   6.331  0.8728 -1.6708  0.8919
15032TIP3   OH266510   6.619   3.704   2.520 -0.5095  0.1862  0.6201
15032TIP3    H166511   6.653   3.728   2.433  0.1014  1.5309  1.2220
15032TIP3    H266512   6.567   3.625   2.504  1.4174 -0.8965 -0.6368
15033TIP3   OH266513   4.652   3.900   5.431  0.0468 -0.1385 -0.0835
15033TIP3    H166514   4.601   3.976   5.405 -0.1829 -0.1305  0.3928
15033TIP3    H266515   4.731   3.935   5.471 -0.6226 -0.1484  1.2466
15034TIP3   OH266516   1.616   5.381  10.757 -0.3757 -0.3654  0.6023
15034TIP3    H166517   1.521   5.391  10.751 -0.6993 -3.0209  0.6039
15034TIP3    H266518   1.651   5.461  10.717 -2.6017 -0.2910 -1.3077
15035TIP3   OH266519   3.706   3.351  13.656  0.7862  0.1242 -0.2421
15035TIP3    H166520   3.634   3.325  13.598  0.9655 -0.1839 -0.3276
15035TIP3    H266521   3.691   3.303  13.737  1.5739 -0.9141 -0.6842
15036TIP3   OH266522   2.222   4.161   4.819 -0.4605 -0.4262  0.5610
15036TIP3    H166523   2.176   4.241   4.842  1.1147  0.4250  0.8217
15036TIP3    H266524   2.264   4.133   4.900  1.8792  0.4326 -0.2999
15037TIP3   OH266525   5.200   6.373  16.894 -0.2231 -0.2355  0.1870
15037TIP3    H166526   5.133   6.431  16.858 -1.5345 -1.7622  0.1331
15037TIP3    H266527   5.206   6.301  16.832  0.6914 -0.6586  0.7540
15038TIP3   OH266528   6.304   1.286   2.808 -0.3227 -0.2803 -0.2676
15038TIP3    H166529   6.225   1.257   2.762 -0.9011  0.3831  0.3126
15038TIP3    H266530   6.279   1.368   2.850  0.7145 -0.0044 -0.1840
15039TIP3   OH266531   0.231   0.315   2.627 -0.3673 -0.4741 -0.2381
15039TIP3    H166532   0.268   0.245   2.681  0.1278 -1.2476 -1.5569
15039TIP3    H266533   0.140   0.324   2.657 -0.6775 -2.2473 -0.5952
15040TIP3   OH266534   4.402   5.730  15.812 -0.0075 -0.0734 -0.7891
15040TIP3    H166535   4.308   5.709  15.809  0.1823 -0.9276 -1.0197
15040TIP3    H266536   4.419   5.748  15.905 -0.7239  1.6962 -0.9725
15041TIP3   OH266537   4.556   2.116   2.602  0.0525 -0.4869 -0.5210
15041TIP3    H166538   4.564   2.127   2.697  1.0167 -0.7495 -0.5666
15041TIP3    H266539   4.611   2.185   2.565 -3.2621  2.0293 -0.9660
15042TIP3   OH266540   2.432   6.129   0.185 -0.2709 -0.7418 -0.2283
15042TIP3    H166541   2.363   6.114   0.120  1.1902 -2.3276 -1.4579
15042TIP3    H266542   2.418   6.061   0.250  0.1798 -1.1454 -0.5443
15043TIP3   OH266543   0.297   2.856  12.713  0.2965  0.5079  0.5810
15043TIP3    H166544   0.357   2.796  12.758 -0.4416  0.2133  1.1815
15043TIP3    H266545   0.216   2.851  12.764  0.1043  1.7117  0.3967
15044TIP3   OH266546   6.249   6.524  12.934  0.2942  0.0938 -0.3328
15044TIP3    H166547   6.222   6.603  12.979 -0.0529 -0.9476  1.3335
15044TIP3    H266548   6.305   6.554  12.862  0.0950  1.8281  0.2325
15045TIP3   OH266549   0.496   5.516  10.866 -0.3685 -0.5018  1.1807
15045TIP3    H166550   0.426   5.488  10.808  1.9277 -0.3129 -1.7646
15045TIP3    H266551   0.503   5.610  10.851  0.9956 -0.6433  0.9395
15046TIP3   OH266552   0.651   2.470  14.373  0.3715  0.1023 -0.4098
15046TIP3    H166553   0.605   2.521  14.440  2.4994  0.1229  1.0632
15046TIP3    H266554   0.685   2.535  14.312  0.2477  0.2081 -0.3664
15047TIP3   OH266555   6.053   3.729  13.356  0.1865  0.4854 -0.3925
15047TIP3    H166556   6.124   3.664  13.353  0.3544  0.6370  0.2125
15047TIP3    H266557   5.994   3.703  13.285  0.6759  0.1585 -0.6834
15048TIP3   OH266558   0.464   2.515  16.944 -0.2694  0.4443  0.2508
15048TIP3    H166559   0.383   2.481  16.982  0.1834  0.7225  1.5042
15048TIP3    H266560   0.516   2.543  17.020  1.9126 -1.7510 -0.3665
15049TIP3   OH266561   3.750   4.655   0.042 -0.3996 -0.0369 -0.0184
15049TIP3    H166562   3.767   4.731   0.097  1.7800 -1.1945  0.9546
15049TIP3    H266563   3.684   4.604   0.090 -0.5026  0.3218  0.2164
15050TIP3   OH266564   4.138   1.955   0.513  0.1104  0.1621  0.1550
15050TIP3    H166565   4.044   1.970   0.505 -0.0652 -1.3264 -0.8590
15050TIP3    H266566   4.177   2.040   0.492 -1.0174  1.0784  1.6462
15051TIP3   OH266567   2.937   3.079   6.743 -0.3341 -0.0277 -0.5344
15051TIP3    H166568   2.930   3.172   6.763 -1.4371  0.0664 -1.2867
15051TIP3    H266569   2.874   3.065   6.672 -0.3995 -1.4046 -0.2232
15052TIP3   OH266570   1.635   4.254  15.929 -0.7280 -0.0051 -0.0901
15052TIP3    H166571   1.551   4.281  15.967 -0.8458  0.0989 -0.4144
15052TIP3    H266572   1.626   4.159  15.916 -0.9939  0.0878 -0.6030
15053TIP3   OH266573   4.481   5.896  13.149  0.2708  0.0299 -0.1950
15053TIP3    H166574   4.416   5.903  13.079  0.0435  1.2045  0.1173
15053TIP3    H266575   4.500   5.987  13.173  1.7371 -0.3189 -0.0084
15054TIP3   OH266576   3.761   4.355  11.462  0.1033 -0.1045 -0.1500
15054TIP3    H166577   3.776   4.302  11.384  0.5527  0.5506 -0.5195
15054TIP3    H266578   3.677   4.398  11.447 -0.1704 -0.5560  0.0660
15055TIP3   OH266579   3.834   3.924  15.754 -0.4330  0.2189  0.3449
15055TIP3    H166580   3.922   3.924  15.792 -0.1748  1.0793 -0.2275
15055TIP3    H266581   3.823   4.013  15.720 -1.3229 -0.0371 -0.0541
15056TIP3   OH266582   1.852   4.360  10.853  0.0016  0.6565  0.0032
15056TIP3    H166583   1.808   4.308  10.785  1.6488  1.3522 -1.6382
15056TIP3    H266584   1.944   4.334  10.847  0.6135  2.7299  0.0997
15057TIP3   OH266585   3.551   0.800   0.737  0.5850 -0.0623 -0.2858
15057TIP3    H166586   3.610   0.875   0.747  1.2807 -0.6856  0.3932
15057TIP3    H266587   3.465   0.832   0.763  0.4769  1.0366 -1.8946
15058TIP3   OH266588   1.352   5.146  14.514 -0.3436 -0.2469  0.0213
15058TIP3    H166589   1.312   5.151  14.427 -1.2852 -2.2260  0.3045
15058TIP3    H266590   1.443   5.173  14.500 -1.4499  3.2466 -0.8409
15059TIP3   OH266591   5.916   5.206   4.582 -0.2763  0.0837 -0.3330
15059TIP3    H166592   5.970   5.223   4.659 -2.1468  0.6559  0.9172
15059TIP3    H266593   5.973   5.224   4.508  1.3474  0.2752  0.9238
15060TIP3   OH266594   5.528   2.761   1.480  0.4038 -0.2215 -0.2477
15060TIP3    H166595   5.488   2.810   1.551  2.2713 -1.1444  1.4968
15060TIP3    H266596   5.535   2.672   1.513 -0.7551 -1.1561 -2.4656
15061TIP3   OH266597   5.748   1.884   5.984 -0.1650  0.1748  0.2457
15061TIP3    H166598   5.662   1.925   5.980  0.7017  2.1015  0.5965
15061TIP3    H266599   5.804   1.950   6.026  0.8700 -2.1059  2.5295
15062TIP3   OH266600   5.596   4.779  13.212  0.1591 -0.9006 -0.3893
15062TIP3    H166601   5.542   4.731  13.149  0.1130 -1.1485 -0.1663
15062TIP3    H266602   5.658   4.713  13.244 -0.1542 -0.9130  0.2067
15063TIP3   OH266603   4.450   4.507  11.885 -0.4680  0.3056  0.0782
15063TIP3    H166604   4.455   4.548  11.971 -0.3904  1.5288 -0.4963
15063TIP3    H266605   4.539   4.514  11.849  0.4031 -3.3246  1.2672
15064TIP3   OH266606   4.442   4.063  16.037  0.4566  0.0756 -0.3035
15064TIP3    H166607   4.484   3.993  16.087 -1.2862  1.8706  3.8217
15064TIP3    H266608   4.359   4.026  16.007  0.0189  0.0217  0.9663
15065TIP3   OH266609   3.083   5.375   5.476  0.5618 -0.1076  0.6328
15065TIP3    H166610   3.055   5.288   5.503 -0.2710 -0.0193  0.0685
15065TIP3    H266611   3.110   5.418   5.558  0.6085 -0.7532  0.9601
15066TIP3   OH266612   3.563   3.090   4.475 -0.5701 -0.2947 -0.2293
15066TIP3    H166613   3.540   3.175   4.513  0.4939 -0.6315  1.2321
15066TIP3    H266614   3.658   3.091   4.471 -0.6396 -0.4555 -2.5357
15067TIP3   OH266615   5.606   5.770  15.388 -0.6545  0.4484 -0.4453
15067TIP3    H166616   5.568   5.781  15.475  0.0370 -0.7130  0.0200
15067TIP3    H266617   5.532   5.745  15.332 -0.9396  0.2496  0.0177
15068TIP3   OH266618   0.016   5.404   0.159 -0.4351 -0.3117  0.2316
15068TIP3    H166619   0.060   5.343   0.100 -2.2514  1.1472 -2.7408
15068TIP3    H266620   0.045   5.491   0.130 -1.9392  0.4700  0.9961
15069TIP3   OH266621   5.134   3.752  16.423  0.0094  0.3199  0.1524
15069TIP3    H166622   5.055   3.802  16.401  0.4349  0.1512 -1.8167
15069TIP3    H266623   5.116   3.664  16.392  0.9049  0.2375 -0.1431
15070TIP3   OH266624   3.570   2.983   2.948 -0.3554  0.1910 -0.0893
15070TIP3    H166625   3.659   2.988   2.982 -0.5020  1.9482  0.0822
15070TIP3    H266626   3.519   2.947   3.020  0.0993 -0.1874  0.0454
15071TIP3   OH266627   4.255   4.612  16.493  0.3000 -0.3197  0.1907
15071TIP3    H166628   4.230   4.573  16.409 -0.0858  0.8694 -0.2470
15071TIP3    H266629   4.217   4.700  16.492  1.7532  0.3316  0.8853
15072TIP3   OH266630   0.404   5.562   2.721 -0.1220  0.0717  0.3076
15072TIP3    H166631   0.370   5.535   2.636 -1.0250  0.1809  0.6270
15072TIP3    H266632   0.396   5.484   2.776  0.9359 -0.1445  0.1477
15073TIP3   OH266633   6.262   1.761  15.257  0.2508 -0.4594  0.0031
15073TIP3    H166634   6.232   1.808  15.335  2.1811  0.3977  0.2815
15073TIP3    H266635   6.316   1.690  15.292 -0.0958 -0.9706 -0.5109
15074TIP3   OH266636   5.880   2.332   2.708  0.4381 -0.0524  0.1304
15074TIP3    H166637   5.808   2.285   2.750  0.4448 -0.3693 -0.2152
15074TIP3    H266638   5.941   2.264   2.681  0.5974  0.1750 -0.0867
15075TIP3   OH266639   1.455   2.387  13.158 -0.0204  0.0053 -0.2118
15075TIP3    H166640   1.470   2.428  13.243 -0.0347 -0.1280 -0.1452
15075TIP3    H266641   1.475   2.456  13.095 -0.5983  0.2881 -0.0901
15076TIP3   OH266642   6.255   3.561  13.095  0.2047  0.5736 -0.1857
15076TIP3    H166643   6.208   3.513  13.027 -0.0364  1.1513 -0.4223
15076TIP3    H266644   6.221   3.650  13.090  0.3271  0.6677  0.5570
15077TIP3   OH266645   2.997   2.537  17.203 -0.5881  0.0083  0.3154
15077TIP3    H166646   3.006   2.527  17.298 -2.4929 -2.6042  0.2844
15077TIP3    H266647   3.063   2.478  17.166 -1.2707 -0.5818  0.0301
15078TIP3   OH266648   4.834   4.239  15.124  0.3765  0.7664 -0.2578
15078TIP3    H166649   4.780   4.266  15.198  1.2452  3.6998 -0.6238
15078TIP3    H266650   4.773   4.199  15.063 -0.8808  1.2307  0.6761
15079TIP3   OH266651   3.241   0.460  11.618  0.4546 -0.9435 -0.3439
15079TIP3    H166652   3.181   0.403  11.665 -0.9101  1.0875  0.4509
15079TIP3    H266653   3.316   0.469  11.677 -0.1407 -0.4353  0.3403
15080TIP3   OH266654   3.260   2.073  12.311  0.3232  0.0133  0.2505
15080TIP3    H166655   3.296   2.070  12.400  0.1302  1.8291  0.4158
15080TIP3    H266656   3.166   2.061  12.322  0.4405 -1.0220  0.1653
15081TIP3   OH266657   0.944   1.712   6.451  0.3365  0.0626 -0.4592
15081TIP3    H166658   0.990   1.629   6.454  0.0701 -0.1601 -2.0495
15081TIP3    H266659   0.961   1.753   6.536 -0.9452 -2.3603  1.0157
15082TIP3   OH266660   2.727   2.313  15.688  0.2654  0.4848  0.2507
15082TIP3    H166661   2.687   2.400  15.689  0.7021  0.6887  1.2087
15082TIP3    H266662   2.765   2.305  15.601 -1.7593  0.3172 -0.6257
15083TIP3   OH266663   6.460   0.651   2.287  0.0587  0.0647 -1.1274
15083TIP3    H166664   6.502   0.621   2.206  1.4240 -3.0139  0.6116
15083TIP3    H266665   6.370   0.619   2.280  0.1309 -0.0636 -1.4899
15084TIP3   OH266666   2.871   3.485   2.180  0.4087  0.2277 -0.1049
15084TIP3    H166667   2.914   3.542   2.116  1.3447  0.2720  0.5536
15084TIP3    H266668   2.901   3.397   2.159 -1.6793 -0.1656 -1.6423
15085TIP3   OH266669   2.033   0.756   0.821  0.4207  0.0541 -0.3683
15085TIP3    H166670   2.046   0.732   0.912 -1.0204  1.2744  0.1822
15085TIP3    H266671   2.067   0.682   0.771 -0.9681 -1.6837  1.1903
15086TIP3   OH266672   5.070   2.497   4.976  0.1606  0.3706  0.3277
15086TIP3    H166673   4.995   2.554   4.964  1.1145  1.3606 -1.1562
15086TIP3    H266674   5.087   2.498   5.070 -1.0757  0.8933  0.5531
15087TIP3   OH266675   5.434   6.290  10.318  0.8248  0.3926  0.2458
15087TIP3    H166676   5.491   6.252  10.385  0.2599  1.4560  1.3415
15087TIP3    H266677   5.395   6.367  10.360 -1.1956 -0.1514 -0.5741
15088TIP3   OH266678   3.565   5.537   1.406 -0.0944  0.0660  0.0154
15088TIP3    H166679   3.660   5.549   1.395 -0.0645  1.4387  1.5961
15088TIP3    H266680   3.553   5.442   1.401  1.3797 -0.1386 -0.0362
15089TIP3   OH266681   5.434   2.424   5.599  0.3774 -0.0119  0.4330
15089TIP3    H166682   5.523   2.454   5.581 -0.1200  0.8432 -0.6242
15089TIP3    H266683   5.446   2.339   5.642  1.6661 -0.6808 -1.1844
15090TIP3   OH266684   0.831   1.304  14.881 -0.1670  0.5367 -0.3789
15090TIP3    H166685   0.853   1.226  14.829 -1.1666  0.1787 -0.2872
15090TIP3    H266686   0.861   1.283  14.969  0.5440  0.6950 -0.5861
15091TIP3   OH266687   5.609   4.611   4.718 -0.3806  0.0988 -0.4843
15091TIP3    H166688   5.587   4.519   4.707  0.3299 -0.2804  1.1803
15091TIP3    H266689   5.577   4.634   4.805 -0.9595  1.5511 -1.0601
15092TIP3   OH266690   4.391   5.591  13.807 -0.5352  0.6307 -0.0103
15092TIP3    H166691   4.341   5.647  13.746  0.0663 -0.4641 -1.5572
15092TIP3    H266692   4.323   5.541  13.853 -0.9289 -0.6167 -1.8715
15093TIP3   OH266693   3.988   2.031  16.039 -0.1163  0.0038  0.0206
15093TIP3    H166694   3.962   2.119  16.012 -0.0859  0.5242  1.6292
15093TIP3    H266695   4.037   2.045  16.121 -1.3258 -1.6320  1.0420
15094TIP3   OH266696   2.804   3.884  15.657 -0.6800 -0.0291 -0.1047
15094TIP3    H166697   2.756   3.880  15.574  1.5034  2.6111 -1.6137
15094TIP3    H266698   2.883   3.832  15.642 -1.8686 -2.3910  1.5489
15095TIP3   OH266699   0.038   5.401   2.860  0.6462  0.2653  0.3366
15095TIP3    H166700   0.040   5.416   2.954  2.2894 -1.7110  0.6730
15095TIP3    H266701   0.046   5.488   2.821 -0.9308  1.1753  2.0036
15096TIP3   OH266702   6.747   5.126   3.640 -0.0310 -0.2160  0.0404
15096TIP3    H166703   6.792   5.194   3.590  0.6426 -0.3958  0.3968
15096TIP3    H266704   6.746   5.159   3.730  0.8114 -0.9350  0.3202
15097TIP3   OH266705   4.444   5.173  13.500 -0.1401  0.7085 -0.1896
15097TIP3    H166706   4.412   5.124  13.576 -1.8633  0.8058 -0.8215
15097TIP3    H266707   4.539   5.166  13.505 -0.3189 -1.5124  0.5093
15098TIP3   OH266708   0.731   5.576  15.178 -0.1547 -0.3969 -0.2138
15098TIP3    H166709   0.742   5.503  15.117  1.5727  1.0893 -1.7564
15098TIP3    H266710   0.732   5.654  15.122 -2.1584  0.8187  1.3795
15099TIP3   OH266711   2.531   6.374   4.118 -0.4484  0.4518  0.0037
15099TIP3    H166712   2.566   6.463   4.107 -1.1390  0.8534  1.0255
15099TIP3    H266713   2.591   6.319   4.068 -0.1903  1.5329 -0.9031
15100TIP3   OH266714   6.050   0.237  15.470  0.4640 -0.0273 -0.0918
15100TIP3    H166715   6.018   0.324  15.445  0.1962  0.4543  1.8501
15100TIP3    H266716   6.145   0.246  15.471  0.4402  0.2115  0.0122
15101TIP3   OH266717   6.142   1.481   2.053  0.1559 -0.1747 -0.1738
15101TIP3    H166718   6.212   1.546   2.051 -0.3949  0.4417  0.5124
15101TIP3    H266719   6.133   1.453   1.962  0.8022  0.2610 -0.3760
15102TIP3   OH266720   2.403   4.532   1.208  0.2538  0.4213  0.3084
15102TIP3    H166721   2.313   4.498   1.203  0.1926 -0.0217  3.3597
15102TIP3    H266722   2.399   4.617   1.164 -1.6627  0.4160  0.4228
15103TIP3   OH266723   5.674   0.379  14.014  0.0670 -0.4913 -0.4305
15103TIP3    H166724   5.765   0.402  14.032 -0.3680  0.6056  0.3965
15103TIP3    H266725   5.679   0.321  13.938  1.3013  1.2168 -1.6905
15104TIP3   OH266726   1.763   1.996  13.092 -0.2659  0.1286  0.0211
15104TIP3    H166727   1.857   1.981  13.104 -0.1358 -0.0665 -1.2262
15104TIP3    H266728   1.752   2.090  13.101 -0.1840 -0.0105  1.7196
15105TIP3   OH266729   0.085   3.174  13.956  0.5988  0.3377  0.1904
15105TIP3    H166730   0.024   3.161  14.028 -0.2586 -0.2065 -0.6237
15105TIP3    H266731   0.131   3.090  13.948  0.7123  0.4057  0.1293
15106TIP3   OH266732   0.753   5.025  12.465  0.4316  0.2567  0.5891
15106TIP3    H166733   0.735   5.117  12.443  0.9491  0.5272  1.2723
15106TIP3    H266734   0.728   5.017  12.557 -2.2752 -1.0250 -0.2245
15107TIP3   OH266735   0.286   5.391   5.466  0.4755 -0.8646 -0.5138
15107TIP3    H166736   0.362   5.362   5.517 -0.2067 -1.0599  0.4242
15107TIP3    H266737   0.259   5.473   5.508  0.5263 -0.4946 -1.2112
15108TIP3   OH266738   6.428   4.812  12.745  0.2641  0.1411 -0.1110
15108TIP3    H166739   6.495   4.790  12.680 -1.5627 -0.5347 -1.8361
15108TIP3    H266740   6.403   4.727  12.783  0.6019  0.4228  0.7381
15109TIP3   OH266741   5.951   1.142  17.209  0.3975  1.0180  0.6990
15109TIP3    H166742   5.936   1.092  17.128  2.4635 -2.0911  2.1441
15109TIP3    H266743   5.954   1.233  17.180 -1.3480  0.1920 -2.3559
15110TIP3   OH266744   0.031   4.120  13.919  0.2811  0.2572  0.2003
15110TIP3    H166745  -0.049   4.123  13.867 -1.9322  1.1762  3.4779
15110TIP3    H266746   0.054   4.212  13.932 -0.2661  0.1339  2.3034
15111TIP3   OH266747   4.103   5.839   3.550  0.3176  0.3188 -0.2720
15111TIP3    H166748   4.048   5.780   3.499  2.0187 -1.2435 -0.3698
15111TIP3    H266749   4.067   5.834   3.639 -0.9374  0.8973 -0.7392
15112TIP3   OH266750   3.056   3.521  13.070 -0.0952  0.7138  0.1584
15112TIP3    H166751   2.993   3.508  13.141 -0.1542  1.1740  0.1943
15112TIP3    H266752   3.130   3.566  13.112  0.8737 -1.0596  0.4203
15113TIP3   OH266753   5.558   1.464  16.269  0.5225  0.1793 -0.3357
15113TIP3    H166754   5.597   1.542  16.307 -3.6520  1.3515  1.8337
15113TIP3    H266755   5.475   1.494  16.232 -0.4054 -2.9330 -0.9602
15114TIP3   OH266756   5.486   6.765  13.677  0.3620 -0.0407 -0.2009
15114TIP3    H166757   5.532   6.682  13.690  1.6319  0.7093  0.1610
15114TIP3    H266758   5.446   6.757  13.590  2.5127 -0.0735 -1.2045
15115TIP3   OH266759   3.245   6.781   1.881  0.2301  0.2230 -0.8065
15115TIP3    H166760   3.287   6.860   1.846 -2.5494  1.5611 -1.2922
15115TIP3    H266761   3.153   6.790   1.856 -0.6363 -1.9133  1.3996
15116TIP3   OH266762   4.527   2.536  11.614  0.8215  0.1483 -0.1623
15116TIP3    H166763   4.522   2.570  11.525 -1.9664 -2.2819 -1.0049
15116TIP3    H266764   4.482   2.601  11.668  1.1962  0.9022 -0.7622
15117TIP3   OH266765   5.626   1.426   3.749 -0.4650 -0.2317 -0.2565
15117TIP3    H166766   5.658   1.441   3.838  0.6631  0.1201 -0.7085
15117TIP3    H266767   5.701   1.388   3.703 -1.2824 -1.1711 -0.8505
15118TIP3   OH266768   1.680   1.845   1.448 -0.4525  0.3792  0.2244
15118TIP3    H166769   1.629   1.798   1.382 -2.8839  1.4831  1.2332
15118TIP3    H266770   1.622   1.848   1.525  1.9646 -0.1264  2.1396
15119TIP3   OH266771   4.847   6.285   1.780 -0.0835 -0.2873  0.0312
15119TIP3    H166772   4.911   6.354   1.796  0.6333 -0.7809 -0.6568
15119TIP3    H266773   4.806   6.309   1.697  1.1234 -1.3804 -0.9090
15120TIP3   OH266774   0.533   4.253   4.978  0.1429  0.6104 -0.0998
15120TIP3    H166775   0.603   4.206   5.023 -0.7250 -0.3414  0.2900
15120TIP3    H266776   0.521   4.333   5.028  0.2140  0.2673  0.4699
15121TIP3   OH266777   1.593   5.744  12.383  0.9154 -0.3997 -0.4541
15121TIP3    H166778   1.621   5.816  12.440 -0.0840 -0.0274 -0.4232
15121TIP3    H266779   1.658   5.675  12.398  1.0053 -0.0795  0.6844
15122TIP3   OH266780   1.878   2.885   3.083 -0.2008  0.5262  0.2349
15122TIP3    H166781   1.828   2.912   3.007 -1.2230 -0.7673  0.4190
15122TIP3    H266782   1.933   2.812   3.052  1.9268  2.2146 -0.0744
15123TIP3   OH266783   1.648   3.226   2.757  0.2811 -0.0778 -0.0248
15123TIP3    H166784   1.651   3.278   2.677  2.4398 -0.9258 -0.5231
15123TIP3    H266785   1.567   3.175   2.750  0.3648 -0.0148 -1.5783
15124TIP3   OH266786   4.090   2.090   2.600 -0.1705  0.4824 -0.2425
15124TIP3    H166787   4.104   2.011   2.653 -0.6918  0.8486  0.4521
15124TIP3    H266788   4.023   2.065   2.536  1.2619 -0.2952 -1.4643
15125TIP3   OH266789   0.509   4.522  16.631 -0.0939 -0.0150  0.1164
15125TIP3    H166790   0.486   4.584  16.562 -1.1819 -2.5044 -1.8372
15125TIP3    H266791   0.604   4.531  16.641  0.2061 -0.2263 -2.3249
15126TIP3   OH266792   6.618   2.372   2.789 -0.0854  0.9546  0.1430
15126TIP3    H166793   6.591   2.322   2.866  3.8234  0.1487  1.0667
15126TIP3    H266794   6.684   2.433   2.821  0.0293  2.1367 -2.2051
15127TIP3   OH266795   1.569   5.230   2.844  0.2532  0.4815 -0.0731
15127TIP3    H166796   1.528   5.151   2.879  0.4667 -0.1140 -1.1739
15127TIP3    H266797   1.658   5.228   2.879  0.8711 -0.7874 -1.6718
15128TIP3   OH266798   2.607   4.476  12.090  0.0651  1.1854 -0.2633
15128TIP3    H166799   2.538   4.541  12.106  1.0244  1.6902  2.0466
15128TIP3    H266800   2.682   4.528  12.062  0.1794  0.8757 -0.5210
15129TIP3   OH266801   0.878   0.075  11.586 -0.1679  0.2154  0.8009
15129TIP3    H166802   0.948   0.013  11.563 -0.3157 -0.4986  2.2639
15129TIP3    H266803   0.797   0.030  11.560 -0.1961  0.3957  0.5662
15130TIP3   OH266804   2.990   3.215  16.304  0.3245 -0.3322  0.4515
15130TIP3    H166805   3.056   3.169  16.253  0.5541  0.9585 -0.4140
15130TIP3    H266806   2.953   3.280  16.244 -0.9532 -0.2995  1.2547
15131TIP3   OH266807   3.780   5.299  15.644  0.2770 -0.5238  0.4666
15131TIP3    H166808   3.737   5.383  15.625  0.2785 -0.7904 -0.7527
15131TIP3    H266809   3.761   5.283  15.737 -2.0051 -0.4787  0.0432
15132TIP3   OH266810   1.408   1.635   2.477 -0.0547  0.4111 -0.0571
15132TIP3    H166811   1.489   1.615   2.525  0.1727 -0.7701 -0.9127
15132TIP3    H266812   1.430   1.618   2.385 -1.2410  0.1986 -0.3052
15133TIP3   OH266813   6.113   5.026   3.771  0.4336 -0.2691  0.1137
15133TIP3    H166814   6.142   4.954   3.828 -1.5559 -0.6951  0.6202
15133TIP3    H266815   6.033   5.058   3.812  0.4900  1.2631 -0.9422
15134TIP3   OH266816   3.218   3.049   2.825 -0.4618 -0.0452  0.3187
15134TIP3    H166817   3.265   3.132   2.813 -0.3248  0.0674  1.5461
15134TIP3    H266818   3.226   3.031   2.919  0.5489 -2.0695 -0.1243
15135TIP3   OH266819   3.888   5.761   4.856  0.2810 -0.0279 -0.0956
15135TIP3    H166820   3.961   5.761   4.794  0.4265  0.0463  0.0741
15135TIP3    H266821   3.866   5.668   4.866 -0.3706  0.0224 -0.9820
15136TIP3   OH266822   0.935   5.961   1.392 -0.0541  0.1884 -0.5151
15136TIP3    H166823   0.972   6.047   1.412 -0.9211  0.8161 -1.5744
15136TIP3    H266824   0.917   5.922   1.477 -1.9788  2.0773 -0.0217
15137TIP3   OH266825   1.449   4.172  12.392  0.8145  0.1002  0.0342
15137TIP3    H166826   1.384   4.126  12.340 -0.3433  1.0162  0.6366
15137TIP3    H266827   1.414   4.169  12.481  2.3556 -0.7246  0.6350
15138TIP3   OH266828   3.154   6.326   1.362  0.5027 -0.1825  0.1001
15138TIP3    H166829   3.119   6.306   1.449 -0.3150 -1.5936 -0.5365
15138TIP3    H266830   3.077   6.348   1.309  1.0623  1.3343 -0.1135
15139TIP3   OH266831   2.200   3.834   0.375  0.7343 -0.4251  0.5714
15139TIP3    H166832   2.264   3.866   0.310 -2.2571  0.5692 -2.0168
15139TIP3    H266833   2.141   3.778   0.324 -1.6319  0.2677  2.4940
15140TIP3   OH266834   0.181   2.274   5.743  0.5749 -0.5284 -0.1552
15140TIP3    H166835   0.175   2.180   5.761 -0.2259 -0.6940 -1.2493
15140TIP3    H266836   0.090   2.303   5.739  0.8229  0.3970  0.6583
15141TIP3   OH266837   3.759   6.062   5.757  0.3082  0.5528  0.4466
15141TIP3    H166838   3.740   6.061   5.851  0.0415  0.9624  0.3978
15141TIP3    H266839   3.744   5.971   5.729 -1.3785  0.8211  0.4506
15142TIP3   OH266840   1.606   3.716  14.568  0.0291  0.5918 -0.6884
15142TIP3    H166841   1.652   3.794  14.536  1.3499  0.0282 -0.2068
15142TIP3    H266842   1.546   3.693  14.497  1.4469  0.5845 -1.9132
15143TIP3   OH266843   6.223   1.202  15.759  0.5382  0.1566  0.0360
15143TIP3    H166844   6.267   1.214  15.844  1.5079 -0.9600 -0.3063
15143TIP3    H266845   6.196   1.111  15.758  0.5100  0.1696 -0.8563
15144TIP3   OH266846   6.096   4.240   2.359 -0.2281 -0.5661 -0.4073
15144TIP3    H166847   6.177   4.249   2.409  0.4141  0.0598 -1.5363
15144TIP3    H266848   6.028   4.277   2.415  0.1939 -1.4776  0.7217
15145TIP3   OH266849   3.937   6.240  12.418 -0.1645  0.1661 -0.4631
15145TIP3    H166850   3.931   6.249  12.513  1.2521 -1.1268 -0.2306
15145TIP3    H266851   3.968   6.325  12.388  1.1296  0.0270  0.4289
15146TIP3   OH266852   4.123   2.547  16.584  0.1248 -0.2878 -0.1495
15146TIP3    H166853   4.043   2.496  16.598  0.6376 -1.0458  0.0559
15146TIP3    H266854   4.188   2.482  16.558  0.6372  0.3480 -0.4673
15147TIP3   OH266855   4.697   1.976   2.187  0.5566  0.1930  0.1151
15147TIP3    H166856   4.780   1.950   2.147  0.4002 -0.2311  0.0554
15147TIP3    H266857   4.675   1.902   2.245 -0.4098 -0.2743 -0.8345
15148TIP3   OH266858   6.390   0.843  15.494  0.0813 -0.2870  0.2675
15148TIP3    H166859   6.330   0.851  15.569 -0.2402  2.6069 -0.2349
15148TIP3    H266860   6.477   0.853  15.533  0.2294 -3.0972  0.7979
15149TIP3   OH266861   0.280   5.069  13.335  0.5150  0.3513 -0.1380
15149TIP3    H166862   0.194   5.090  13.298  0.6161  0.8319 -0.0991
15149TIP3    H266863   0.270   5.083  13.429  0.9283  1.4151 -0.2471
15150TIP3   OH266864   3.852   5.164  12.381 -0.4895  0.3510 -0.4390
15150TIP3    H166865   3.891   5.095  12.435 -0.7284 -1.1444 -2.1174
15150TIP3    H266866   3.888   5.245  12.416  2.2742 -0.8199 -0.3899
15151TIP3   OH266867   6.428   1.916  14.562 -0.4164 -0.3717  0.0510
15151TIP3    H166868   6.401   1.897  14.651  2.8102 -0.8646  0.9864
15151TIP3    H266869   6.421   1.832  14.516  0.1148 -0.6366  0.4499
15152TIP3   OH266870   5.629   3.685  14.479 -0.2375  0.4546  0.3282
15152TIP3    H166871   5.620   3.774  14.444 -3.2843  0.4772  1.0429
15152TIP3    H266872   5.595   3.691  14.568  1.6658 -0.9604  1.1831
15153TIP3   OH266873   3.487   0.828   0.285  0.1659 -0.3545  0.0551
15153TIP3    H166874   3.559   0.891   0.286 -0.9180  0.9252 -1.0649
15153TIP3    H266875   3.411   0.878   0.314 -0.5595 -1.3412 -0.1330
15154TIP3   OH266876   0.734   1.874   3.695 -0.2523 -0.3296  0.3908
15154TIP3    H166877   0.675   1.810   3.736 -0.3154 -0.0705  0.7147
15154TIP3    H266878   0.784   1.910   3.768  0.0844 -0.3222  0.1535
15155TIP3   OH266879   4.584   5.537   3.707 -0.1546 -0.5893  0.0696
15155TIP3    H166880   4.492   5.522   3.683 -0.5621  3.0215 -0.9150
15155TIP3    H266881   4.591   5.632   3.715  3.5744 -0.8043 -0.0196
15156TIP3   OH266882   6.225   5.694  15.979  0.2475 -0.3913 -0.0903
15156TIP3    H166883   6.250   5.730  15.894  1.1262 -0.4262  0.1456
15156TIP3    H266884   6.232   5.599  15.967 -0.3641 -0.4244 -0.1977
15157TIP3   OH266885   3.318   2.940  14.470 -0.6781  0.5079  0.4964
15157TIP3    H166886   3.251   2.952  14.403 -0.6800  0.8753  0.5655
15157TIP3    H266887   3.343   2.848  14.462 -0.4434  0.6285 -0.2299
15158TIP3   OH266888   5.350   5.755  15.298 -0.3347  0.2142 -0.2047
15158TIP3    H166889   5.323   5.845  15.318  0.3519  0.7933 -1.7714
15158TIP3    H266890   5.273   5.702  15.320 -0.6673  1.1499  0.9418
15159TIP3   OH266891   3.582   0.312  11.616 -0.5045  0.0887  0.1029
15159TIP3    H166892   3.571   0.218  11.602  2.1030 -0.2593  0.0699
15159TIP3    H266893   3.610   0.346  11.530  0.2647  0.5855  0.5414
15160TIP3   OH266894   0.518   4.593   5.465 -0.3077 -0.3936 -0.3141
15160TIP3    H166895   0.607   4.617   5.436 -0.4018  0.1116 -0.1840
15160TIP3    H266896   0.493   4.663   5.526 -0.7254 -0.6308 -0.2151
15161TIP3   OH266897   2.290   0.914   2.745 -0.6294  0.9655  0.2900
15161TIP3    H166898   2.230   0.911   2.671  0.6328  0.4471 -0.7395
15161TIP3    H266899   2.364   0.860   2.718  0.1250  1.2684  1.6921
15162TIP3   OH266900   1.680   0.327   0.739  0.3172  0.2485  0.2749
15162TIP3    H166901   1.615   0.396   0.723 -0.2210 -0.6802 -1.7088
15162TIP3    H266902   1.754   0.351   0.684  0.5528 -0.1581  0.4176
15163TIP3   OH266903   3.963   2.502  12.323  0.5800  0.0204 -0.1657
15163TIP3    H166904   4.013   2.431  12.362  0.9608 -0.4899 -1.5447
15163TIP3    H266905   3.967   2.485  12.229 -0.5433  1.0638 -0.4129
15164TIP3   OH266906   1.080   4.302  11.078  0.2002 -0.2048  0.4787
15164TIP3    H166907   1.005   4.308  11.019  0.0329  0.2008  0.7333
15164TIP3    H266908   1.157   4.300  11.021 -0.0078 -0.7270  0.2150
15165TIP3   OH266909   2.229   2.637   5.596  0.0599 -0.1600  0.1306
15165TIP3    H166910   2.249   2.571   5.663 -2.7793 -1.1026  0.1024
15165TIP3    H266911   2.278   2.715   5.624  1.2198 -1.4225  1.6967
15166TIP3   OH266912   1.387   0.693   3.068  0.1713 -0.4710 -0.2796
15166TIP3    H166913   1.440   0.773   3.064 -2.2701  1.2465  0.1739
15166TIP3    H266914   1.397   0.654   2.982  0.5170  0.9206 -0.8916
15167TIP3   OH266915   0.531   0.180   1.986  0.0665  0.0759 -0.4793
15167TIP3    H166916   0.604   0.130   2.021  1.5831  0.7247 -2.6429
15167TIP3    H266917   0.471   0.113   1.951  0.5865 -0.3489 -0.5597
15168TIP3   OH266918   1.178   2.772   2.133 -0.1332 -0.0157  0.1232
15168TIP3    H166919   1.232   2.726   2.197 -2.5658 -1.5545  1.1607
15168TIP3    H266920   1.095   2.723   2.133 -0.6346  0.7544 -3.2410
15169TIP3   OH266921   0.455   6.316  11.466 -0.2392 -0.4256 -0.3217
15169TIP3    H166922   0.469   6.402  11.505  0.8301 -1.1871  1.0403
15169TIP3    H266923   0.361   6.300  11.476 -0.6292  1.0095 -1.5281
15170TIP3   OH266924   2.213   6.756  11.005 -0.7100 -0.5498  0.2052
15170TIP3    H166925   2.286   6.799  10.959 -3.3007  0.8481 -2.7930
15170TIP3    H266926   2.161   6.828  11.039 -0.6379 -1.5446  2.4737
15171TIP3   OH266927   4.943   4.936   3.548 -0.1086  0.2734  0.7798
15171TIP3    H166928   5.023   4.954   3.500 -2.0872  1.8202 -2.0416
15171TIP3    H266929   4.937   5.008   3.612  1.2425 -0.4351  1.7417
15172TIP3   OH266930   0.464   2.890  14.687 -0.3284  0.1300  0.5984
15172TIP3    H166931   0.375   2.876  14.720 -0.0757 -1.0333  0.8030
15172TIP3    H266932   0.514   2.916  14.764 -0.4539  0.6532  0.5080
15173TIP3   OH266933   3.142   6.389   4.677  0.4687 -0.1946  0.2735
15173TIP3    H166934   3.070   6.423   4.729  0.6068 -0.0475  0.3666
15173TIP3    H266935   3.163   6.459   4.615  1.4791  0.3191  1.1919
15174TIP3   OH266936   4.470   0.712  15.257  0.0711  0.2681 -0.1754
15174TIP3    H166937   4.563   0.724  15.241  0.1217 -0.1043 -0.1559
15174TIP3    H266938   4.447   0.633  15.208  0.0458 -0.3999  0.8887
15175TIP3   OH266939   5.985   5.689   5.063 -0.3557  0.6627 -0.5334
15175TIP3    H166940   6.051   5.700   4.994 -0.0022 -0.7104 -0.4243
15175TIP3    H266941   5.918   5.755   5.043  1.0057  2.0436 -0.6872
15176TIP3   OH266942   6.527   2.686   3.480 -0.3219 -0.2136 -1.3395
15176TIP3    H166943   6.508   2.617   3.417  0.2373 -1.9268  0.3286
15176TIP3    H266944   6.550   2.640   3.560 -0.1303  1.9188 -0.1268
15177TIP3   OH266945   5.600   2.556   2.016  0.1550  0.3154 -0.3303
15177TIP3    H166946   5.637   2.558   1.927 -2.1381 -1.1851 -1.3611
15177TIP3    H266947   5.547   2.477   2.018 -0.5358  0.8084  2.1105
15178TIP3   OH266948   3.886   1.527  12.314  0.0439  0.5278  0.3209
15178TIP3    H166949   3.865   1.523  12.407 -0.6700 -0.6076  0.1262
15178TIP3    H266950   3.938   1.607  12.304 -1.7696  1.8687  1.3008
15179TIP3   OH266951   5.190   2.241  15.648  0.6045 -0.0755 -0.4535
15179TIP3    H166952   5.159   2.228  15.558 -0.6915 -0.9495  0.1148
15179TIP3    H266953   5.219   2.332  15.650 -0.3691  0.2710 -1.4526
15180TIP3   OH266954   3.154   6.397   3.511  0.1291  0.0467 -0.0663
15180TIP3    H166955   3.243   6.363   3.500  0.0317  0.1518 -1.2618
15180TIP3    H266956   3.103   6.351   3.445 -0.7790 -0.2521  0.8378
15181TIP3   OH266957   2.000   0.486   5.638  0.9081  0.0946 -0.1354
15181TIP3    H166958   1.942   0.550   5.596  0.3001 -0.3821 -0.0374
15181TIP3    H266959   1.945   0.408   5.650  1.6049 -0.4100 -0.1538
15182TIP3   OH266960   5.294   5.601  16.131 -0.0825  0.1572 -0.3445
15182TIP3    H166961   5.264   5.691  16.114  0.3045  0.3260 -0.1366
15182TIP3    H266962   5.341   5.607  16.214  0.6672 -0.0680 -0.7508
15183TIP3   OH266963   1.254   4.000   0.201 -0.1890  0.1113  0.2276
15183TIP3    H166964   1.205   4.077   0.173  0.7876  0.7169  0.1674
15183TIP3    H266965   1.310   4.031   0.272 -0.1487 -0.6562  0.5395
15184TIP3   OH266966   3.577   6.786   3.673 -0.4870  0.1920  0.1314
15184TIP3    H166967   3.566   6.841   3.751 -1.1399  0.8815 -0.4503
15184TIP3    H266968   3.488   6.761   3.648 -0.3812  1.1338 -1.2315
15185TIP3   OH266969   6.206   4.309   1.984 -0.8610 -0.0652 -0.0752
15185TIP3    H166970   6.166   4.366   2.050 -1.5165  0.3137 -0.8012
15185TIP3    H266971   6.184   4.220   2.012  1.7364 -0.1006  2.1112
15186TIP3   OH266972   1.390   1.614   3.297 -0.3262 -0.4332  0.6281
15186TIP3    H166973   1.330   1.543   3.316  2.3873 -3.7932 -2.6307
15186TIP3    H266974   1.457   1.608   3.366 -0.7702 -0.2307  1.0770
15187TIP3   OH266975   1.825   3.529   2.787 -0.3125 -0.1492  0.1539
15187TIP3    H166976   1.828   3.454   2.846 -0.2081 -0.5393 -0.3386
15187TIP3    H266977   1.917   3.555   2.775 -0.2915 -0.3938 -0.2368
15188TIP3   OH266978   0.171   0.421  13.463  0.0812  0.5090  0.7230
15188TIP3    H166979   0.238   0.381  13.519  0.9036 -1.5300 -1.6670
15188TIP3    H266980   0.089   0.402  13.508  0.7694 -0.6236  1.5418
15189TIP3   OH266981   3.572   0.102  14.524 -0.2896  0.5921  0.2650
15189TIP3    H166982   3.498   0.049  14.553 -0.6867  1.2646  0.4793
15189TIP3    H266983   3.532   0.183  14.492  0.0518 -0.3862 -2.8009
15190TIP3   OH266984   1.109   4.395  14.688 -0.2925 -0.9873 -0.0146
15190TIP3    H166985   1.107   4.486  14.717 -0.1321 -0.5027 -1.5058
15190TIP3    H266986   1.017   4.372  14.676 -0.2828 -0.6730 -0.7075
15191TIP3   OH266987   5.403   6.542   5.884 -0.1003 -0.5316 -0.0727
15191TIP3    H166988   5.449   6.569   5.963 -0.9153 -0.2714  0.3112
15191TIP3    H266989   5.353   6.465   5.910  0.0665 -0.7800 -0.4762
15192TIP3   OH266990   0.993   3.135  15.917 -0.7293 -0.0295  0.3125
15192TIP3    H166991   1.023   3.075  15.985  2.7257  0.7154 -0.4658
15192TIP3    H266992   1.025   3.098  15.835  1.0851  2.5544 -0.2212
15193TIP3   OH266993   4.936   3.069  10.749 -0.5737  0.3641 -0.8260
15193TIP3    H166994   4.857   3.089  10.798 -0.4547 -1.1076 -0.0264
15193TIP3    H266995   4.971   2.990  10.789 -0.1319 -0.5073 -2.8759
15194TIP3   OH266996   0.085   2.518  14.386 -0.2217 -0.1792  0.0521
15194TIP3    H166997   0.053   2.439  14.343  0.2733 -0.5811  0.4148
15194TIP3    H266998   0.033   2.523  14.467  0.6088 -0.8328  0.6414
15195TIP3   OH266999   0.063   5.751   0.680  0.1528  0.6472 -0.5309
15195TIP3    H167000   0.083   5.787   0.766 -3.8122 -0.5339  0.9752
15195TIP3    H267001   0.068   5.656   0.691 -1.6458  0.4436 -1.1971
15196TIP3   OH267002   1.555   3.146  14.383  0.0771 -0.1331  0.4127
15196TIP3    H167003   1.516   3.227  14.414 -0.5681  0.7402 -2.4792
15196TIP3    H267004   1.644   3.169  14.358 -0.1361 -0.2519 -0.5056
15197TIP3   OH267005   0.191   4.365  10.781  0.7540  0.3951  0.2532
15197TIP3    H167006   0.127   4.429  10.811 -1.7594 -0.1037 -3.6600
15197TIP3    H267007   0.252   4.414  10.727  1.8297  0.3334  1.4016
15198TIP3   OH267008   2.548   1.224   4.123 -0.2638 -0.2816  0.1993
15198TIP3    H167009   2.494   1.213   4.201  1.0445 -0.0414  1.1676
15198TIP3    H267010   2.494   1.274   4.062 -0.0175  2.7259  2.3520
15199TIP3   OH267011   2.852   0.096   5.339 -0.0375 -0.4147  0.1194
15199TIP3    H167012   2.844   0.027   5.273 -2.3069  0.4542 -0.5496
15199TIP3    H267013   2.898   0.054   5.412 -1.2503 -2.5851 -0.3200
15200TIP3   OH267014   4.242   0.016  15.362  0.0069 -0.5144  0.5677
15200TIP3    H167015   4.180   0.002  15.434 -1.0065  2.6258  0.3771
15200TIP3    H267016   4.322   0.047  15.403  0.4965 -1.7508  0.5702
15201TIP3   OH267017   4.819   5.854  15.785 -0.2227 -0.6549 -0.3926
15201TIP3    H167018   4.868   5.931  15.757  0.4811 -1.0762 -0.3459
15201TIP3    H267019   4.741   5.852  15.729 -1.4113  1.3571  1.1294
15202TIP3   OH267020   4.295   2.652  14.977 -0.2129  0.1525 -0.0120
15202TIP3    H167021   4.346   2.709  14.920  0.4325 -0.6089 -0.2077
15202TIP3    H267022   4.338   2.567  14.971 -1.6720 -0.5828 -0.3955
15203TIP3   OH267023   6.517   3.711   3.984 -0.0377 -0.1788 -0.3419
15203TIP3    H167024   6.539   3.653   3.911 -0.5223 -0.8186  0.0089
15203TIP3    H267025   6.585   3.694   4.049 -0.2258 -0.4238 -0.2060
15204TIP3   OH267026   4.070   6.353   3.374  0.6658  0.0883  0.0405
15204TIP3    H167027   3.977   6.377   3.383  0.4420 -0.4783 -0.7420
15204TIP3    H267028   4.077   6.269   3.418  0.9191  0.3602  0.5273
15205TIP3   OH267029   6.756   1.250  14.398 -0.1170  0.5389  0.0140
15205TIP3    H167030   6.839   1.236  14.351  0.2388  2.2930  0.0939
15205TIP3    H267031   6.771   1.209  14.483 -0.3114 -1.5385 -0.9265
15206TIP3   OH267032   1.880   4.125  14.916 -0.1912 -0.6106  0.5011
15206TIP3    H167033   1.810   4.181  14.881  0.1001 -1.2111 -1.0903
15206TIP3    H267034   1.953   4.136  14.855  0.8070 -0.6705  1.6697
15207TIP3   OH267035   3.325   4.513  15.019 -0.1568  0.5061 -0.5712
15207TIP3    H167036   3.387   4.571  15.062  0.4740  0.3767 -1.2902
15207TIP3    H267037   3.239   4.550  15.040  0.2318  1.7199 -1.0417
15208TIP3   OH267038   1.073   6.375  13.125 -0.0591 -0.0687 -0.5619
15208TIP3    H167039   0.979   6.392  13.133 -0.2697 -0.1667 -2.5354
15208TIP3    H267040   1.087   6.297  13.178 -0.8808  0.5811  0.6411
15209TIP3   OH267041   6.773   3.550  12.550  0.8042 -0.7504 -0.0730
15209TIP3    H167042   6.767   3.515  12.639  0.1359 -1.2721 -0.3146
15209TIP3    H267043   6.787   3.644  12.561  0.7777 -0.8263  0.5843
15210TIP3   OH267044   4.498   2.775  16.429  0.0823  0.1643  0.1842
15210TIP3    H167045   4.500   2.683  16.402  3.5683  0.2624 -0.1205
15210TIP3    H267046   4.530   2.823  16.353  0.8259  1.3893  1.2532
15211TIP3   OH267047   6.267   2.016   5.413  0.7341 -0.1776 -0.1724
15211TIP3    H167048   6.329   1.944   5.400  1.2811  0.5212 -1.4305
15211TIP3    H267049   6.318   2.095   5.398  0.3570  0.5278  2.1222
15212TIP3   OH267050   5.860   2.209  12.022 -0.1450  0.1120  0.3265
15212TIP3    H167051   5.787   2.183  11.966  2.8631 -0.3032 -3.6212
15212TIP3    H267052   5.873   2.135  12.081 -0.9047 -1.1989 -1.1127
15213TIP3   OH267053   4.816   5.381  16.742  0.3702  0.4116 -0.3917
15213TIP3    H167054   4.811   5.473  16.717  0.2708  1.1741  2.2520
15213TIP3    H267055   4.861   5.381  16.826 -1.6144 -1.7232  0.7393
15214TIP3   OH267056   2.122   5.117  14.930  0.4038 -0.3462 -0.2450
15214TIP3    H167057   2.201   5.115  14.985  1.3000 -1.3646 -1.5215
15214TIP3    H267058   2.051   5.137  14.991  1.3778 -1.3742  1.2806
15215TIP3   OH267059   5.486   4.443   1.961 -0.2575  0.2805  0.0794
15215TIP3    H167060   5.487   4.461   2.055 -1.2427 -0.3393  0.2189
15215TIP3    H267061   5.395   4.457   1.935 -0.3533 -1.2163 -0.4422
15216TIP3   OH267062   6.645   3.946   3.740  0.2650 -0.3689  0.0744
15216TIP3    H167063   6.603   4.016   3.690 -0.5108 -0.2199  0.9214
15216TIP3    H267064   6.610   3.865   3.702 -1.0427 -0.2371  0.9869
15217TIP3   OH267065   0.035   4.013   3.931  0.0461  0.3468  0.4256
15217TIP3    H167066  -0.013   4.039   4.010 -1.4085 -1.9897  0.3383
15217TIP3    H267067  -0.033   3.997   3.866  0.9695 -2.1271  0.0335
15218TIP3   OH267068   4.664   6.599   3.606  0.1454  0.3294  0.5742
15218TIP3    H167069   4.583   6.643   3.630 -0.4926 -1.1819  1.2256
15218TIP3    H267070   4.712   6.589   3.688 -0.3460 -1.4558  0.6556
15219TIP3   OH267071   4.217   5.416  16.002 -0.4097  0.3167 -0.0570
15219TIP3    H167072   4.170   5.417  16.085  0.7566 -0.1373  0.6325
15219TIP3    H267073   4.149   5.410  15.935 -1.2926 -2.0116  0.9698
15220TIP3   OH267074   2.534   1.052   0.330 -0.0673  0.0823  0.2439
15220TIP3    H167075   2.470   1.102   0.380  0.8875  1.0761  0.4706
15220TIP3    H267076   2.601   1.116   0.305  0.9110 -0.9824  0.1239
15221TIP3   OH267077   3.962   2.423   5.088 -0.4621  1.2295  0.6171
15221TIP3    H167078   3.928   2.338   5.060  1.7243 -0.2259  2.2655
15221TIP3    H267079   3.975   2.471   5.006  0.3710 -0.8200 -0.4875
15222TIP3   OH267080   6.158   1.647  12.714 -0.3300  0.2719 -0.3202
15222TIP3    H167081   6.193   1.558  12.704 -1.1000 -0.0199 -0.4817
15222TIP3    H267082   6.066   1.634  12.736 -0.6244  1.0414 -1.0721
15223TIP3   OH267083   0.006   2.214  12.835 -0.2300 -0.0786  0.5034
15223TIP3    H167084  -0.060   2.274  12.869  0.2591  0.0456  1.2393
15223TIP3    H267085  -0.025   2.191  12.748  0.2775  2.3281 -0.3431
15224TIP3   OH267086   2.722   6.429   1.421 -0.4247  0.2758  0.3901
15224TIP3    H167087   2.760   6.362   1.364 -3.5960 -0.9549 -0.4103
15224TIP3    H267088   2.667   6.379   1.482 -1.1862  2.0022  1.1454
15225TIP3   OH267089   5.055   2.474   0.254 -0.2304  0.4190 -0.6959
15225TIP3    H167090   5.001   2.549   0.277 -0.4028  0.6763 -1.9181
15225TIP3    H267091   5.044   2.464   0.160  0.5081 -0.5829 -0.6879
15226TIP3   OH267092   1.993   6.080   5.576  0.5569  0.0467  0.9322
15226TIP3    H167093   2.023   6.040   5.494 -0.1608  0.9896  0.1954
15226TIP3    H267094   1.913   6.034   5.597  0.2187  0.4583  0.5696
15227TIP3   OH267095   2.716   1.032   6.087  0.1787  0.1573  0.1491
15227TIP3    H167096   2.776   1.099   6.120  0.9211  0.2297 -1.2999
15227TIP3    H267097   2.631   1.055   6.124  0.6035  1.3707  0.3963
15228TIP3   OH267098   5.010   6.657   1.238  0.2479  0.5945  0.1578
15228TIP3    H167099   4.970   6.576   1.271 -1.1812  1.1741 -0.1284
15228TIP3    H267100   5.079   6.676   1.301  0.4034 -0.6841  0.4004
15229TIP3   OH267101   4.863   2.073  11.278 -0.3130 -0.6043 -0.4692
15229TIP3    H167102   4.909   1.989  11.274  5.4430  2.1490  1.6011
15229TIP3    H267103   4.855   2.091  11.372 -2.3599  0.7251 -0.8925
15230TIP3   OH267104   5.285   0.219   3.833 -0.4278 -0.4619  0.2561
15230TIP3    H167105   5.208   0.194   3.782 -0.3142 -0.3067  0.0119
15230TIP3    H267106   5.359   0.185   3.783 -0.0933  2.4283 -1.3226
15231TIP3   OH267107   4.440   4.405  12.545 -0.1618  0.0216 -0.0157
15231TIP3    H167108   4.471   4.328  12.592  1.0529  0.0854 -0.7080
15231TIP3    H267109   4.518   4.443  12.504 -1.5006 -1.4958 -4.2433
15232TIP3   OH267110   5.875   0.753   1.158  0.3092 -0.7027  0.2437
15232TIP3    H167111   5.865   0.823   1.094  0.1783 -1.2029 -0.2884
15232TIP3    H267112   5.905   0.797   1.237  0.2015 -0.0426 -0.0773
15233TIP3   OH267113   5.207   3.155   3.133 -0.4327  0.1464  0.2235
15233TIP3    H167114   5.245   3.113   3.210 -1.7948 -1.0893  0.2265
15233TIP3    H267115   5.141   3.214   3.168  0.7008  1.4890  0.1467
15234TIP3   OH267116   3.902   5.322  14.470  0.5675 -0.1154 -0.1899
15234TIP3    H167117   3.885   5.274  14.551  0.6086 -0.1786 -0.2187
15234TIP3    H267118   3.859   5.406  14.482 -0.7582 -0.6958 -0.7190
15235TIP3   OH267119   6.210   0.918   4.669 -0.3936 -0.5944  0.0082
15235TIP3    H167120   6.167   0.885   4.748  0.2036 -1.5441 -0.0466
15235TIP3    H267121   6.302   0.927   4.694 -0.4023  0.1888 -0.2455
15236TIP3   OH267122   5.035   4.711   5.749 -0.0044  0.0788  0.0708
15236TIP3    H167123   5.112   4.768   5.759 -0.3978  0.6368 -0.0908
15236TIP3    H267124   4.961   4.766   5.775 -0.4352 -0.2186 -0.5252
15237TIP3   OH267125   2.398   4.156  11.807  0.3549 -0.1531 -0.2705
15237TIP3    H167126   2.312   4.194  11.792  0.1811 -0.5082 -0.1667
15237TIP3    H267127   2.400   4.136  11.901  0.2825 -0.8062 -0.4051
15238TIP3   OH267128   4.851   1.253  10.744  0.7121  0.3675 -0.5281
15238TIP3    H167129   4.895   1.313  10.805  0.5773  0.1347 -0.2008
15238TIP3    H267130   4.761   1.247  10.777  0.5670  0.4450 -0.9031
15239TIP3   OH267131   0.010   4.204  16.408  0.9813  0.0651 -0.2938
15239TIP3    H167132  -0.051   4.140  16.371  0.2300  0.0688  0.9213
15239TIP3    H267133   0.068   4.153  16.464  0.2214  0.4797  0.8780
15240TIP3   OH267134   1.109   4.971  13.876  0.4435  0.7682 -0.5986
15240TIP3    H167135   1.068   4.922  13.805  0.1099 -0.2774  0.2881
15240TIP3    H267136   1.199   4.983  13.848  0.0328  1.3304 -1.6826
15241TIP3   OH267137   1.858   6.193  15.641 -0.1149  0.0462  0.2769
15241TIP3    H167138   1.837   6.253  15.713 -1.5378 -2.5574  2.0990
15241TIP3    H267139   1.792   6.124  15.647  1.6250 -1.8491 -1.6115
15242TIP3   OH267140   4.440   6.591  11.551  0.1286 -0.8905  0.6358
15242TIP3    H167141   4.382   6.653  11.596 -0.5379 -0.6856 -0.4876
15242TIP3    H267142   4.427   6.509  11.597 -0.8205 -0.7671  0.5897
15243TIP3   OH267143   2.303   6.326  14.866  0.6145 -0.2075 -0.1051
15243TIP3    H167144   2.289   6.418  14.885  0.9164 -0.2122  0.1508
15243TIP3    H267145   2.278   6.280  14.947  2.8611 -0.1512  0.6759
15244TIP3   OH267146   1.027   4.908  15.051 -0.4447 -0.1209  1.3401
15244TIP3    H167147   0.946   4.952  15.025 -0.4648  0.4743  2.3587
15244TIP3    H267148   1.091   4.978  15.061  0.0415 -0.5267  1.1014
15245TIP3   OH267149   1.204   1.970   2.451 -0.6187  0.0906  0.1968
15245TIP3    H167150   1.128   1.915   2.472  0.1266 -0.2222  2.1997
15245TIP3    H267151   1.197   2.044   2.512 -0.2000  0.8963 -0.7202
15246TIP3   OH267152   2.938   2.279   0.258 -0.6192 -0.0829  0.2822
15246TIP3    H167153   3.010   2.216   0.263  0.5189  1.2052  0.8023
15246TIP3    H267154   2.914   2.295   0.350  0.1279  1.3222  0.2629
15247TIP3   OH267155   0.203   2.880   1.782  0.2305  0.2719  0.1934
15247TIP3    H167156   0.169   2.928   1.706 -0.7557  1.8969  1.6343
15247TIP3    H267157   0.296   2.870   1.764  0.0039  0.6514 -1.2425
15248TIP3   OH267158   3.563   3.926   4.163  0.3486 -0.7081 -0.1259
15248TIP3    H167159   3.587   3.931   4.071  0.2538  1.1261 -0.0646
15248TIP3    H267160   3.470   3.902   4.162 -0.0960  0.9685 -0.5628
15249TIP3   OH267161   1.747   1.423   4.593 -0.6652  0.5147 -0.1033
15249TIP3    H167162   1.770   1.443   4.684  0.5990  1.2098 -0.5610
15249TIP3    H267163   1.682   1.488   4.569 -0.9065  0.4077  0.2597
15250TIP3   OH267164   2.912   0.523  13.137 -0.1557  0.3764 -0.1492
15250TIP3    H167165   2.832   0.494  13.093 -0.5553  1.2625 -0.0239
15250TIP3    H267166   2.978   0.458  13.113 -0.8573 -0.2369 -0.4364
15251TIP3   OH267167   4.592   0.024   5.365 -0.3905  0.0053  0.4867
15251TIP3    H167168   4.623  -0.008   5.450 -0.5785 -0.7387  0.2779
15251TIP3    H267169   4.578   0.118   5.379 -0.8038 -0.1798  1.3917
15252TIP3   OH267170   5.503   3.476   3.271  0.4259  0.8968  0.4071
15252TIP3    H167171   5.436   3.460   3.337  1.3148 -2.4828  0.5829
15252TIP3    H267172   5.460   3.460   3.188  0.9517 -1.1956  0.5164
15253TIP3   OH267173   1.553   6.483   3.326  0.0790 -0.6552  0.3566
15253TIP3    H167174   1.539   6.508   3.418 -1.1253  0.0026  0.0143
15253TIP3    H267175   1.639   6.441   3.325 -0.2291 -1.3644  1.9245
15254TIP3   OH267176   4.089   0.652   4.317  0.2690 -0.6157  0.3752
15254TIP3    H167177   4.032   0.643   4.393  1.7316  1.1993  1.7443
15254TIP3    H267178   4.094   0.747   4.302  1.6664 -0.8364 -0.6736
15255TIP3   OH267179   6.329   6.039   3.570  0.2273  0.2982  0.5170
15255TIP3    H167180   6.268   6.065   3.501  0.2235 -0.2563  0.3066
15255TIP3    H267181   6.275   6.034   3.649  0.0993  0.2915  0.4292
15256TIP3   OH267182   4.153   5.877   2.225  0.2948  0.4195  0.5260
15256TIP3    H167183   4.153   5.827   2.307 -1.5243  0.1192  0.3770
15256TIP3    H267184   4.217   5.833   2.170 -0.3429 -0.9750  0.8724
15257TIP3   OH267185   6.740   0.298   3.635 -0.3276 -0.0523 -0.5590
15257TIP3    H167186   6.795   0.334   3.704  0.4407 -0.7136 -0.8309
15257TIP3    H267187   6.653   0.336   3.652  0.0783  0.5555  0.1833
15258TIP3   OH267188   3.669   4.596  12.355  0.3944  0.2785  0.2447
15258TIP3    H167189   3.694   4.667  12.295  1.7519  1.6719  2.3786
15258TIP3    H267190   3.714   4.617  12.436 -1.9494 -1.2076  1.9815
15259TIP3   OH267191   0.812   4.378  15.337 -0.6104 -0.6758 -0.3182
15259TIP3    H167192   0.874   4.305  15.331 -0.7607 -0.9027  0.7401
15259TIP3    H267193   0.803   4.409  15.247  0.0491 -1.4679 -0.6688
15260TIP3   OH267194   5.104   4.552   3.754 -0.2652 -0.2842  1.0014
15260TIP3    H167195   5.137   4.575   3.667 -2.1251  1.1242  0.6294
15260TIP3    H267196   5.179   4.563   3.812  0.6498  0.0729 -0.2353
15261TIP3   OH267197   3.619   1.277   2.286  0.3621 -0.3504 -0.1217
15261TIP3    H167198   3.627   1.338   2.360  1.6760 -0.6425 -0.0182
15261TIP3    H267199   3.611   1.334   2.210 -1.1743 -0.0437  0.2477
15262TIP3   OH267200   0.517   4.341  10.819  0.3064  0.4574 -0.3616
15262TIP3    H167201   0.489   4.425  10.783  2.1226  0.7126 -1.2479
15262TIP3    H267202   0.571   4.302  10.750 -1.3668 -1.9195 -0.3895
15263TIP3   OH267203   1.017   4.415   2.924  0.1821  0.2418  0.0424
15263TIP3    H167204   1.093   4.433   2.868  1.3239  0.6628  1.6732
15263TIP3    H267205   1.017   4.320   2.935 -1.3179 -0.0865 -2.3604
15264TIP3   OH267206   4.140   0.978  11.494  0.0271  0.2568  0.5447
15264TIP3    H167207   4.123   1.067  11.462 -0.0589  0.4591  1.1587
15264TIP3    H267208   4.214   0.987  11.553 -0.3191 -0.0020  1.0175
15265TIP3   OH267209   6.144   0.677   3.547  0.1781 -0.2659  0.0833
15265TIP3    H167210   6.236   0.702   3.549  0.0772  0.1813 -0.4541
15265TIP3    H267211   6.125   0.643   3.634  0.3934  1.3042  0.7673
15266TIP3   OH267212   6.407   2.510  12.331  0.2737  0.0189  0.0946
15266TIP3    H167213   6.352   2.551  12.398 -0.8520  0.5253 -1.1337
15266TIP3    H267214   6.478   2.469  12.381 -1.1991 -0.6286  1.6932
15267TIP3   OH267215   1.764   3.457  16.099  0.0912 -0.0099 -0.4476
15267TIP3    H167216   1.852   3.479  16.130  0.2114  0.7238 -1.3139
15267TIP3    H267217   1.759   3.362  16.110 -0.2275  0.2915  2.7329
15268TIP3   OH267218   0.470   5.781   5.128  0.0303  0.2818  0.5875
15268TIP3    H167219   0.561   5.809   5.119 -0.0977  0.4604 -0.2716
15268TIP3    H267220   0.469   5.690   5.099  0.3699 -0.5237  2.9867
15269TIP3   OH267221   0.672   2.658  17.068  0.4336 -0.0957  0.3959
15269TIP3    H167222   0.757   2.696  17.090  0.3873  0.5836 -0.5686
15269TIP3    H267223   0.690   2.599  16.995  0.3793 -1.3926  1.4105
15270TIP3   OH267224   1.843   1.270  13.860  0.0630  0.2967 -0.3844
15270TIP3    H167225   1.907   1.199  13.857  1.2850  1.3540  0.0126
15270TIP3    H267226   1.870   1.329  13.789 -0.1387  1.0172  0.1328
15271TIP3   OH267227   0.233   4.589  14.902 -0.3742 -0.1393 -0.2831
15271TIP3    H167228   0.293   4.526  14.864  0.2823 -0.6211  1.4794
15271TIP3    H267229   0.242   4.668  14.848 -2.0547 -1.8900 -3.1969
15272TIP3   OH267230   3.728   6.305  11.636  0.4270 -0.3412 -0.2562
15272TIP3    H167231   3.755   6.219  11.666 -1.9982 -0.8087  0.7064
15272TIP3    H267232   3.743   6.362  11.711 -1.7315 -0.7169  0.4893
15273TIP3   OH267233   5.818   5.278   1.427  0.1718 -0.5387  0.3843
15273TIP3    H167234   5.829   5.373   1.432  1.1072 -0.7140  2.3663
15273TIP3    H267235   5.812   5.250   1.519  0.7343 -2.4796 -0.1421
15274TIP3   OH267236   3.201   0.566  14.992  0.2802 -0.3747  0.3383
15274TIP3    H167237   3.117   0.566  14.946 -1.1158 -0.2052  2.7737
15274TIP3    H267238   3.247   0.490  14.957 -1.6256 -1.5290  0.2295
15275TIP3   OH267239   2.294   4.000   5.080  0.4153 -0.6422 -0.6568
15275TIP3    H167240   2.258   4.025   5.164  0.0800 -1.8581 -0.4296
15275TIP3    H267241   2.387   4.020   5.087  0.2648 -0.0930 -0.2450
15276TIP3   OH267242   3.168   4.020   2.203  0.6735 -0.2044 -0.4290
15276TIP3    H167243   3.240   4.054   2.150  0.9793  0.1721  0.2228
15276TIP3    H267244   3.150   3.934   2.166  0.0056  0.5923 -1.9837
15277TIP3   OH267245   2.855   5.267  17.201  0.5586  0.1585 -0.0697
15277TIP3    H167246   2.843   5.177  17.170  0.5396  0.5843 -1.3019
15277TIP3    H267247   2.895   5.313  17.127  1.4065  0.9565  0.8639
15278TIP3   OH267248   2.776   0.798   1.284  0.4350 -0.4032  0.6417
15278TIP3    H167249   2.706   0.733   1.293 -0.8083  1.0225  1.4782
15278TIP3    H267250   2.819   0.776   1.201 -1.1496 -1.1368  0.0036
15279TIP3   OH267251   1.648   5.082   0.228 -0.3791  0.2948 -0.1018
15279TIP3    H167252   1.646   4.988   0.244 -0.1264  0.5069  1.2080
15279TIP3    H267253   1.576   5.118   0.280 -0.1326  0.8891 -0.1570
15280TIP3   OH267254   0.993   6.080   0.439  0.1947 -0.1445 -0.3562
15280TIP3    H167255   0.944   5.998   0.446  2.2831 -1.2883  1.4432
15280TIP3    H267256   1.032   6.077   0.352  0.3182 -1.1133 -0.2739
15281TIP3   OH267257   5.222   5.999  15.633  0.2880  0.0468 -0.3964
15281TIP3    H167258   5.173   5.926  15.595 -0.3893  1.3075 -2.0143
15281TIP3    H267259   5.308   5.995  15.592  1.3226 -1.6839  1.8476
15282TIP3   OH267260   0.178   5.173  16.056  0.3528  0.6912 -0.4192
15282TIP3    H167261   0.258   5.133  16.022 -0.4446  0.5543 -2.1758
15282TIP3    H267262   0.192   5.267  16.046  0.7089  0.7131  0.2486
15283TIP3   OH267263   2.841   5.323   1.548  0.0765  0.2262 -0.2718
15283TIP3    H167264   2.925   5.312   1.504  0.2388 -0.5355  0.2150
15283TIP3    H267265   2.795   5.240   1.533 -0.2391  0.3127  0.1990
15284TIP3   OH267266   3.111   1.882  14.159  0.5545  0.7036  0.1823
15284TIP3    H167267   3.190   1.891  14.106 -1.1670 -1.1466 -2.8564
15284TIP3    H267268   3.049   1.943  14.119 -0.8539 -0.8983 -0.1147
15285TIP3   OH267269   2.045   3.267  14.744  0.2463 -0.2544  0.2547
15285TIP3    H167270   1.973   3.278  14.682 -0.0597  0.2181  0.6850
15285TIP3    H267271   2.106   3.209  14.699  0.6682  1.1674 -1.0607
15286TIP3   OH267272   2.119   1.396  11.280 -0.1178 -0.3933  0.1471
15286TIP3    H167273   2.136   1.406  11.187  0.2229 -1.4505  0.0883
15286TIP3    H267274   2.079   1.309  11.288  1.5970 -1.1118  1.1923
15287TIP3   OH267275   5.947   4.737   2.978  0.2526 -0.0062  0.2893
15287TIP3    H167276   6.042   4.728   2.990  0.7947  1.1277 -2.7280
15287TIP3    H267277   5.912   4.651   3.000  2.0404 -0.6118  0.9021
15288TIP3   OH267278   3.241   5.460  13.388  0.0983  0.1494 -0.2303
15288TIP3    H167279   3.324   5.505  13.400 -0.8379  1.2170  2.7101
15288TIP3    H267280   3.236   5.443  13.294  2.6477  1.9616 -0.7415
15289TIP3   OH267281   3.130   6.167  15.660 -0.1866  0.1430 -0.7080
15289TIP3    H167282   3.138   6.158  15.755  0.2221  2.0536 -0.5407
15289TIP3    H267283   3.113   6.078  15.629 -2.3682 -0.2117  1.3408
15290TIP3   OH267284   0.761   1.838   2.301  0.4764  0.3621  0.2591
15290TIP3    H167285   0.678   1.798   2.328  0.7378 -1.7441 -2.0171
15290TIP3    H267286   0.735   1.906   2.239  0.3450  1.0141  1.0110
15291TIP3   OH267287   0.250   3.301  16.458 -0.1659  0.5385  0.3213
15291TIP3    H167288   0.293   3.282  16.542 -0.4976 -0.4048  0.2777
15291TIP3    H267289   0.322   3.314  16.396  0.0714 -0.4500  0.3804
15292TIP3   OH267290   1.306   3.549   3.815 -0.3317 -0.0702  0.9052
15292TIP3    H167291   1.392   3.530   3.854 -0.4420  0.2049  1.2956
15292TIP3    H267292   1.272   3.464   3.789  1.1660  0.0560 -1.6387
15293TIP3   OH267293   1.384   2.853   0.336 -0.4328 -0.3653  0.4791
15293TIP3    H167294   1.454   2.870   0.399  0.4880 -0.0130 -0.6150
15293TIP3    H267295   1.374   2.758   0.336  1.5750 -0.5967 -0.9648
15294TIP3   OH267296   2.500   6.138   1.562  0.1887  0.3229 -0.1053
15294TIP3    H167297   2.596   6.144   1.563  0.1727  0.5044  0.6729
15294TIP3    H267298   2.481   6.050   1.592  0.1015  0.4462  0.2045
15295TIP3   OH267299   3.173   5.937  17.106  0.3280  0.1545 -0.0878
15295TIP3    H167300   3.083   5.922  17.077  0.8672 -1.0109 -1.1998
15295TIP3    H267301   3.165   5.965  17.197 -1.2810  1.9087 -0.7318
15296TIP3   OH267302   0.854   5.399   5.452  0.1309  0.3821 -0.5866
15296TIP3    H167303   0.927   5.449   5.414  0.2239 -0.3471 -1.3742
15296TIP3    H267304   0.883   5.308   5.449  0.2434  0.3216  1.4745
15297TIP3   OH267305   3.251   4.618   4.898 -0.1314 -0.1677 -0.4331
15297TIP3    H167306   3.226   4.565   4.974 -2.4816  0.4047 -0.7835
15297TIP3    H267307   3.183   4.602   4.834 -0.9543  3.3201 -0.5365
15298TIP3   OH267308   3.759   4.623  16.789 -0.3108 -0.2640 -0.2346
15298TIP3    H167309   3.826   4.689  16.772  0.6914 -0.6537  1.9570
15298TIP3    H267310   3.728   4.643  16.878 -0.8485 -1.9762 -0.0161
15299TIP3   OH267311   0.262   3.748  11.308 -0.2699 -0.2928  0.2321
15299TIP3    H167312   0.302   3.724  11.391 -1.6313 -0.5479  0.8235
15299TIP3    H267313   0.209   3.825  11.328  0.2574  0.3023 -0.6319
15300TIP3   OH267314   5.069   2.812  14.405  0.5010 -0.3430  0.1424
15300TIP3    H167315   5.036   2.865  14.332  0.3388 -0.3933  0.1783
15300TIP3    H267316   5.152   2.777  14.374  0.6016 -0.0780  0.1128
15301TIP3   OH267317   2.053   0.682  10.301  0.2081 -0.3337 -0.0662
15301TIP3    H167318   1.979   0.622  10.309  0.7356 -0.8819  0.7702
15301TIP3    H267319   2.018   0.767  10.330  0.1738 -0.8120  1.3548
15302TIP3   OH267320   1.955   4.891   4.523 -0.2281  0.5468  0.5584
15302TIP3    H167321   1.966   4.952   4.450  0.8510  1.6739  1.6316
15302TIP3    H267322   2.044   4.862   4.544 -0.5042  0.3868  1.5561
15303TIP3   OH267323   5.104   1.068   4.816  0.1112 -0.3629  0.6118
15303TIP3    H167324   5.157   1.080   4.894  0.7615  0.1432  0.0890
15303TIP3    H267325   5.147   1.120   4.749 -1.4291  0.6175  0.3642
15304TIP3   OH267326   6.250   0.251   4.501  0.2231 -0.0005 -0.3156
15304TIP3    H167327   6.288   0.205   4.576 -2.0083 -0.4541  0.5686
15304TIP3    H267328   6.285   0.340   4.508  1.3514 -0.4761  0.2950
15305TIP3   OH267329   4.941   6.558  12.490  0.0343  0.4792 -0.0728
15305TIP3    H167330   5.011   6.493  12.495 -1.2583 -0.9595 -0.3772
15305TIP3    H267331   4.913   6.555  12.398  0.2022  1.7258 -0.1671
15306TIP3   OH267332   3.175   0.378  15.347 -0.0983  0.2942 -0.2150
15306TIP3    H167333   3.249   0.356  15.404  1.4364  2.4624 -1.2657
15306TIP3    H267334   3.195   0.334  15.264 -0.4784  0.0763 -0.1908
15307TIP3   OH267335   2.481   2.685  13.460 -0.1464  0.2321 -0.2327
15307TIP3    H167336   2.469   2.752  13.527 -0.8027 -1.2795  1.1809
15307TIP3    H267337   2.402   2.632  13.465 -1.5722  1.7659 -4.1688
15308TIP3   OH267338   0.313   6.405  15.558  0.4377  0.3761 -0.1419
15308TIP3    H167339   0.371   6.365  15.622  0.3513 -0.3842 -0.5352
15308TIP3    H267340   0.227   6.403  15.599  0.3788 -0.1318 -0.2806
15309TIP3   OH267341   2.828   6.746  13.411 -0.7784  0.0942  0.0332
15309TIP3    H167342   2.740   6.728  13.442 -0.3687 -0.9770  0.5819
15309TIP3    H267343   2.815   6.803  13.335 -2.0205 -1.2974 -0.8295
15310TIP3   OH267344   6.120   6.182   2.756 -0.1483  0.5023  0.0511
15310TIP3    H167345   6.163   6.204   2.673  0.2648 -0.5650 -0.0284
15310TIP3    H267346   6.095   6.267   2.793  0.9685  1.0730 -0.4661
15311TIP3   OH267347   6.452   4.751  16.960  0.3851  0.3272  0.3660
15311TIP3    H167348   6.471   4.762  17.053  2.0910 -0.7931  0.1758
15311TIP3    H267349   6.537   4.729  16.920 -0.3535  0.5814 -1.4232
15312TIP3   OH267350   4.457   6.649  16.806  0.2992 -0.2541 -0.1114
15312TIP3    H167351   4.471   6.743  16.795 -1.8249  0.3629  2.0647
15312TIP3    H267352   4.535   6.618  16.852  1.6105  0.1662 -1.9980
15313TIP3   OH267353   3.274   6.594  15.763 -0.2150  0.2130  0.0276
15313TIP3    H167354   3.325   6.566  15.688 -0.8253 -0.1046 -0.2745
15313TIP3    H267355   3.247   6.683  15.741  0.9288  0.7060  0.5715
15314TIP3   OH267356   2.616   1.766   0.078 -0.1828  0.1098  0.3091
15314TIP3    H167357   2.582   1.855   0.092  0.7062  0.7978 -1.6708
15314TIP3    H267358   2.694   1.779   0.024  0.8714 -1.7749  1.3333
15315TIP3   OH267359   3.948   4.001  16.666  0.2902 -0.4439 -0.1296
15315TIP3    H167360   3.933   4.013  16.573  0.4136 -0.2378 -0.1241
15315TIP3    H267361   3.942   3.907  16.680  1.3458 -0.5777 -0.5380
15316TIP3   OH267362   3.442   1.777  16.160  0.2811  0.3557  0.1660
15316TIP3    H167363   3.449   1.686  16.132 -1.2424 -0.9898  3.7151
15316TIP3    H267364   3.532   1.807  16.168  0.7863 -0.5245 -1.9381
15317TIP3   OH267365   4.830   3.594  10.677  0.2436 -0.0492 -0.2012
15317TIP3    H167366   4.870   3.624  10.759 -0.6110 -0.0544  0.2203
15317TIP3    H267367   4.785   3.671  10.643 -1.8661 -0.7944  0.8244
15318TIP3   OH267368   2.358   4.213   3.912 -0.1681  0.9686  0.7333
15318TIP3    H167369   2.282   4.257   3.874 -0.4177 -0.1118 -0.0366
15318TIP3    H267370   2.384   4.269   3.985 -0.9464  1.9865  0.2350
15319TIP3   OH267371   5.561   0.769  10.928  0.3591 -0.0721 -0.6628
15319TIP3    H167372   5.607   0.790  10.847 -0.2535  3.1559 -0.2562
15319TIP3    H267373   5.562   0.851  10.978 -0.9443 -1.4698  1.7553
15320TIP3   OH267374   6.382   2.691  13.808 -0.5597  0.1554 -0.1676
15320TIP3    H167375   6.350   2.702  13.718 -1.9187  1.5723  0.4612
15320TIP3    H267376   6.310   2.647  13.853  0.8845 -2.3143 -0.2152
15321TIP3   OH267377   3.927   5.347   1.866 -0.0755 -0.4114  0.5071
15321TIP3    H167378   3.892   5.280   1.925 -1.4221  1.3571  1.7427
15321TIP3    H267379   3.988   5.397   1.920 -0.0280  0.1728 -0.0846
15322TIP3   OH267380   2.539   6.136   4.707 -0.0483 -0.5974 -0.3928
15322TIP3    H167381   2.585   6.131   4.791  1.7281 -1.7820 -1.3996
15322TIP3    H267382   2.560   6.223   4.673  0.7240 -0.7982 -0.4375
15323TIP3   OH267383   4.037   6.497   3.150  0.2936  0.0936 -0.3551
15323TIP3    H167384   4.059   6.435   3.220 -0.5745 -0.8738 -0.9286
15323TIP3    H267385   4.111   6.556   3.146  1.8056 -1.7911 -0.7944
15324TIP3   OH267386   3.603   4.832   3.751  0.0596  0.2526  0.1610
15324TIP3    H167387   3.547   4.759   3.778 -1.2549  1.1712 -0.0913
15324TIP3    H267388   3.646   4.801   3.671 -0.2365 -0.3583  0.2353
15325TIP3   OH267389   4.928   0.220  12.941 -0.5100 -0.0953  0.3178
15325TIP3    H167390   5.014   0.231  12.901 -0.2869  0.2106  0.8885
15325TIP3    H267391   4.881   0.300  12.919 -0.4854 -0.0519  0.4237
15326TIP3   OH267392   4.472   1.878   4.150 -0.2826  0.3184 -0.7633
15326TIP3    H167393   4.488   1.938   4.077  0.7275  0.4376 -0.4501
15326TIP3    H267394   4.536   1.903   4.216 -0.8660 -0.1180 -0.0293
15327TIP3   OH267395   6.485   5.582  16.732 -0.5292 -0.3543 -0.2137
15327TIP3    H167396   6.525   5.611  16.650 -0.6274  0.8463  0.1574
15327TIP3    H267397   6.522   5.495  16.747 -0.0269 -0.3192 -1.2028
15328TIP3   OH267398   2.112   4.033  16.269  0.0244 -0.2049 -0.8130
15328TIP3    H167399   2.129   4.112  16.217  3.2691  1.0659  1.9881
15328TIP3    H267400   2.180   3.971  16.242 -0.8915 -1.1012 -1.1031
15329TIP3   OH267401   6.010   4.643  11.999  0.7429  0.5101 -0.3913
15329TIP3    H167402   5.937   4.600  12.045  0.5355 -0.7653 -1.8643
15329TIP3    H267403   6.055   4.692  12.067 -0.7800  0.3420  0.7800
15330TIP3   OH267404   2.306   0.078  16.199 -0.3441  0.8704 -0.1288
15330TIP3    H167405   2.359   0.126  16.262 -0.6433  1.4090 -0.2850
15330TIP3    H267406   2.363   0.070  16.122 -0.6688  1.8901 -0.4781
15331TIP3   OH267407   2.623   0.995   2.836 -0.0245  0.8099  0.0225
15331TIP3    H167408   2.713   1.013   2.807  0.5779  0.8013  1.8367
15331TIP3    H267409   2.589   1.081   2.860  0.5377  0.4594  2.1867
15332TIP3   OH267410   5.198   5.699  10.809 -0.1598  0.4741  0.4307
15332TIP3    H167411   5.119   5.647  10.825  0.3585 -0.3742  0.2561
15332TIP3    H267412   5.175   5.754  10.734  0.4967 -2.1457 -1.7782
15333TIP3   OH267413   2.168   1.998   5.692 -0.2839  0.2074  0.3837
15333TIP3    H167414   2.150   2.017   5.600 -4.4020 -1.5661  0.7075
15333TIP3    H267415   2.231   1.926   5.689 -0.7641 -0.1800 -1.0839
15334TIP3   OH267416   1.325   1.802  16.800  0.1977 -0.6940  0.5651
15334TIP3    H167417   1.313   1.850  16.718  0.3060  0.4881  1.2320
15334TIP3    H267418   1.236   1.773  16.823  0.0393 -0.3015  0.4612
15335TIP3   OH267419   2.439   5.492   4.768  0.2298  0.0231  0.3432
15335TIP3    H167420   2.479   5.470   4.852 -1.2712 -3.2081  0.2803
15335TIP3    H267421   2.466   5.582   4.751  3.2563 -0.3853  2.7006
15336TIP3   OH267422   5.494   6.713   5.478  0.9885 -0.3284  0.2725
15336TIP3    H167423   5.560   6.738   5.413  0.5744  0.7970  0.2673
15336TIP3    H267424   5.413   6.752   5.446  0.5058 -0.9216  0.7607
15337TIP3   OH267425   5.695   2.458   2.447  0.6116  1.1320 -0.4469
15337TIP3    H167426   5.755   2.499   2.510  0.5649 -0.6095  0.7645
15337TIP3    H267427   5.751   2.437   2.372  1.1737  1.1121 -0.0318
15338TIP3   OH267428   3.820   6.693  11.561 -0.2829  0.0210 -0.1569
15338TIP3    H167429   3.913   6.678  11.579 -0.5871 -0.3127  1.1889
15338TIP3    H267430   3.816   6.783  11.528  0.4760  0.1391  0.0676
15339TIP3   OH267431   0.858   0.181   3.651  0.0894  0.4342  0.4106
15339TIP3    H167432   0.805   0.196   3.572  0.8938 -1.2133 -0.4686
15339TIP3    H267433   0.914   0.258   3.657 -1.1487  1.3549  0.3329
15340TIP3   OH267434   1.643   6.090  15.893 -0.0707 -0.4947  0.3619
15340TIP3    H167435   1.625   6.022  15.828 -2.6465  1.5224 -1.1138
15340TIP3    H267436   1.738   6.104  15.888  0.0276 -1.7676 -1.5250
15341TIP3   OH267437   6.147   3.983   6.404  1.3152  0.1588 -0.1280
15341TIP3    H167438   6.212   4.050   6.424  0.7933  0.3619  0.9401
15341TIP3    H267439   6.180   3.903   6.445  0.6654  0.3756  0.8426
15342TIP3   OH267440   4.994   3.655   3.899 -0.4847  0.2176  0.0778
15342TIP3    H167441   4.940   3.731   3.918 -0.5408 -0.1820  1.5486
15342TIP3    H267442   4.947   3.581   3.937 -0.5323 -0.5907 -1.5170
15343TIP3   OH267443   1.384   4.615  15.350  0.1968  0.2486  0.2057
15343TIP3    H167444   1.296   4.577  15.347  0.4168 -0.5495  2.3993
15343TIP3    H267445   1.442   4.543  15.326  0.2347  0.8498 -1.5082
15344TIP3   OH267446   4.494   5.440  14.891 -0.1590 -0.3478 -0.0353
15344TIP3    H167447   4.475   5.441  14.797  0.7980 -0.0795 -0.2316
15344TIP3    H267448   4.431   5.378  14.928 -2.4349  1.6867 -0.4363
15345TIP3   OH267449   1.895   5.098  15.156 -0.3264 -0.2674 -0.3417
15345TIP3    H167450   1.869   5.190  15.159  0.6012  0.0033 -0.1386
15345TIP3    H267451   1.828   5.055  15.104  1.3829  1.2905 -4.0724
15346TIP3   OH267452   1.250   4.212   4.196 -0.0269 -0.1548  0.0300
15346TIP3    H167453   1.215   4.263   4.269 -0.1986 -0.1538 -0.0513
15346TIP3    H267454   1.203   4.246   4.119  1.8876  1.5156 -0.4306
15347TIP3   OH267455   2.443   1.610   0.957 -0.3709 -0.2338  0.1108
15347TIP3    H167456   2.526   1.581   0.922 -0.6021 -1.2240  0.3584
15347TIP3    H267457   2.456   1.612   1.052 -0.3004  0.6492  0.0822
15348TIP3   OH267458   6.164   6.725  14.223  0.0364 -0.5252  0.2667
15348TIP3    H167459   6.131   6.742  14.311  2.0344 -1.5855  1.2538
15348TIP3    H267460   6.099   6.668  14.183  0.1541 -1.7904  1.8198
15349TIP3   OH267461   0.804   2.997  15.100 -0.4410  0.3405 -0.3165
15349TIP3    H167462   0.805   3.092  15.085 -3.6269  0.9629  2.6365
15349TIP3    H267463   0.734   2.965  15.043 -0.8624  0.1324  0.3097
15350TIP3   OH267464   1.945   2.354  14.483 -0.1200  0.0914  0.3678
15350TIP3    H167465   1.992   2.412  14.542 -1.0109 -0.1763  1.3557
15350TIP3    H267466   1.996   2.273  14.482 -0.3995 -0.0943  1.2014
15351TIP3   OH267467   4.127   1.024  14.275 -0.1715  0.0301 -0.4231
15351TIP3    H167468   4.154   1.100  14.327  1.1829  0.4260 -1.6605
15351TIP3    H267469   4.172   0.950  14.317 -0.5921  0.0777  0.1088
15352TIP3   OH267470   6.050   5.868   3.163  0.1968 -0.6593  0.8148
15352TIP3    H167471   6.075   5.783   3.128 -0.6302 -0.7063  0.3199
15352TIP3    H267472   5.987   5.902   3.100 -0.7928 -0.4417  1.9007
15353TIP3   OH267473   6.479   2.341  10.880  0.3382  0.1924 -0.1862
15353TIP3    H167474   6.386   2.354  10.901  0.6572  0.5710  1.0430
15353TIP3    H267475   6.482   2.256  10.837 -0.4032 -0.4164  0.9456
15354TIP3   OH267476   5.404   5.623  13.296  0.6745  0.4516  0.5602
15354TIP3    H167477   5.480   5.606  13.240  0.1908 -0.0561  0.0502
15354TIP3    H267478   5.335   5.567  13.261  0.2345  0.4593  1.3939
15355TIP3   OH267479   0.557   5.969  14.673  0.1450 -0.3215  0.1535
15355TIP3    H167480   0.508   5.924  14.741 -2.2625  1.3842 -0.3895
15355TIP3    H267481   0.503   5.959  14.594  0.0837  2.5425 -0.2031
15356TIP3   OH267482   2.994   5.946  12.991  0.2992 -0.1556  0.0279
15356TIP3    H167483   2.976   6.008  13.062  1.2548  0.7710 -0.5306
15356TIP3    H267484   3.090   5.937  12.991  0.2956 -0.1971 -1.1134
15357TIP3   OH267485   5.567   2.643  15.678 -0.3502  0.1695  0.5593
15357TIP3    H167486   5.569   2.577  15.747 -2.3262 -0.3182  0.1974
15357TIP3    H267487   5.657   2.645  15.644 -0.6868 -3.9427 -0.8750
15358TIP3   OH267488   4.063   0.179   0.214  0.1657 -0.5758 -0.2616
15358TIP3    H167489   3.993   0.239   0.240  0.6511  0.3456 -1.0451
15358TIP3    H267490   4.038   0.095   0.253 -1.7206 -0.4274 -1.0935
15359TIP3   OH267491   5.632   0.193   3.220  0.2877 -0.3236  0.2579
15359TIP3    H167492   5.682   0.242   3.154  0.5758  0.2990  0.9387
15359TIP3    H267493   5.554   0.245   3.236 -0.5655 -1.2615 -0.7481
15360TIP3   OH267494   1.800   1.693  13.274 -0.0131 -0.0456 -0.4525
15360TIP3    H167495   1.717   1.742  13.275 -0.0639 -0.1201 -1.2184
15360TIP3    H267496   1.864   1.754  13.312 -0.8740 -0.7975  2.3408
15361TIP3   OH267497   1.231   0.403  14.015  0.3460  0.0154 -0.8845
15361TIP3    H167498   1.231   0.407  14.111  1.1706 -2.4202 -0.7413
15361TIP3    H267499   1.307   0.455  13.989 -0.3114  1.3009 -0.2568
15362TIP3   OH267500   2.159   0.979   6.301  0.3528 -0.1715  0.4000
15362TIP3    H167501   2.083   1.036   6.311  1.2630  0.9142  1.1490
15362TIP3    H267502   2.137   0.900   6.350 -1.1354 -0.7124 -1.0912
15363TIP3   OH267503   4.513   4.112   5.303  0.2006 -0.4037  0.1731
15363TIP3    H167504   4.506   4.106   5.207  0.4778 -0.5297  0.1603
15363TIP3    H267505   4.430   4.078   5.335  0.1661 -0.5043 -0.0221
15364TIP3   OH267506   4.997   4.074  12.309  0.2956 -0.0374  0.6133
15364TIP3    H167507   4.904   4.095  12.306  0.4277  0.8122  2.0592
15364TIP3    H267508   5.023   4.064  12.218 -1.3603 -0.9358  0.2232
15365TIP3   OH267509   1.715   1.877  12.837 -0.1142  0.4598  0.0752
15365TIP3    H167510   1.717   1.781  12.834  0.7171  0.4987 -1.0479
15365TIP3    H267511   1.748   1.899  12.924 -3.0752 -0.3321  1.4515
15366TIP3   OH267512   0.952   1.225  15.106 -0.6137  0.0471  0.5656
15366TIP3    H167513   1.016   1.188  15.045 -1.6110  0.0552 -0.5081
15366TIP3    H267514   1.004   1.280  15.165  0.1574  1.5116 -1.4149
15367TIP3   OH267515   5.766   0.157  17.204 -0.2155  0.1500 -0.4342
15367TIP3    H167516   5.759   0.249  17.230  2.6958  0.9620 -2.3331
15367TIP3    H267517   5.678   0.134  17.173 -1.1626  2.0434  0.7901
15368TIP3   OH267518   3.668   2.352   4.954 -1.0958  0.5251  0.3835
15368TIP3    H167519   3.696   2.443   4.943  1.5714 -0.4167 -1.1307
15368TIP3    H267520   3.667   2.339   5.049  1.3206  1.3701  0.5652
15369TIP3   OH267521   1.992   6.415   0.576  0.2714 -0.2472 -0.1994
15369TIP3    H167522   1.996   6.439   0.669 -0.1936  0.1467 -0.2774
15369TIP3    H267523   1.952   6.328   0.575 -1.2053  0.4061 -0.1228
15370TIP3   OH267524   2.793   4.668  12.025  0.6856 -0.2501 -0.0629
15370TIP3    H167525   2.847   4.684  11.948 -0.5966 -0.4817 -1.0230
15370TIP3    H267526   2.762   4.755  12.051 -0.2186 -0.3516 -0.7983
15371TIP3   OH267527   2.505   5.769  14.197 -0.0809 -0.3074  0.3816
15371TIP3    H167528   2.451   5.699  14.161 -0.8414  0.5372 -0.1680
15371TIP3    H267529   2.462   5.793  14.280 -0.2296 -0.0214  0.2248
15372TIP3   OH267530   2.689   0.884   2.403 -0.1398  0.0753 -0.0727
15372TIP3    H167531   2.665   0.976   2.410  1.6975  0.5724 -0.2364
15372TIP3    H267532   2.655   0.857   2.318 -0.5011  0.6568 -0.1146
15373TIP3   OH267533   3.165   5.997   0.917 -0.1576  0.4391 -0.4352
15373TIP3    H167534   3.248   6.043   0.907 -0.0707  1.4294  3.8682
15373TIP3    H267535   3.120   6.043   0.989 -2.1054 -3.2975  0.8929
15374TIP3   OH267536   3.837   0.723  16.526  0.2048 -0.1400 -0.0724
15374TIP3    H167537   3.903   0.760  16.585  0.2675  0.5489 -0.5613
15374TIP3    H267538   3.888   0.676  16.460  0.1801 -0.0960 -0.1217
15375TIP3   OH267539   5.018   4.999  13.749  0.0995  0.2523  0.1105
15375TIP3    H167540   5.037   5.004  13.655 -0.3364 -1.6413 -0.0893
15375TIP3    H267541   5.002   4.906  13.766 -3.6651  1.0353  1.3056
15376TIP3   OH267542   1.579   2.529  15.866  1.2378  0.1334 -0.1502
15376TIP3    H167543   1.514   2.585  15.823  2.6313  0.6693 -1.6288
15376TIP3    H267544   1.641   2.506  15.796  0.7840 -3.1552  0.4435
15377TIP3   OH267545   2.553   3.516   5.248  0.2736 -0.3385 -0.2256
15377TIP3    H167546   2.492   3.446   5.271  0.1463 -1.3197 -3.2331
15377TIP3    H267547   2.637   3.472   5.237  1.1161  0.6866  1.9325
15378TIP3   OH267548   5.738   1.155  12.928 -0.4105  0.0923 -0.3940
15378TIP3    H167549   5.700   1.222  12.871  3.1284  0.5365 -2.4073
15378TIP3    H267550   5.705   1.072  12.894 -1.1990  0.5553 -0.7718
15379TIP3   OH267551   4.416   2.952  15.837 -0.0053  0.3072  0.1952
15379TIP3    H167552   4.476   3.026  15.824 -0.3443  0.4746 -0.4695
15379TIP3    H267553   4.351   2.985  15.899 -1.7841  1.5569 -2.2674
15380TIP3   OH267554   0.116   3.665   2.888  0.1162 -0.6202  0.1520
15380TIP3    H167555   0.174   3.632   2.957  2.5265  0.7014 -1.1828
15380TIP3    H267556   0.105   3.758   2.907 -2.2975 -1.0096  0.8557
15381TIP3   OH267557   3.002   0.176   4.244 -0.3309  0.2575 -0.2168
15381TIP3    H167558   2.964   0.107   4.190 -0.9054 -2.5927  3.6325
15381TIP3    H267559   2.928   0.231   4.268 -0.6756 -0.4927  0.4695
15382TIP3   OH267560   6.150   4.565   1.596  0.0527  0.1405  0.1257
15382TIP3    H167561   6.169   4.498   1.530  1.6242 -0.7034  1.3971
15382TIP3    H267562   6.088   4.523   1.655 -0.5282  0.5268 -0.2039
15383TIP3   OH267563   3.241   4.439   3.035 -0.3803 -0.3326  0.7727
15383TIP3    H167564   3.269   4.426   2.944 -3.1853  2.4551 -0.5720
15383TIP3    H267565   3.313   4.402   3.087  2.6467  0.5758 -2.5445
15384TIP3   OH267566   2.091   2.195  11.182 -0.2586 -0.1779  0.2015
15384TIP3    H167567   2.046   2.167  11.103 -0.7474  1.2385 -0.0389
15384TIP3    H267568   2.176   2.151  11.179 -0.2884 -0.1631 -1.0936
15385TIP3   OH267569   5.929   3.471  10.932  0.3729 -0.3547 -0.2766
15385TIP3    H167570   5.971   3.545  10.975 -0.0583 -0.2212 -0.0862
15385TIP3    H267571   5.931   3.401  10.997 -0.8010  0.0206  0.1800
15386TIP3   OH267572   4.378   0.159   4.101 -0.4271  0.1740 -0.0412
15386TIP3    H167573   4.361   0.241   4.055 -0.3738 -0.7930 -1.8259
15386TIP3    H267574   4.431   0.185   4.177  0.9230  1.5820 -1.4386
15387TIP3   OH267575   1.644   4.802   2.283  0.3789 -0.1555 -0.0100
15387TIP3    H167576   1.704   4.832   2.351  0.7475  0.9188 -0.8075
15387TIP3    H267577   1.629   4.879   2.228  0.6017 -1.1973 -1.5352
15388TIP3   OH267578   0.763   2.293   3.329 -0.5342 -0.2456  0.1979
15388TIP3    H167579   0.741   2.232   3.258  0.2306 -1.4737  1.0085
15388TIP3    H267580   0.681   2.304   3.378 -0.9314  0.1984 -0.5472
15389TIP3   OH267581   1.985   1.183   6.313 -0.4601 -0.4418  0.3188
15389TIP3    H167582   1.953   1.240   6.243  0.1840 -1.3619 -0.7402
15389TIP3    H267583   1.910   1.176   6.373 -1.5048 -0.7390 -0.9777
15390TIP3   OH267584   0.213   2.284  14.727 -0.5403 -0.0065  0.3318
15390TIP3    H167585   0.127   2.265  14.692 -0.0553 -0.1770 -0.7920
15390TIP3    H267586   0.265   2.311  14.650 -0.0002  1.5049  1.1940
15391TIP3   OH267587   3.354   3.511  14.136 -0.1105 -0.0923 -0.0577
15391TIP3    H167588   3.259   3.505  14.145 -0.4085  0.4969 -2.4956
15391TIP3    H267589   3.383   3.554  14.217 -2.4184  3.7308 -1.1201
15392TIP3   OH267590   3.505   0.372   2.375  0.4173 -0.3546  0.0732
15392TIP3    H167591   3.555   0.400   2.452  2.1281  0.9570 -1.4722
15392TIP3    H267592   3.485   0.453   2.329 -1.4943 -1.0433 -0.3448
15393TIP3   OH267593   1.589   0.981   0.693 -0.2249 -0.4045  0.1280
15393TIP3    H167594   1.669   0.997   0.643 -0.8378 -2.4940 -1.6098
15393TIP3    H267595   1.619   0.963   0.782  1.2394 -1.3276 -0.5431
15394TIP3   OH267596   6.204   0.945   0.180  0.4697 -0.1895 -0.1954
15394TIP3    H167597   6.129   0.907   0.135 -0.1783  1.1580 -0.2668
15394TIP3    H267598   6.209   0.897   0.263  0.6464 -1.5128 -0.9544
15395TIP3   OH267599   4.583   3.606  12.482  0.3719  0.5864 -0.2753
15395TIP3    H167600   4.553   3.607  12.391  1.6178 -1.0951 -0.7192
15395TIP3    H267601   4.652   3.674  12.485  0.7497  0.2262 -0.7343
15396TIP3   OH267602   4.441   5.021   2.099 -1.0306 -0.1294 -0.4165
15396TIP3    H167603   4.521   4.969   2.090 -0.4015  0.9928 -1.5013
15396TIP3    H267604   4.382   4.986   2.033 -1.8383 -1.6616  1.0957
15397TIP3   OH267605   6.524   5.193  10.347  0.1991  0.2015  0.2721
15397TIP3    H167606   6.463   5.174  10.418  0.9770 -0.6457  0.7375
15397TIP3    H267607   6.469   5.210  10.271 -0.6045 -1.4678  0.4602
15398TIP3   OH267608   2.316   1.374   1.364  0.7651 -0.2344 -0.3348
15398TIP3    H167609   2.359   1.424   1.433  1.5114  0.2432 -1.1367
15398TIP3    H267610   2.385   1.321   1.325  0.8492  1.2217 -2.2497
15399TIP3   OH267611   4.652   3.876   1.911  0.2261 -0.1393 -0.1936
15399TIP3    H167612   4.638   3.836   1.825 -1.6134  2.1643 -1.0260
15399TIP3    H267613   4.565   3.903   1.940  1.0845  0.9857  1.4405
15400TIP3   OH267614   6.029   3.276  12.721 -0.0491  0.2900  0.2069
15400TIP3    H167615   6.014   3.211  12.653 -1.0774  1.5376 -0.8003
15400TIP3    H267616   6.055   3.355  12.673 -1.5293  1.4029  1.2018
15401TIP3   OH267617   4.472   2.949   4.860  0.0113 -0.1152 -0.0289
15401TIP3    H167618   4.473   2.858   4.891 -0.5430 -0.2909 -0.5143
15401TIP3    H267619   4.555   2.959   4.812  1.7315  0.6952  2.9780
15402TIP3   OH267620   2.079   4.517   0.045  0.0833 -0.6597  1.0553
15402TIP3    H167621   2.069   4.521  -0.050  1.7426  1.4425  0.9363
15402TIP3    H267622   2.073   4.424   0.066  1.3527 -1.3010 -1.2802
15403TIP3   OH267623   3.490   0.846  11.689 -0.2104 -0.2614 -0.2240
15403TIP3    H167624   3.413   0.807  11.649 -0.0553 -1.4643  0.6286
15403TIP3    H267625   3.498   0.803  11.774  0.1373  1.4221  0.6232
15404TIP3   OH267626   3.328   1.329   3.928  0.7656  0.4941  0.2122
15404TIP3    H167627   3.244   1.372   3.942 -0.5887 -1.2978 -1.9498
15404TIP3    H267628   3.335   1.265   3.998 -1.0124 -1.2444 -1.1569
15405TIP3   OH267629   4.676   4.714  14.207 -0.1096  0.1839  0.5436
15405TIP3    H167630   4.584   4.702  14.230 -0.0754 -0.0084  0.5782
15405TIP3    H267631   4.723   4.647  14.257 -0.1329 -0.8976 -0.8393
15406TIP3   OH267632   5.695   1.704   3.448 -0.4565 -0.7982  0.3018
15406TIP3    H167633   5.776   1.685   3.494 -1.6700  1.9951  3.7640
15406TIP3    H267634   5.644   1.623   3.454  0.6236 -1.4171  1.1762
15407TIP3   OH267635   5.186   1.414  16.665 -0.1371 -0.4429  0.2399
15407TIP3    H167636   5.156   1.494  16.708  0.8220 -0.0837  0.2607
15407TIP3    H267637   5.281   1.425  16.659  0.1866 -2.2309  1.6177
15408TIP3   OH267638   2.589   5.814   1.344 -0.8599 -0.0150  0.0483
15408TIP3    H167639   2.532   5.782   1.414  0.0604 -0.5445  0.5605
15408TIP3    H267640   2.592   5.742   1.281  0.9448 -0.8322  1.0425
15409TIP3   OH267641   4.474   3.325   5.462  0.5523  0.5066  0.5862
15409TIP3    H167642   4.490   3.246   5.513 -1.7963  0.2479  0.9406
15409TIP3    H267643   4.557   3.341   5.416  1.0137 -2.2034  0.4169
15410TIP3   OH267644   5.118   5.479   0.396  0.2680  0.0885 -0.3703
15410TIP3    H167645   5.193   5.519   0.439 -0.5470  0.3454  0.8096
15410TIP3    H267646   5.063   5.552   0.369 -0.4780 -0.1737  0.4354
15411TIP3   OH267647   4.314   5.924  12.925 -0.1165 -0.0908 -0.1345
15411TIP3    H167648   4.321   5.889  12.836 -1.1080 -2.2999  0.6150
15411TIP3    H267649   4.316   6.019  12.914  0.9420 -0.3521 -2.4061
15412TIP3   OH267650   6.402   1.222   4.435 -0.9674 -0.4232  0.2394
15412TIP3    H167651   6.315   1.210   4.398 -0.6471  2.4906 -1.5881
15412TIP3    H267652   6.436   1.301   4.394  2.4439 -1.3059  1.1373
15413TIP3   OH267653   4.748   4.640   1.001 -0.2069 -0.4297 -0.0877
15413TIP3    H167654   4.776   4.564   1.053  1.2232 -0.3583 -0.7320
15413TIP3    H267655   4.813   4.707   1.020  0.4788 -0.4834 -2.1544
15414TIP3   OH267656   2.034   3.450  16.991  0.5863 -0.1928 -0.4641
15414TIP3    H167657   1.984   3.509  17.048 -0.4298 -1.1074 -0.3975
15414TIP3    H267658   2.047   3.500  16.910 -0.5086  0.0286 -0.5129
15415TIP3   OH267659   1.962   4.309   0.849 -0.0183 -0.0762 -0.0087
15415TIP3    H167660   1.972   4.309   0.754 -1.8139  0.6283 -0.2267
15415TIP3    H267661   1.956   4.216   0.872 -0.7609 -0.2132 -0.7340
15416TIP3   OH267662   4.980   5.027   2.237  0.4808  0.7110 -0.4504
15416TIP3    H167663   5.005   5.012   2.328 -0.9267  0.2842 -0.1328
15416TIP3    H267664   5.003   4.945   2.192 -0.5362  0.2356 -0.1140
15417TIP3   OH267665   1.791   6.083   5.172 -0.3872 -0.6293 -0.2033
15417TIP3    H167666   1.825   6.100   5.084  0.2463 -1.9825 -0.2222
15417TIP3    H267667   1.706   6.040   5.157 -0.5896 -0.2566 -0.1441
15418TIP3   OH267668   6.418   1.814   1.208  0.1163  0.2532 -0.1581
15418TIP3    H167669   6.370   1.885   1.251  0.7628 -0.0371  1.0584
15418TIP3    H267670   6.397   1.736   1.259  0.3840 -0.2271 -0.7646
15419TIP3   OH267671   4.223   3.471  14.485  0.5674 -0.1239 -0.3478
15419TIP3    H167672   4.292   3.517  14.533  0.8410 -0.2702 -0.5975
15419TIP3    H267673   4.245   3.484  14.393 -0.8301  1.4765 -0.4813
15420TIP3   OH267674   1.542   0.607  12.063 -0.1019  0.3612  0.2530
15420TIP3    H167675   1.461   0.563  12.091 -0.0701  0.4207  0.4385
15420TIP3    H267676   1.514   0.695  12.039 -0.3187 -0.0300 -0.9912
15421TIP3   OH267677   3.138   0.802   4.393 -0.7597 -0.4912  1.1279
15421TIP3    H167678   3.206   0.762   4.338 -1.2597  0.3692 -0.1570
15421TIP3    H267679   3.163   0.895   4.397 -2.6916  0.1630 -0.7009
15422TIP3   OH267680   3.225   2.618   6.197  0.1149  0.3035  0.6214
15422TIP3    H167681   3.146   2.643   6.245  1.0101  1.4197  1.5652
15422TIP3    H267682   3.195   2.555   6.131 -1.6828  1.3426  0.4132
15423TIP3   OH267683   4.284   4.311   0.378 -0.6724 -0.1523 -0.5159
15423TIP3    H167684   4.304   4.282   0.289 -1.1973 -2.4309  0.0956
15423TIP3    H267685   4.365   4.352   0.408 -0.1060 -0.4481 -1.5976
15424TIP3   OH267686   0.525   4.375  16.348 -0.3836 -0.2497  0.1039
15424TIP3    H167687   0.578   4.455  16.351 -0.5656 -0.0660 -1.3348
15424TIP3    H267688   0.565   4.318  16.414 -0.6243  1.2485  1.5980
15425TIP3   OH267689   5.918   1.400   2.879  0.7791  0.4746  0.1302
15425TIP3    H167690   5.984   1.385   2.947  0.1322  0.4463  0.7663
15425TIP3    H267691   5.887   1.489   2.895 -1.2665 -0.4401  1.5749
15426TIP3   OH267692   6.395   5.068  15.036  0.5183 -0.2293  0.8695
15426TIP3    H167693   6.489   5.078  15.019  0.4981 -0.8657  0.3863
15426TIP3    H267694   6.389   5.047  15.129  0.8353  0.1008  0.9644
15427TIP3   OH267695   4.463   1.551   4.248  0.2351  0.0059 -0.3955
15427TIP3    H167696   4.542   1.597   4.216  0.9507 -0.6412  0.4183
15427TIP3    H267697   4.433   1.500   4.173 -0.0102  1.0522 -1.0216
15428TIP3   OH267698   4.384   1.870   0.630  0.0656  0.1267  0.0143
15428TIP3    H167699   4.310   1.888   0.572  0.6246  0.1870 -0.6984
15428TIP3    H267700   4.373   1.779   0.656 -0.4701  0.2526  0.2226
15429TIP3   OH267701   2.725   5.529  12.370  0.3303  0.0215 -0.0251
15429TIP3    H167702   2.751   5.439  12.387 -0.2164 -0.1860 -0.2716
15429TIP3    H267703   2.779   5.556  12.296 -0.1312 -0.4043 -0.5262
15430TIP3   OH267704   2.458   5.262   0.133  0.1871 -0.5152  0.4971
15430TIP3    H167705   2.524   5.213   0.083 -0.5973 -1.8311  0.7341
15430TIP3    H267706   2.470   5.353   0.105 -0.1036 -1.1874 -1.9659
15431TIP3   OH267707   5.197   5.136   4.038  0.3721  0.4986  0.2000
15431TIP3    H167708   5.206   5.213   3.982 -0.0475  0.2840 -0.1613
15431TIP3    H267709   5.104   5.113   4.033  0.2992  0.5704  1.0997
15432TIP3   OH267710   0.302   1.609  13.929  0.4894  0.2625 -0.0833
15432TIP3    H167711   0.321   1.703  13.928  0.5042  0.2458 -1.5545
15432TIP3    H267712   0.206   1.605  13.929  0.4905  0.2677 -0.5010
15433TIP3   OH267713   0.709   4.088  13.450  0.0611  0.1051 -0.1801
15433TIP3    H167714   0.739   4.088  13.540  1.3489  0.5168 -0.6031
15433TIP3    H267715   0.656   4.009  13.442  0.0363  0.0077  0.8948
15434TIP3   OH267716   5.939   2.285  16.729  0.5594 -0.4033 -0.3405
15434TIP3    H167717   5.888   2.326  16.659  0.8421 -0.7238 -0.7423
15434TIP3    H267718   5.904   2.322  16.810 -2.0189 -2.4488 -0.4318
15435TIP3   OH267719   4.846   6.760  10.813  0.4342 -0.1164 -0.1809
15435TIP3    H167720   4.928   6.800  10.840 -0.0769  0.4932  0.5022
15435TIP3    H267721   4.866   6.716  10.731  1.2587  0.6657 -0.4020
15436TIP3   OH267722   5.313   1.037   0.872  0.0598 -0.3080  0.3235
15436TIP3    H167723   5.281   0.988   0.948  2.1657 -2.0833  0.1236
15436TIP3    H267724   5.264   1.120   0.874 -2.8224 -1.9549  1.2835
15437TIP3   OH267725   5.386   1.238   4.951  0.5404 -0.0555 -0.0228
15437TIP3    H167726   5.348   1.325   4.965  0.3363 -0.0272 -0.7306
15437TIP3    H267727   5.467   1.240   5.001  1.7575  1.4223 -1.9602
15438TIP3   OH267728   6.769   5.738  11.621  0.0099 -0.1863 -0.4871
15438TIP3    H167729   6.685   5.764  11.585 -0.3262 -0.5993 -0.0050
15438TIP3    H267730   6.809   5.685  11.552  0.6393  1.4507 -1.4204
15439TIP3   OH267731   1.312   4.792   4.105  0.2828  0.5382 -0.4800
15439TIP3    H167732   1.329   4.698   4.108  0.3580  0.5342 -0.9549
15439TIP3    H267733   1.216   4.799   4.101  0.2570  0.4972  0.0713
15440TIP3   OH267734   0.021   3.139   4.938  0.7488 -0.5326 -0.2030
15440TIP3    H167735   0.079   3.139   5.014 -0.1739 -0.6758  0.5076
15440TIP3    H267736  -0.061   3.100   4.969 -0.2759  1.0702 -0.7742
15441TIP3   OH267737   5.258   1.178  12.312 -0.5060  0.8720 -0.2881
15441TIP3    H167738   5.186   1.127  12.349 -0.1936 -0.5749 -1.6504
15441TIP3    H267739   5.281   1.240  12.381 -2.3748  0.6684  0.5460
15442TIP3   OH267740   2.227   6.697  13.091  0.1457  0.2639  0.3164
15442TIP3    H167741   2.266   6.624  13.138  0.2185  1.1102  1.5784
15442TIP3    H267742   2.139   6.666  13.068  0.2001 -0.2455  0.7785
15443TIP3   OH267743   0.711   0.270  10.461  0.2447  0.5175 -0.2760
15443TIP3    H167744   0.722   0.351  10.411 -1.6097  1.3702  0.6536
15443TIP3    H267745   0.678   0.207  10.398  1.7446  0.4402 -1.0223
15444TIP3   OH267746   1.292   2.255  13.889 -0.5754 -0.1706  0.3058
15444TIP3    H167747   1.204   2.222  13.906 -0.2005 -0.2438  2.2266
15444TIP3    H267748   1.297   2.262  13.793 -2.1991 -1.4121  0.1077
15445TIP3   OH267749   1.917   1.569   1.862 -0.1294  0.2644 -0.2470
15445TIP3    H167750   1.857   1.585   1.789 -0.4600  0.0407 -0.0246
15445TIP3    H267751   1.860   1.560   1.938  0.2546  1.0806  0.1416
15446TIP3   OH267752   1.110   4.263  15.510 -0.6401 -0.5386 -0.5150
15446TIP3    H167753   1.043   4.231  15.449  0.4834 -0.9459 -1.5631
15446TIP3    H267754   1.129   4.352  15.481 -2.8994  0.6908  1.6655
15447TIP3   OH267755   0.113   4.541  15.131 -0.0622  0.8244  0.2533
15447TIP3    H167756   0.170   4.465  15.120  0.7430  1.5214 -0.4947
15447TIP3    H267757   0.129   4.594  15.052 -2.2567  0.6902 -0.3231
15448TIP3   OH267758   6.458   5.993   1.624  0.0618 -0.4580 -0.3063
15448TIP3    H167759   6.501   5.983   1.708  0.5581 -1.4391 -0.6741
15448TIP3    H267760   6.457   5.905   1.586 -0.8458 -0.1623 -0.9897
15449TIP3   OH267761   2.469   3.470  11.326 -0.0237 -0.0824 -0.3761
15449TIP3    H167762   2.424   3.408  11.383 -0.5364  0.7080  0.0976
15449TIP3    H267763   2.414   3.474  11.248 -0.6403  0.6777  0.0905
15450TIP3   OH267764   0.632   1.372   2.915  0.1729 -0.0011  0.1796
15450TIP3    H167765   0.599   1.282   2.912 -3.6314  1.3208  0.2334
15450TIP3    H267766   0.631   1.396   3.007 -0.3840  0.6517  0.0078
15451TIP3   OH267767   2.523   1.359  15.498  0.4493  0.7153 -0.5488
15451TIP3    H167768   2.572   1.433  15.535  0.9127 -0.2569  0.8120
15451TIP3    H267769   2.444   1.354  15.551 -0.3411  1.2126 -1.6601
15452TIP3   OH267770   1.851   0.937   1.693 -0.0897  0.0579 -0.0775
15452TIP3    H167771   1.818   0.910   1.607 -0.2623 -0.5528  0.1807
15452TIP3    H267772   1.781   0.914   1.754  1.1736 -2.1066  0.6065
15453TIP3   OH267773   6.253   5.683  14.460  0.3334 -0.3385 -0.0956
15453TIP3    H167774   6.299   5.763  14.484 -1.1642  0.6603 -0.4646
15453TIP3    H267775   6.321   5.625  14.426  1.0864  1.7731 -2.3619
15454TIP3   OH267776   3.265   1.982  11.825  0.5470 -0.1891  0.7179
15454TIP3    H167777   3.195   1.923  11.850  0.3758 -0.4302 -0.3327
15454TIP3    H267778   3.327   1.978  11.898  0.1935 -1.1077  0.9662
15455TIP3   OH267779   6.011   6.430   5.794 -0.7747 -0.1696  0.5119
15455TIP3    H167780   6.048   6.342   5.799 -2.0784 -0.7515  0.2851
15455TIP3    H267781   5.983   6.449   5.884 -2.7993 -1.0355  0.0905
15456TIP3   OH267782   1.395   5.211  10.792  0.0594 -0.2229 -0.2490
15456TIP3    H167783   1.380   5.117  10.786  1.2882 -0.3876 -0.8916
15456TIP3    H267784   1.381   5.244  10.703  1.0391 -0.0299 -0.3461
15457TIP3   OH267785   0.005   2.248   3.397  0.3137  0.1970 -0.1720
15457TIP3    H167786  -0.013   2.155   3.404  0.8378  0.1059  0.0411
15457TIP3    H267787   0.067   2.265   3.468  2.4078  0.1363 -1.9227
15458TIP3   OH267788   1.608   4.718  14.147  0.4829 -0.1520 -0.0806
15458TIP3    H167789   1.646   4.795  14.189  2.2821 -1.5506  0.9189
15458TIP3    H267790   1.581   4.749  14.061 -0.5112  2.0294  0.9781
15459TIP3   OH267791   1.914   1.971  12.145 -0.1940 -0.4429  0.2362
15459TIP3    H167792   1.922   2.021  12.064  0.6998  1.6464  1.5611
15459TIP3    H267793   1.960   2.024  12.210 -1.7158 -1.6040  2.3219
15460TIP3   OH267794   1.587   1.491  14.326  0.2617 -0.1419 -0.2155
15460TIP3    H167795   1.493   1.483  14.341 -0.0028  2.2017 -0.3811
15460TIP3    H267796   1.596   1.501  14.232  0.7735 -1.3122 -0.3014
15461TIP3   OH267797   0.177   4.891  15.013  0.7842 -0.0133  0.2881
15461TIP3    H167798   0.171   4.901  14.918 -2.2921 -1.1613  0.3234
15461TIP3    H267799   0.131   4.967  15.048  1.7092  0.2850  0.8604
15462TIP3   OH267800   4.450   1.368  12.181  0.3303 -0.3424  0.4590
15462TIP3    H167801   4.465   1.463  12.191  0.6008 -0.2792 -0.5611
15462TIP3    H267802   4.487   1.330  12.261 -0.9014  0.5211  1.4785
15463TIP3   OH267803   4.198   0.716   0.659 -0.2536 -0.2441  0.1270
15463TIP3    H167804   4.123   0.752   0.705  0.4768  1.2088  0.2128
15463TIP3    H267805   4.163   0.682   0.577 -1.5078 -2.5384  1.5416
15464TIP3   OH267806   2.901   5.474  15.696 -0.2042  0.1064  0.5032
15464TIP3    H167807   2.816   5.432  15.707  0.9153 -1.7498  2.4548
15464TIP3    H267808   2.934   5.439  15.613 -0.5482 -0.6328  0.6686
15465TIP3   OH267809   1.590   1.634  12.004  0.0372  0.1819  0.3905
15465TIP3    H167810   1.682   1.659  12.012  0.4169 -1.4299  1.1828
15465TIP3    H267811   1.545   1.689  12.067  0.4551  0.9566  0.0209
15466TIP3   OH267812   6.435   1.642  14.077 -0.5113  0.5365 -0.8410
15466TIP3    H167813   6.341   1.623  14.078 -0.4071 -0.0372  1.0246
15466TIP3    H267814   6.440   1.736  14.093 -0.7515  0.2851  0.8761
15467TIP3   OH267815   0.933   3.813   0.040  0.5155 -0.3937  1.1446
15467TIP3    H167816   0.995   3.743   0.023  0.8817  0.0003  0.8365
15467TIP3    H267817   0.910   3.804   0.132  1.0973 -0.4837  1.2788
15468TIP3   OH267818   1.320   2.655   5.060  0.4369  0.4873  0.3999
15468TIP3    H167819   1.277   2.733   5.095  1.5108  1.6698 -0.8475
15468TIP3    H267820   1.344   2.604   5.137 -2.1680  0.3478  1.1571
15469TIP3   OH267821   5.752   2.902   4.799  0.3624  0.6469 -0.6871
15469TIP3    H167822   5.847   2.907   4.788  0.4473  0.3420 -0.1023
15469TIP3    H267823   5.722   2.853   4.722  0.7674  0.0521 -0.4720
15470TIP3   OH267824   5.393   2.502  17.055 -0.5990 -0.2471  0.6231
15470TIP3    H167825   5.368   2.594  17.060 -0.6979 -0.3461  2.1253
15470TIP3    H267826   5.377   2.467  17.143 -3.2697 -2.4039 -0.6294
15471TIP3   OH267827   2.090   0.315  11.521  0.0370  0.1545  0.1068
15471TIP3    H167828   2.035   0.392  11.534  0.9000  0.8286 -0.1994
15471TIP3    H267829   2.032   0.252  11.478 -1.5255 -0.4491  2.9092
15472TIP3   OH267830   3.405   4.414  16.395  0.0747 -0.1827 -0.0248
15472TIP3    H167831   3.399   4.463  16.314  0.6060 -1.8961 -1.1415
15472TIP3    H267832   3.491   4.436  16.430 -0.0492  0.3577 -0.0560
15473TIP3   OH267833   1.162   3.098  11.003 -0.1655  0.6950 -0.3972
15473TIP3    H167834   1.113   3.126  10.926 -1.7382  0.2057  0.4052
15473TIP3    H267835   1.097   3.096  11.074  0.9215 -0.3602  0.5961
15474TIP3   OH267836   0.196   6.008   5.373 -0.0308  0.0542  0.7800
15474TIP3    H167837   0.170   6.009   5.465  1.7185  1.2783  1.3076
15474TIP3    H267838   0.236   6.095   5.359 -1.2116  0.2712 -1.4099
15475TIP3   OH267839   3.595   4.053   1.685  0.2060 -0.0651  0.8304
15475TIP3    H167840   3.666   4.008   1.730 -0.6251  0.1016  2.3168
15475TIP3    H267841   3.617   4.146   1.692 -0.2071 -0.0094  1.3562
15476TIP3   OH267842   5.277   4.852   2.229  0.0572 -0.4798  0.5748
15476TIP3    H167843   5.362   4.815   2.206  0.2982  0.1066  0.5197
15476TIP3    H267844   5.265   4.924   2.168 -0.1846 -0.1560  1.0042
15477TIP3   OH267845   1.654   5.222  16.514 -0.3485 -0.6097 -0.3922
15477TIP3    H167846   1.606   5.304  16.506  0.4217 -0.0800  0.3648
15477TIP3    H267847   1.700   5.213  16.431 -0.4829 -0.3170 -0.4984
15478TIP3   OH267848   5.535   5.710  16.958 -0.0307  0.0126 -0.2950
15478TIP3    H167849   5.505   5.781  16.901 -2.8655  0.4485  1.6566
15478TIP3    H267850   5.560   5.640  16.898 -2.7539  0.5304 -2.1309
15479TIP3   OH267851   0.920   2.565  12.108 -0.4653  0.3062  0.0364
15479TIP3    H167852   0.833   2.603  12.118  0.0586  1.1520  1.6193
15479TIP3    H267853   0.976   2.639  12.086 -0.1233 -0.2297 -0.9418
15480TIP3   OH267854   1.387   6.151  16.735 -0.4731  0.2628 -0.2559
15480TIP3    H167855   1.329   6.102  16.676  0.6704 -1.6912  0.2052
15480TIP3    H267856   1.453   6.088  16.762 -0.8676  1.1574  3.0355
15481TIP3   OH267857   1.791   5.263  16.255  0.1741 -0.2360  0.4338
15481TIP3    H167858   1.730   5.216  16.197 -0.6199 -0.6643  1.5935
15481TIP3    H267859   1.751   5.349  16.266 -1.2451 -1.1265  2.6955
15482TIP3   OH267860   3.117   2.831  14.852  0.1416  0.2866 -0.1904
15482TIP3    H167861   3.165   2.896  14.801  0.0897  0.1533 -0.4064
15482TIP3    H267862   3.185   2.772  14.886  0.2566  0.8536  0.5759
15483TIP3   OH267863   3.402   2.391   6.517 -0.1220  0.4938 -0.2781
15483TIP3    H167864   3.319   2.436   6.533 -1.4735 -1.9133 -0.2628
15483TIP3    H267865   3.410   2.389   6.422 -0.3264  0.2968 -0.2913
15484TIP3   OH267866   2.607   0.217  15.161  0.7533 -0.4507 -0.1656
15484TIP3    H167867   2.641   0.247  15.077 -1.5788  2.1013 -0.2852
15484TIP3    H267868   2.521   0.181  15.139 -0.2308  1.0155  1.2047
15485TIP3   OH267869   2.144   1.499  12.411 -0.6427  0.0009 -0.2617
15485TIP3    H167870   2.200   1.422  12.400  0.4531  0.2460  3.0011
15485TIP3    H267871   2.068   1.467  12.459 -0.4853  0.8337  0.5457
15486TIP3   OH267872   4.674   0.308   5.450  0.0994 -0.7151 -0.2558
15486TIP3    H167873   4.668   0.401   5.475 -0.8510 -0.8329 -0.0063
15486TIP3    H267874   4.696   0.310   5.356  0.2223 -0.2349 -0.2175
15487TIP3   OH267875   2.466   4.260   1.220  0.2583 -0.1081  0.1151
15487TIP3    H167876   2.419   4.343   1.228  1.0871  0.2594  1.2644
15487TIP3    H267877   2.396   4.195   1.207 -0.2380  1.0410 -3.2493
15488TIP3   OH267878   4.474   5.775  16.328 -0.3048 -0.0241 -0.1797
15488TIP3    H167879   4.490   5.863  16.361 -1.4549  0.8068 -1.7550
15488TIP3    H267880   4.558   5.747  16.292  0.1473  0.3023  0.6115
15489TIP3   OH267881   0.078   1.210   5.528  0.8281  0.7982  0.3089
15489TIP3    H167882   0.083   1.262   5.609 -0.3305 -1.2085  1.7222
15489TIP3    H267883   0.131   1.132   5.547  0.3368  0.1949 -0.7967
15490TIP3   OH267884   0.216   2.396   1.888 -0.1346  0.0841 -0.7257
15490TIP3    H167885   0.300   2.439   1.875 -0.7867  1.9964  1.0707
15490TIP3    H267886   0.184   2.429   1.972 -2.9279 -0.1446 -1.6225
15491TIP3   OH267887   4.590   2.319  14.742 -0.4768  0.0783  0.2956
15491TIP3    H167888   4.628   2.280  14.664 -1.5856  0.9572 -0.7000
15491TIP3    H267889   4.614   2.260  14.813 -1.9483 -2.2770 -1.1392
15492TIP3   OH267890   1.344   5.922   4.552 -0.2111 -0.4818  0.0962
15492TIP3    H167891   1.437   5.940   4.535 -0.4365 -0.3157 -1.0312
15492TIP3    H267892   1.344   5.856   4.621  0.7196  0.7430  1.2778
15493TIP3   OH267893   4.540   0.880   1.961  0.0038 -0.1582  0.2903
15493TIP3    H167894   4.526   0.965   1.918  1.2003 -0.2190 -0.2312
15493TIP3    H267895   4.588   0.901   2.041  0.4206 -0.3546  0.0931
15494TIP3   OH267896   1.700   4.479   1.085  0.3908 -0.2995  0.0390
15494TIP3    H167897   1.672   4.444   1.169 -2.8050 -0.3221 -0.9918
15494TIP3    H267898   1.765   4.416   1.054  0.2392 -1.2605  1.6182
15495TIP3   OH267899   4.417   4.327   1.631  0.2716  0.5264 -0.5445
15495TIP3    H167900   4.458   4.240   1.628 -0.3915  0.2147 -0.8743
15495TIP3    H267901   4.481   4.385   1.590  0.1406 -0.0562 -1.6047
15496TIP3   OH267902   0.211   4.777   0.200 -0.2357 -0.0084 -0.2439
15496TIP3    H167903   0.228   4.736   0.114 -1.7734  1.0624 -1.0725
15496TIP3    H267904   0.238   4.868   0.189  0.3231 -0.0619  0.6681
15497TIP3   OH267905   4.371   3.878   0.719  0.0112 -0.0944  0.0216
15497TIP3    H167906   4.338   3.795   0.685  0.2374 -0.2278  0.1271
15497TIP3    H267907   4.299   3.913   0.771  0.2524 -0.6738  0.7464
15498TIP3   OH267908   5.618   5.546   2.508  0.1539  0.4974 -0.5504
15498TIP3    H167909   5.677   5.579   2.440  1.7808 -1.4447 -0.1282
15498TIP3    H267910   5.608   5.619   2.568  0.9332  1.3324 -1.4182
15499TIP3   OH267911   5.509   5.524  16.403 -0.1187 -0.1052  0.3712
15499TIP3    H167912   5.440   5.458  16.404 -0.3164  0.0959 -0.0835
15499TIP3    H267913   5.556   5.510  16.321 -1.6199  1.8119 -0.8536
15500TIP3   OH267914   6.112   1.059  11.758  0.2646  0.1642  0.2746
15500TIP3    H167915   6.090   1.115  11.833  1.0367  0.1783  0.4936
15500TIP3    H267916   6.083   0.972  11.784 -3.0071  0.8184 -0.9639
15501TIP3   OH267917   2.701   4.328   0.651 -0.6542 -0.3443 -0.0528
15501TIP3    H167918   2.738   4.245   0.620 -0.6410 -0.4778  0.3199
15501TIP3    H267919   2.749   4.348   0.731 -0.5035  0.1421 -0.2635
15502TIP3   OH267920   2.395   5.298   3.973  1.1394  0.8610 -0.2351
15502TIP3    H167921   2.482   5.308   4.012  0.5682  0.3198  1.2215
15502TIP3    H267922   2.335   5.293   4.048 -0.1240  0.9730 -1.2091
15503TIP3   OH267923   0.068   1.708   6.208  0.0800  0.0563  0.8058
15503TIP3    H167924   0.017   1.724   6.288  0.3597  1.1943  0.7605
15503TIP3    H267925   0.159   1.721   6.235  0.2618 -0.7605  0.5900
15504TIP3   OH267926   2.633   4.198  15.635  0.5776 -0.0802 -0.4934
15504TIP3    H167927   2.538   4.192  15.635  0.5573  0.2293 -0.3486
15504TIP3    H267928   2.663   4.108  15.622  0.2589 -0.0264 -1.6168
15505TIP3   OH267929   3.143   6.129   3.831 -0.3997 -0.3059 -0.0999
15505TIP3    H167930   3.182   6.185   3.898 -2.3580  0.4441  0.4462
15505TIP3    H267931   3.095   6.063   3.880  0.5864 -1.5196 -0.7541
15506TIP3   OH267932   2.852   2.693   2.543 -0.1132 -0.5295 -0.2859
15506TIP3    H167933   2.798   2.625   2.585 -0.9336 -0.3569 -1.0484
15506TIP3    H267934   2.897   2.736   2.616 -1.2065 -0.5018  0.3887
15507TIP3   OH267935   6.027   2.896   5.321  0.3761 -0.0837 -0.1329
15507TIP3    H167936   5.980   2.946   5.255  2.0568  1.9401  0.1439
15507TIP3    H267937   6.020   2.805   5.293 -1.3909  0.4650 -1.5095
15508TIP3   OH267938   4.473   2.549   5.163 -0.2774 -0.5348  0.1017
15508TIP3    H167939   4.385   2.562   5.129 -0.7663 -1.3638  1.0221
15508TIP3    H267940   4.514   2.635   5.158 -0.3976 -0.6026 -2.3776
15509TIP3   OH267941   4.906   5.238  11.329 -0.2998 -0.0098 -0.5302
15509TIP3    H167942   4.918   5.189  11.410 -3.9187 -1.9120 -1.0440
15509TIP3    H267943   4.851   5.313  11.354  0.8191  0.8869 -0.7371
15510TIP3   OH267944   0.066   6.488  13.801  0.1539  0.1906 -0.2125
15510TIP3    H167945   0.134   6.532  13.852 -1.2851  1.0099  1.0157
15510TIP3    H267946   0.015   6.559  13.762 -1.9364 -0.3182  1.4605
15511TIP3   OH267947   0.363   2.366   2.655  0.0491 -0.0504  0.4741
15511TIP3    H167948   0.386   2.444   2.604  0.1541  0.3063  1.0611
15511TIP3    H267949   0.439   2.351   2.710 -0.3879  0.0386  1.1015
15512TIP3   OH267950   1.382   3.683   2.557  0.6519 -0.3742 -0.3901
15512TIP3    H167951   1.473   3.655   2.548  0.9042  0.5097 -0.6557
15512TIP3    H267952   1.388   3.775   2.585 -0.1127 -1.2418  2.8561
15513TIP3   OH267953   6.548   2.491  12.094  0.1463 -0.9022 -0.0620
15513TIP3    H167954   6.501   2.476  12.176  1.0616 -0.5838  0.5278
15513TIP3    H267955   6.480   2.488  12.026 -0.6454 -0.9348  0.7281
15514TIP3   OH267956   0.273   1.118  12.155 -0.4839  0.0399 -0.0475
15514TIP3    H167957   0.365   1.140  12.139 -0.5920 -0.7516 -1.8896
15514TIP3    H267958   0.277   1.045  12.218  0.0586  1.2697  1.3727
15515TIP3   OH267959   2.128   5.579  13.352 -0.0628 -0.0508 -0.1100
15515TIP3    H167960   2.036   5.563  13.332 -0.0997  0.9740 -0.8284
15515TIP3    H267961   2.131   5.590  13.447 -0.5452 -0.8996  0.0098
15516TIP3   OH267962   5.841   0.127  15.703  0.8967  0.0138 -0.2111
15516TIP3    H167963   5.878   0.215  15.694  2.4516 -0.7902 -1.8820
15516TIP3    H267964   5.760   0.130  15.652 -0.9535  1.4985  2.6874
15517TIP3   OH267965   5.418   1.517  12.738 -0.0934 -0.8158 -0.6370
15517TIP3    H167966   5.362   1.555  12.806  2.0136 -1.2172  1.3895
15517TIP3    H267967   5.431   1.588  12.676 -3.1525 -0.8328 -1.4091
15518TIP3   OH267968   6.484   0.915   0.781  0.1241 -0.4079 -0.0173
15518TIP3    H167969   6.454   0.998   0.819  0.3248 -0.3371 -0.0111
15518TIP3    H267970   6.416   0.852   0.803  0.5356 -0.5059  0.9856
15519TIP3   OH267971   5.047   5.013   1.412 -0.3609  0.6120  0.1214
15519TIP3    H167972   4.984   5.072   1.371 -1.9308 -1.6086 -0.7468
15519TIP3    H267973   4.994   4.947   1.456  1.3523 -0.7281  0.2605
15520TIP3   OH267974   1.620   3.087  16.820  0.3910  0.3099  0.5085
15520TIP3    H167975   1.612   2.996  16.848 -0.3675  0.1786 -0.0991
15520TIP3    H267976   1.640   3.135  16.900  1.9725 -0.5349  0.6416
15521TIP3   OH267977   2.262   2.707  11.516  0.4746 -0.0030  0.1715
15521TIP3    H167978   2.282   2.794  11.481 -0.1021 -0.1905 -0.6439
15521TIP3    H267979   2.249   2.653  11.439 -3.1894  0.1264  0.6188
15522TIP3   OH267980   6.571   5.734  14.488 -0.3744  0.0086 -0.6755
15522TIP3    H167981   6.527   5.660  14.445 -3.7657  1.4982  0.0302
15522TIP3    H267982   6.593   5.701  14.576  0.6721 -1.0039 -1.3023
15523TIP3   OH267983   3.113   2.143   1.337 -0.1550 -0.2017  0.0270
15523TIP3    H167984   3.061   2.126   1.258  1.0930  0.0845 -0.8597
15523TIP3    H267985   3.190   2.088   1.328 -0.1375 -0.3654  1.1835
15524TIP3   OH267986   4.234   5.704  10.279 -0.2231 -0.5418 -0.0192
15524TIP3    H167987   4.185   5.728  10.358  1.2374 -0.5257  0.9068
15524TIP3    H267988   4.312   5.759  10.283  0.1157 -0.9432 -1.2005
15525TIP3   OH267989   5.826   4.169   2.443  0.1181 -0.3022  0.2732
15525TIP3    H167990   5.895   4.108   2.416  0.5984  0.3739 -0.0258
15525TIP3    H267991   5.749   4.140   2.396  0.8149  0.5353 -1.4151
15526TIP3   OH267992   0.879   1.941   3.425 -0.0279  0.6350  0.1916
15526TIP3    H167993   0.973   1.953   3.436 -0.1116  0.4060  1.2354
15526TIP3    H267994   0.842   1.970   3.508 -0.7732 -0.5720  0.2849
15527TIP3   OH267995   4.830   6.663   2.244 -0.5544 -0.3776 -0.0890
15527TIP3    H167996   4.740   6.679   2.273 -0.3137  0.2648  0.3325
15527TIP3    H267997   4.859   6.748   2.211 -0.8155 -1.0859 -2.2053
15528TIP3   OH267998   2.421   4.142  15.163  0.3959  0.6377 -0.1467
15528TIP3    H167999   2.417   4.117  15.255 -1.4383  0.1129 -0.3657
15528TIP3    H268000   2.333   4.173  15.142  1.0970  1.8043 -1.4315
15529TIP3   OH268001   3.840   5.124   2.041 -0.0227  0.4965 -0.3870
15529TIP3    H168002   3.821   5.096   2.130 -1.2630 -2.6095 -1.5743
15529TIP3    H268003   3.917   5.074   2.016 -1.2993 -0.7214 -1.9797
15530TIP3   OH268004   4.739   4.807   0.450 -0.1710 -0.2864  0.7574
15530TIP3    H168005   4.656   4.770   0.481  0.3797 -1.4133  0.9493
15530TIP3    H268006   4.796   4.803   0.527  0.7094 -1.5552  0.0660
15531TIP3   OH268007   1.111   5.745  14.072 -0.1931 -0.1957 -0.1698
15531TIP3    H168008   1.199   5.708  14.080 -0.5607 -1.2124 -0.7641
15531TIP3    H268009   1.064   5.710  14.148 -0.5913 -1.1257 -0.8275
15532TIP3   OH268010   5.313   5.653   0.423  0.3361  0.2214  0.4468
15532TIP3    H168011   5.396   5.609   0.402  0.1676  0.1774 -0.1340
15532TIP3    H268012   5.336   5.746   0.426  0.3557  0.2371 -0.0085
15533TIP3   OH268013   0.380   5.004   0.822 -0.0985  0.0410 -0.3241
15533TIP3    H168014   0.305   5.054   0.855 -0.3607 -0.9696  0.6500
15533TIP3    H268015   0.346   4.916   0.810  0.1763  0.2245 -2.7147
15534TIP3   OH268016   0.680   3.618  12.119  0.0744 -0.3396 -0.7086
15534TIP3    H168017   0.639   3.583  12.197  1.8516 -0.5237  0.1706
15534TIP3    H268018   0.613   3.673  12.079 -0.5706  0.4590  1.4208
15535TIP3   OH268019   3.229   2.538   2.530  0.1199 -0.2757  0.2151
15535TIP3    H168020   3.165   2.508   2.594  0.8441 -1.8461  0.2023
15535TIP3    H268021   3.300   2.575   2.582 -0.0986  0.0887  0.2602
15536TIP3   OH268022   4.322   4.635  12.977 -0.4713 -0.2998  0.1350
15536TIP3    H168023   4.362   4.675  12.900 -1.3819  0.3968  0.0066
15536TIP3    H268024   4.295   4.710  13.031  2.1704 -0.7783  2.2008
15537TIP3   OH268025   6.016   4.291   3.986  0.5961 -0.5823 -0.0237
15537TIP3    H168026   6.046   4.338   4.063  3.1857 -1.7324 -0.2848
15537TIP3    H268027   5.978   4.210   4.020 -0.7206  0.1049  0.1879
15538TIP3   OH268028   3.694   2.197   4.531  0.4604 -0.5447 -0.3231
15538TIP3    H168029   3.616   2.179   4.479  0.0806 -2.3560  0.8366
15538TIP3    H268030   3.671   2.170   4.620  2.6538 -1.8459 -0.1128
15539TIP3   OH268031   3.212   4.285  16.533 -0.0837 -0.3670  0.4837
15539TIP3    H168032   3.210   4.203  16.483 -2.0622  0.1782 -0.3900
15539TIP3    H268033   3.283   4.335  16.495 -1.8425  0.2225 -2.1482
15540TIP3   OH268034   0.244   2.427  16.538  0.5139  0.0256 -0.2104
15540TIP3    H168035   0.328   2.468  16.557 -0.0576  1.2060 -0.1941
15540TIP3    H268036   0.192   2.496  16.499 -0.5293 -0.6363 -0.0147
15541TIP3   OH268037   1.922   3.128  12.025 -0.2663 -0.1160  0.4396
15541TIP3    H168038   1.870   3.091  11.954 -0.7502 -0.2935  0.8843
15541TIP3    H268039   1.863   3.128  12.101 -0.3861  1.8296  0.3811
15542TIP3   OH268040   6.583   5.166   1.789  0.0450 -0.1710  0.2262
15542TIP3    H168041   6.579   5.088   1.844  0.7433 -0.0248  0.4948
15542TIP3    H268042   6.500   5.167   1.742 -1.0866  0.3635  2.1896
15543TIP3   OH268043   0.527   2.548   4.073 -0.1028 -0.1700 -0.5689
15543TIP3    H168044   0.617   2.581   4.074  0.7546 -2.4093 -0.4437
15543TIP3    H268045   0.511   2.521   4.163 -0.6797 -0.3215 -0.7197
15544TIP3   OH268046   5.864   6.476   2.308  0.2729 -0.0278 -0.2466
15544TIP3    H168047   5.902   6.558   2.341  0.5847 -0.3363  0.1585
15544TIP3    H268048   5.796   6.505   2.246 -1.7662  0.5646  2.2048
15545TIP3   OH268049   5.948   1.497   4.992  0.3531 -0.1798 -0.4058
15545TIP3    H168050   5.897   1.418   4.977  0.8707 -0.6496  0.3241
15545TIP3    H268051   5.884   1.561   5.024  0.1581 -0.6734  0.2014
15546TIP3   OH268052   5.276   3.992   1.802  0.1624  0.2034  0.1099
15546TIP3    H168053   5.310   3.909   1.767  1.0801  0.0344  1.3534
15546TIP3    H268054   5.350   4.052   1.799  0.3207  0.1292  1.9060
15547TIP3   OH268055   1.183   0.138  12.545 -0.2035  0.2431  0.3348
15547TIP3    H168056   1.133   0.220  12.541  0.9718  0.9197 -0.6587
15547TIP3    H268057   1.177   0.102  12.456 -1.7884 -1.4185  1.0728
15548TIP3   OH268058   4.943   5.277   0.429  0.5177 -0.4648  0.0479
15548TIP3    H168059   4.979   5.366   0.432  0.3563 -0.4514  1.6415
15548TIP3    H268060   5.013   5.225   0.389  0.9747  0.2027 -0.0307
15549TIP3   OH268061   0.763   3.639   2.249  0.3467 -0.1612  0.2364
15549TIP3    H168062   0.772   3.711   2.187 -5.5007 -0.1292 -0.8174
15549TIP3    H268063   0.715   3.571   2.201  0.2005 -2.2210  3.1375
15550TIP3   OH268064   5.180   0.104  13.096 -0.1681  0.0459 -0.3966
15550TIP3    H168065   5.112   0.039  13.077  1.2201 -1.7776  0.6811
15550TIP3    H268066   5.262   0.057  13.084  0.8717  1.5299  0.6537
15551TIP3   OH268067   1.177   2.823  12.365  0.0708 -0.2292  0.3467
15551TIP3    H168068   1.118   2.752  12.341 -0.5980  0.4309  0.0323
15551TIP3    H268069   1.242   2.782  12.422 -1.0144 -0.8446  1.1486
15552TIP3   OH268070   0.803   2.954   3.339 -0.0085  0.2277 -0.7963
15552TIP3    H168071   0.719   2.908   3.343 -0.4726  0.9976 -1.5753
15552TIP3    H268072   0.805   3.010   3.416  0.5703 -1.1000  0.1746
15553TIP3   OH268073   6.512   5.810   1.334 -0.1028 -0.1089  0.3857
15553TIP3    H168074   6.505   5.905   1.318 -0.0780  0.0251  1.1360
15553TIP3    H268075   6.593   5.785   1.290 -0.2549  0.1682 -0.0544
15554TIP3   OH268076   4.947   5.466  14.759  0.1940  0.5317  0.4769
15554TIP3    H168077   5.015   5.446  14.695 -0.7272 -0.3996 -0.2480
15554TIP3    H268078   4.929   5.559  14.746  1.7181  0.9184  1.0751
15555TIP3   OH268079   2.424   3.317   0.519  0.4409  0.4941 -0.5902
15555TIP3    H168080   2.459   3.407   0.518 -0.9065  1.0318 -0.1958
15555TIP3    H268081   2.371   3.311   0.439  0.1006  0.2175 -0.3420
15556TIP3   OH268082   4.497   2.611   2.873  0.2926  0.1020 -0.4767
15556TIP3    H168083   4.415   2.569   2.899  0.7602 -0.8712 -0.5492
15556TIP3    H268084   4.562   2.574   2.933  0.6730  0.9105 -0.3834
15557TIP3   OH268085   6.399   5.706  13.097 -0.3779 -0.9583 -0.3258
15557TIP3    H168086   6.396   5.755  13.016  0.4154 -2.1161 -1.0741
15557TIP3    H268087   6.308   5.696  13.124 -0.6691 -1.0155 -1.3435
15558TIP3   OH268088   1.771   2.647  12.866  0.0828 -0.5798 -0.1029
15558TIP3    H168089   1.847   2.595  12.890 -0.2555 -0.7312  0.6806
15558TIP3    H268090   1.801   2.738  12.874 -0.0085 -0.6301  0.8810
15559TIP3   OH268091   5.551   2.299  11.893  0.1567 -0.3610  0.4380
15559TIP3    H168092   5.592   2.251  11.821  1.8660 -0.6473  1.5853
15559TIP3    H268093   5.494   2.235  11.935 -2.6438  0.4099 -2.0225
15560TIP3   OH268094   5.415   2.968  13.317  0.0446  0.1709  0.2516
15560TIP3    H168095   5.394   2.900  13.254 -0.4674  1.1408 -0.6445
15560TIP3    H268096   5.409   2.925  13.402  2.9629 -1.7246 -0.4307
15561TIP3   OH268097   5.994   0.140   4.441 -0.6640  0.5089  0.1064
15561TIP3    H168098   6.027   0.053   4.418 -1.8729  0.2498 -0.7018
15561TIP3    H268099   6.072   0.190   4.462  0.0807 -0.6613  0.1680
15562TIP3   OH268100   2.178   3.405  12.738 -0.2283  0.2535  0.6411
15562TIP3    H168101   2.090   3.429  12.707 -0.0790  0.4136  0.3384
15562TIP3    H268102   2.221   3.489  12.756  1.2960  0.3820 -3.1593
15563TIP3   OH268103   5.719   3.826   2.628  0.5650 -0.3976 -0.4046
15563TIP3    H168104   5.631   3.790   2.616 -0.1290  0.5137  1.6278
15563TIP3    H268105   5.746   3.793   2.714  2.2540 -0.7203 -1.0378
15564TIP3   OH268106   0.874   1.993   0.133 -0.3718 -0.2578 -0.6429
15564TIP3    H168107   0.871   1.962   0.042  0.5463 -1.2692 -0.3343
15564TIP3    H268108   0.783   2.016   0.153 -0.3275  1.4824 -2.3248
15565TIP3   OH268109   6.435   3.959  14.228  0.8021 -0.0242 -0.1891
15565TIP3    H168110   6.369   3.974  14.161 -0.4637 -1.3784  0.7376
15565TIP3    H268111   6.397   3.998  14.307  1.2458 -0.5219  0.2697
15566TIP3   OH268112   2.377   0.621  13.071  0.5651  0.2399  0.0077
15566TIP3    H168113   2.424   0.592  12.993 -0.7182 -0.6286 -0.4556
15566TIP3    H268114   2.421   0.576  13.143 -0.3718 -1.6050 -0.5507
15567TIP3   OH268115   6.217   5.347  17.147 -0.5191  0.3379  0.1708
15567TIP3    H168116   6.281   5.414  17.170  1.4961 -1.9875  1.6099
15567TIP3    H268117   6.234   5.328  17.055  0.0858  0.5496  0.2372
15568TIP3   OH268118   0.917   2.181   0.794 -0.0184  0.1576  0.2660
15568TIP3    H168119   0.871   2.128   0.859 -0.4871 -1.4666 -1.3464
15568TIP3    H268120   0.964   2.118   0.741 -1.1586  1.2722 -2.1580
15569TIP3   OH268121   5.795   5.204  13.031  0.1684 -0.3854  0.9925
15569TIP3    H168122   5.888   5.216  13.049  0.0920 -0.2689  1.3184
15569TIP3    H268123   5.777   5.114  13.057  0.1395 -0.3319  1.1613
15570TIP3   OH268124   6.205   5.253  16.857  0.0742 -0.0439 -0.0555
15570TIP3    H168125   6.196   5.244  16.762  1.6307  1.7395 -0.4119
15570TIP3    H268126   6.243   5.170  16.886  2.0188  0.3460 -1.3755
15571TIP3   OH268127   2.244   2.594   3.620  0.2561 -0.1405  0.2111
15571TIP3    H168128   2.209   2.544   3.545 -0.1594 -0.4598  0.6150
15571TIP3    H268129   2.192   2.565   3.694  1.0096 -0.1881  0.7189
15572TIP3   OH268130   4.111   6.330   0.732 -0.3183 -0.3325  0.3474
15572TIP3    H168131   4.096   6.425   0.730  1.9954  0.0548 -0.0470
15572TIP3    H268132   4.196   6.318   0.691 -0.0888 -2.4892  1.3696
15573TIP3   OH268133   6.351   1.670  15.034  0.0232 -0.2751  0.7355
15573TIP3    H168134   6.291   1.699  15.103  0.8434  1.0019  0.9135
15573TIP3    H268135   6.426   1.728  15.041  0.2370 -0.3106 -1.0676
15574TIP3   OH268136   6.244   1.091   1.605  0.0753 -0.0338  0.1778
15574TIP3    H168137   6.187   1.018   1.630  0.4007 -0.6968 -0.9718
15574TIP3    H268138   6.330   1.066   1.639  1.0625 -2.0776 -3.4713
15575TIP3   OH268139   3.461   3.849  13.660 -0.2442  0.0427 -0.1461
15575TIP3    H168140   3.427   3.799  13.585 -1.6678  0.7844 -0.0099
15575TIP3    H268141   3.468   3.939  13.627 -1.3720  0.4707  0.7505
15576TIP3   OH268142   2.215   0.812  16.111  0.1601  0.0698 -0.4931
15576TIP3    H168143   2.241   0.767  16.191 -1.4806  1.2970  0.7767
15576TIP3    H268144   2.128   0.777  16.092  0.0675  0.6184 -1.0966
15577TIP3   OH268145   5.437   3.242  13.439 -0.3056  0.1140  0.7299
15577TIP3    H168146   5.449   3.149  13.420  1.0753  0.2632  0.8484
15577TIP3    H268147   5.427   3.283  13.353  1.9433  0.2413  0.5168
15578TIP3   OH268148   3.956   0.502  15.841 -0.2319  0.4204  0.3838
15578TIP3    H168149   4.027   0.459  15.793  0.5204 -0.4295  2.2232
15578TIP3    H268150   3.882   0.443  15.833 -0.9614  1.5681 -2.0170
15579TIP3   OH268151   3.895   6.137  14.743  0.2985 -0.5436  0.0407
15579TIP3    H168152   3.918   6.076  14.672  0.2067 -0.8515  0.2748
15579TIP3    H268153   3.837   6.086  14.800  2.0563 -0.9897  1.4829
15580TIP3   OH268154   5.250   1.866   6.046  0.2536 -1.1994 -0.1542
15580TIP3    H168155   5.163   1.895   6.071  1.2134  2.7722 -1.0471
15580TIP3    H268156   5.308   1.905   6.110  1.7059 -0.6276 -1.7707
15581TIP3   OH268157   0.845   6.134   2.356  0.3047 -0.1713 -0.8913
15581TIP3    H168158   0.855   6.221   2.395  1.3189  0.4406 -2.4732
15581TIP3    H268159   0.812   6.079   2.427 -1.5601  1.7917 -0.2277
15582TIP3   OH268160   1.656   6.038  16.411  0.1179  0.0429  0.0926
15582TIP3    H168161   1.564   6.062  16.400 -0.1553 -0.9983  0.1229
15582TIP3    H268162   1.703   6.100  16.355 -0.6997 -0.3140 -0.9963
15583TIP3   OH268163   3.489   1.946   2.220 -0.2885 -0.4470 -0.4943
15583TIP3    H168164   3.463   1.973   2.132 -2.4198 -0.0050  0.2521
15583TIP3    H268165   3.584   1.938   2.215 -0.2170  1.1820 -2.3839
15584TIP3   OH268166   3.186   3.791  12.776  0.4736  0.3713 -0.5448
15584TIP3    H168167   3.240   3.869  12.792 -0.5692  1.2159 -1.0139
15584TIP3    H268168   3.180   3.786  12.680 -1.1798  0.9525 -0.4956
15585TIP3   OH268169   0.153   5.708  15.084 -0.0684 -0.4727  0.4868
15585TIP3    H168170   0.113   5.660  15.156  0.8740  1.5389  2.4134
15585TIP3    H268171   0.186   5.789  15.124  1.7342  0.0540 -1.9176
15586TIP3   OH268172   6.752   6.774  14.204 -0.1771  0.0103 -0.1823
15586TIP3    H168173   6.834   6.811  14.236 -0.0641  0.8583 -1.4565
15586TIP3    H268174   6.687   6.803  14.267  0.5577 -1.1084  1.1427
15587TIP3   OH268175   0.067   4.764   3.864  0.1806  0.4210 -0.4201
15587TIP3    H168176   0.139   4.741   3.923 -0.9894  0.0610  0.8836
15587TIP3    H268177   0.088   4.854   3.835  1.3817  0.1493 -0.4373
15588TIP3   OH268178   6.512   1.812   6.247  0.0608  0.2917  0.5083
15588TIP3    H168179   6.416   1.815   6.244  0.1177  2.0835  0.0656
15588TIP3    H268180   6.533   1.841   6.336  0.1830 -0.8584  0.8647
15589TIP3   OH268181   0.702   1.177  16.547  0.1054 -0.2360 -0.0718
15589TIP3    H168182   0.630   1.180  16.484 -0.6379  2.0210  0.8097
15589TIP3    H268183   0.716   1.269  16.571 -0.1183 -1.0800  3.5712
15590TIP3   OH268184   1.648   1.124   2.871  0.2582  0.5312  0.1623
15590TIP3    H168185   1.695   1.192   2.920  1.4309 -0.7929  0.9229
15590TIP3    H268186   1.698   1.044   2.888 -1.2890 -0.5832 -0.4507
15591TIP3   OH268187   6.609   0.410  12.192  0.2639  0.5217 -0.7427
15591TIP3    H168188   6.574   0.499  12.188 -0.1421  0.3682 -0.6238
15591TIP3    H268189   6.695   0.417  12.153  0.8256  1.2627  0.5776
15592TIP3   OH268190   3.983   2.358  16.796  0.3784  0.4242  0.1011
15592TIP3    H168191   3.919   2.348  16.867 -1.3024  0.1543 -1.4138
15592TIP3    H268192   4.053   2.297  16.819 -0.5599 -0.3322  1.0645
15593TIP3   OH268193   6.222   4.586  12.508 -0.7317  0.0059  0.0168
15593TIP3    H168194   6.235   4.502  12.465 -0.5210  0.4469 -0.8092
15593TIP3    H268195   6.135   4.615  12.479 -0.9034 -0.0397  0.4844
15594TIP3   OH268196   6.615   2.538   6.410 -0.0170  0.3692 -0.1596
15594TIP3    H168197   6.567   2.537   6.494  0.0878  1.2259 -0.0873
15594TIP3    H268198   6.546   2.548   6.344  0.1708  3.5492  0.0506
15595TIP3   OH268199   2.074   4.105  11.967 -0.2095 -0.3693 -0.1000
15595TIP3    H168200   2.114   4.148  12.043 -2.6698  1.4488  0.2338
15595TIP3    H268201   2.141   4.046  11.934  1.4919  0.0819  2.4786
15596TIP3   OH268202   4.233   2.714   2.546 -0.5297 -0.0248  0.0618
15596TIP3    H168203   4.300   2.646   2.546  0.9605  1.4250  0.4369
15596TIP3    H268204   4.266   2.780   2.606 -1.5282  1.4475 -0.9835
15597TIP3   OH268205   2.903   0.966  17.087  0.5452 -0.1144  0.5730
15597TIP3    H168206   2.850   0.898  17.129 -0.8036  0.6254  0.1064
15597TIP3    H268207   2.941   1.015  17.160  0.4838 -0.5689  0.9148
15598TIP3   OH268208   1.820   6.240   0.183 -0.5049  0.2262  0.3366
15598TIP3    H168209   1.892   6.293   0.216 -0.0364 -0.7689  0.9205
15598TIP3    H268210   1.848   6.214   0.095  0.1189 -0.6583  0.7908
15599TIP3   OH268211   2.517   6.591  14.550  0.6586 -0.4203  0.1877
15599TIP3    H168212   2.547   6.500  14.559  0.3954 -0.7571 -2.1151
15599TIP3    H268213   2.421   6.584  14.548  0.6634 -0.1981 -0.9416
15600TIP3   OH268214   4.496   5.475   0.975 -0.5621  0.6921  0.1346
15600TIP3    H168215   4.524   5.459   1.065  2.8886 -1.2122 -1.1719
15600TIP3    H268216   4.552   5.546   0.944 -0.7530  0.3788 -0.9459
15601TIP3   OH268217   2.634   2.249   6.182 -0.0791  0.1239 -0.2926
15601TIP3    H168218   2.685   2.256   6.102  2.1424  0.8621  1.1366
15601TIP3    H268219   2.659   2.165   6.220 -0.1757  0.3339  0.2449
15602TIP3   OH268220   0.899   1.236   4.064 -0.5952 -0.1037 -0.5186
15602TIP3    H168221   0.900   1.246   4.160  3.2512 -1.3295 -0.3606
15602TIP3    H268222   0.853   1.153   4.050 -2.8935  1.0165  0.0978
15603TIP3   OH268223   2.368   6.543  12.339 -0.5650 -0.6731 -0.5110
15603TIP3    H168224   2.330   6.631  12.343  0.3094 -0.1924 -2.4130
15603TIP3    H268225   2.379   6.525  12.246  2.1595 -1.5582 -0.0726
15604TIP3   OH268226   5.917   4.439  15.240  0.1101  0.5674  0.6287
15604TIP3    H168227   5.822   4.450  15.235  0.1997  1.3489  0.5657
15604TIP3    H268228   5.951   4.528  15.238  0.7927  0.3384  1.8503
15605TIP3   OH268229   3.560   4.581  14.015  0.1337 -0.8864 -0.0960
15605TIP3    H168230   3.537   4.664  13.972 -1.1936 -0.2944  1.6806
15605TIP3    H268231   3.630   4.545  13.962 -0.2611  0.6891 -1.7272
15606TIP3   OH268232   1.262   3.866   5.994 -0.5266 -0.6311 -0.0443
15606TIP3    H168233   1.178   3.904   6.020 -0.3119 -0.3967  0.3076
15606TIP3    H268234   1.324   3.938   5.999 -0.2897 -0.8203 -0.2442
15607TIP3   OH268235   2.500   3.849   0.740 -0.3448 -0.1208  0.2612
15607TIP3    H168236   2.420   3.842   0.792 -1.3730  1.1124 -1.1158
15607TIP3    H268237   2.507   3.942   0.719 -0.3276 -0.6633 -2.3370
15608TIP3   OH268238   2.910   4.126  14.463 -0.0628  0.2566  0.7956
15608TIP3    H168239   2.860   4.136  14.383  0.4309  0.5499  0.5166
15608TIP3    H268240   2.957   4.043  14.453 -0.7258 -0.1632  1.1838
15609TIP3   OH268241   4.541   5.448   4.234 -0.1855 -0.0798 -0.5324
15609TIP3    H168242   4.479   5.496   4.179 -0.4899  1.1482  0.8668
15609TIP3    H268243   4.530   5.356   4.208 -2.1219  0.1957 -0.7618
15610TIP3   OH268244   2.397   0.002   2.411  0.2207  0.1326 -0.3650
15610TIP3    H168245   2.472  -0.004   2.469  0.2602  0.6418 -0.3661
15610TIP3    H268246   2.324   0.026   2.468  0.7457  3.1505 -0.9022
15611TIP3   OH268247   2.073   3.188   2.764  0.0324 -0.3847 -0.3404
15611TIP3    H168248   2.003   3.244   2.797 -1.5233 -1.7327 -1.2821
15611TIP3    H268249   2.154   3.234   2.787 -1.1308  0.8178  1.4272
15612TIP3   OH268250   0.742   5.404  13.652 -0.4351  0.2140  0.5130
15612TIP3    H168251   0.811   5.351  13.612  0.9837  1.9899  0.5501
15612TIP3    H268252   0.696   5.344  13.710 -0.1770 -1.4794 -0.9882
15613TIP3   OH268253   0.972   0.651   0.324 -0.4677 -0.1286 -0.6585
15613TIP3    H168254   0.901   0.631   0.263 -1.6218  0.7757  0.3686
15613TIP3    H268255   1.037   0.583   0.308 -1.2759 -0.5937 -2.0653
15614TIP3   OH268256   4.779   2.281  12.724  0.7410 -0.4297  0.5595
15614TIP3    H168257   4.787   2.363  12.772 -0.5935 -1.3314  2.3812
15614TIP3    H268258   4.700   2.292  12.670  1.6519  0.1963 -0.6499
15615TIP3   OH268259   1.224   1.471   5.559  0.2488  0.6834 -0.1250
15615TIP3    H168260   1.260   1.388   5.529  1.2040  0.8908  0.4457
15615TIP3    H268261   1.273   1.538   5.512  0.5796  0.9642  0.6122
15616TIP3   OH268262   3.246   5.447   1.485  0.5020  0.3240 -0.0761
15616TIP3    H168263   3.311   5.431   1.416  1.0887  3.2006 -0.2649
15616TIP3    H268264   3.183   5.375   1.476  0.5919  0.5947 -3.5725
15617TIP3   OH268265   1.104   4.799  11.245 -0.1969 -0.0156 -0.3144
15617TIP3    H168266   1.110   4.893  11.264  0.4202 -0.5489  2.4039
15617TIP3    H268267   1.188   4.777  11.205 -0.9175  0.8447 -2.3849
15618TIP3   OH268268   6.499   2.876  13.431  0.6782 -0.2031 -0.1859
15618TIP3    H168269   6.524   2.960  13.470  0.3014  0.3058 -1.0310
15618TIP3    H268270   6.432   2.841  13.490  0.3194  0.4289 -0.2105
15619TIP3   OH268271   2.953   0.859  15.958  0.3070 -0.0314  0.0894
15619TIP3    H168272   2.891   0.878  16.028 -1.6297 -2.1992 -0.9846
15619TIP3    H268273   2.910   0.888  15.878  0.7774 -1.2475 -0.6262
15620TIP3   OH268274   5.163   3.769   6.869  0.2116  0.2460  0.0463
15620TIP3    H168275   5.257   3.757   6.861  0.0548 -0.8603 -0.1975
15620TIP3    H268276   5.147   3.857   6.835  0.8764 -0.4149 -2.0312
15621TIP3   OH268277   5.677   3.818  13.320  0.4101 -0.0444  0.4070
15621TIP3    H168278   5.722   3.750  13.369  0.6828  0.7290  1.2302
15621TIP3    H268279   5.726   3.898  13.338 -1.7422  0.9622  1.9729
15622TIP3   OH268280   0.599   4.019   4.078 -0.1386  0.0784  0.0956
15622TIP3    H168281   0.528   3.955   4.071  0.9734 -1.3813  1.7215
15622TIP3    H268282   0.579   4.067   4.159 -0.6193  1.3967 -0.7810
15623TIP3   OH268283   5.905   3.220   5.601  0.1249  0.0599  0.4196
15623TIP3    H168284   5.847   3.271   5.544  1.7433  2.2002  0.6381
15623TIP3    H268285   5.852   3.204   5.679 -1.0905 -0.3562 -0.4584
15624TIP3   OH268286   3.857   0.242  14.982 -0.3198 -0.0618 -0.3112
15624TIP3    H168287   3.909   0.274  15.056  0.4001  0.6245 -1.0991
15624TIP3    H268288   3.864   0.312  14.917  0.7119 -1.5195 -1.8061
15625TIP3   OH268289   3.374   6.614   4.409 -0.5971 -0.2017 -0.5426
15625TIP3    H168290   3.388   6.687   4.469 -0.3781 -0.5842 -0.1218
15625TIP3    H268291   3.279   6.607   4.400 -0.6054  0.4238 -0.9428
15626TIP3   OH268292   0.158   0.218   0.508  0.1519 -0.1065  0.1137
15626TIP3    H168293   0.152   0.297   0.561  0.7254 -0.3181  0.4967
15626TIP3    H268294   0.137   0.247   0.419 -0.2111  0.3634  0.3532
15627TIP3   OH268295   5.022   4.684  15.166 -0.3409  0.1801  0.0430
15627TIP3    H168296   5.074   4.655  15.092 -1.6615 -2.3284  0.0381
15627TIP3    H268297   5.044   4.624  15.237 -0.2712  1.5659  1.2326
15628TIP3   OH268298   6.556   5.899   3.814  0.7766 -0.4893  0.6454
15628TIP3    H168299   6.475   5.877   3.768  0.6837  0.3809  0.3722
15628TIP3    H268300   6.625   5.862   3.760  0.5134 -2.2220  1.4718
15629TIP3   OH268301   1.881   0.678  12.822  0.1319 -0.1145 -0.0856
15629TIP3    H168302   1.899   0.716  12.908  2.8607 -1.9234  0.1872
15629TIP3    H268303   1.894   0.751  12.761 -0.6101  0.8608  0.8964
15630TIP3   OH268304   6.370   2.513  11.909 -0.4120 -0.2335  0.4060
15630TIP3    H168305   6.307   2.583  11.893 -1.5291 -0.7587  2.4321
15630TIP3    H268306   6.348   2.446  11.844  0.8981  1.4053 -1.7842
15631TIP3   OH268307   5.891   1.872   1.231 -0.0349 -0.6654 -0.3164
15631TIP3    H168308   5.851   1.797   1.186 -0.1417  0.1203 -1.5525
15631TIP3    H268309   5.980   1.843   1.250 -0.0056 -1.0438 -0.9792
15632TIP3   OH268310   5.669   3.703   5.808 -0.0209  0.3555  0.5526
15632TIP3    H168311   5.620   3.650   5.745 -1.0191  1.2043  0.6070
15632TIP3    H268312   5.607   3.769   5.837  1.2875  1.7003  0.3278
15633TIP3   OH268313   0.882   2.320  17.050 -0.5380  0.2891 -0.6215
15633TIP3    H168314   0.864   2.367  17.132  0.6314 -1.0716  0.4345
15633TIP3    H268315   0.871   2.387  16.982  0.0384  1.8405  0.7682
15634TIP3   OH268316   5.248   2.550   5.748  0.1100 -0.0541  0.4462
15634TIP3    H168317   5.267   2.513   5.834  1.6806  0.3717  0.3012
15634TIP3    H268318   5.318   2.517   5.691 -1.3412 -0.9445 -0.8415
15635TIP3   OH268319   0.928   2.776   5.606 -0.2022 -0.1760  0.0596
15635TIP3    H168320   0.918   2.720   5.682  1.6542 -0.1251  0.3799
15635TIP3    H268321   1.018   2.808   5.612 -0.7599  1.6687 -0.9103
15636TIP3   OH268322   1.642   6.227  11.634 -0.2211  0.4787  0.3820
15636TIP3    H168323   1.599   6.164  11.576  0.1331 -0.0359  0.6777
15636TIP3    H268324   1.681   6.173  11.703 -0.0436  1.0350  0.7141
15637TIP3   OH268325   4.862   0.120  14.929  0.2479 -0.5953  0.2609
15637TIP3    H168326   4.799   0.048  14.934  2.4958 -2.7750 -1.2499
15637TIP3    H268327   4.812   0.193  14.893 -2.3063 -1.0810  2.6564
15638TIP3   OH268328   5.407   5.780   5.169 -0.7228 -0.3899  0.1344
15638TIP3    H168329   5.320   5.812   5.193 -0.9339  0.0842 -1.2049
15638TIP3    H268330   5.412   5.794   5.074  1.1017  0.3013  0.3081
15639TIP3   OH268331   4.201   5.290  15.554  0.0482  0.2295 -0.3824
15639TIP3    H168332   4.241   5.376  15.546 -0.9219  0.8066  0.8299
15639TIP3    H268333   4.261   5.241  15.610  0.0315  0.4927 -0.1298
15640TIP3   OH268334   2.067   6.568  11.830  0.4438  0.1518  0.3952
15640TIP3    H168335   2.040   6.654  11.863  0.0333  0.5479 -0.9313
15640TIP3    H268336   2.161   6.576  11.815  0.2733  0.6216 -0.4512
15641TIP3   OH268337   6.350   1.044  12.570 -0.3845  0.4389  0.0557
15641TIP3    H168338   6.300   1.118  12.535 -1.0916 -0.2745 -0.4995
15641TIP3    H268339   6.379   0.997  12.492 -1.2599 -0.7165  0.4133
15642TIP3   OH268340   4.950   3.327  15.869 -0.2522  0.3230  0.6878
15642TIP3    H168341   4.951   3.242  15.825  1.6715 -0.3402  1.9279
15642TIP3    H268342   4.888   3.315  15.942  1.6056 -0.7332  2.1370
15643TIP3   OH268343   0.748   4.992  15.339  0.0431 -0.0234 -0.1491
15643TIP3    H168344   0.825   4.951  15.377  1.7001  1.7162 -1.5341
15643TIP3    H268345   0.771   5.085  15.332 -1.5082  0.2472 -2.1792
15644TIP3   OH268346   6.046   3.315   2.635 -0.4105 -0.3543  0.3974
15644TIP3    H168347   6.105   3.257   2.587 -1.1049 -0.6299 -0.1351
15644TIP3    H268348   6.097   3.393   2.653  0.2627 -0.7841  0.3569
15645TIP3   OH268349   6.453   0.811  15.798 -0.6614  0.4954 -0.1257
15645TIP3    H168350   6.466   0.779  15.887 -0.4958  0.8676 -0.0114
15645TIP3    H268351   6.541   0.835  15.769 -0.4822 -1.1355 -0.9817
15646TIP3   OH268352   3.381   6.734   5.827  0.4158 -0.2501  0.0594
15646TIP3    H168353   3.321   6.734   5.753  1.2741 -1.3039 -0.6519
15646TIP3    H268354   3.325   6.752   5.903 -0.7448 -0.8773 -0.6322
15647TIP3   OH268355   2.584   4.053   5.098  0.2821  0.3810 -0.7850
15647TIP3    H168356   2.596   4.136   5.143 -0.6430  0.2229 -0.2493
15647TIP3    H268357   2.657   3.998   5.129 -0.2699  0.3199  0.4053
15648TIP3   OH268358   5.099   5.780   4.517  0.2854  0.0298 -0.0271
15648TIP3    H168359   5.010   5.792   4.551 -0.1062 -2.0468 -0.2619
15648TIP3    H268360   5.090   5.782   4.422  0.7474  1.5040 -0.0475
15649TIP3   OH268361   4.473   3.365  10.792  0.4814 -0.4548  0.2016
15649TIP3    H168362   4.483   3.270  10.786  0.5417 -0.4750  0.6232
15649TIP3    H268363   4.467   3.394  10.701 -0.5820 -0.9726  0.0889
15650TIP3   OH268364   5.860   6.103  12.316 -0.6363  0.0631  0.0630
15650TIP3    H168365   5.832   6.192  12.293 -0.7107  0.3919  1.3571
15650TIP3    H268366   5.833   6.093  12.407  2.4262 -0.0037  1.0111
15651TIP3   OH268367   3.795   2.485   5.520 -0.9274  0.4375  0.3191
15651TIP3    H168368   3.740   2.408   5.532 -0.7428  0.0334 -1.3058
15651TIP3    H268369   3.773   2.542   5.594  0.6444 -2.1219  2.8679
15652TIP3   OH268370   4.233   5.545  13.050 -0.3290  0.1016 -0.1142
15652TIP3    H168371   4.299   5.495  13.097 -0.8037  0.2639  0.7347
15652TIP3    H268372   4.149   5.514  13.086 -0.6539  0.9673 -0.1055
15653TIP3   OH268373   3.193   6.491   0.402  0.1508 -0.1331 -0.3295
15653TIP3    H168374   3.196   6.413   0.456  0.1355 -1.0076 -1.5658
15653TIP3    H268375   3.100   6.509   0.390  0.1291 -1.0011 -1.5473
15654TIP3   OH268376   0.177   2.890  15.520  0.0280 -0.5613  0.2307
15654TIP3    H168377   0.249   2.881  15.458 -0.1040 -4.1571  0.5186
15654TIP3    H268378   0.106   2.838  15.483 -0.9528 -0.5997  2.0794
15655TIP3   OH268379   1.072   2.011  13.235  0.1692  0.6438 -0.1750
15655TIP3    H168380   1.047   1.953  13.307  2.8226 -2.2723 -1.4471
15655TIP3    H268381   1.138   2.069  13.274 -0.1498  0.6811  0.3218
15656TIP3   OH268382   6.458   0.479   4.194 -0.1276 -0.0852 -0.4342
15656TIP3    H168383   6.482   0.492   4.102 -2.3096  2.9528 -0.6501
15656TIP3    H268384   6.496   0.555   4.239 -1.5698 -0.0221  0.6920
15657TIP3   OH268385   5.253   4.668  12.448 -0.3534  0.2291 -0.7624
15657TIP3    H168386   5.348   4.677  12.445 -0.4782  2.3847  0.6037
15657TIP3    H268387   5.228   4.697  12.536 -2.2890 -0.1745 -1.1438
15658TIP3   OH268388   0.466   3.177  16.090  0.1209  0.0011  0.2259
15658TIP3    H168389   0.496   3.128  16.167  1.1979 -1.0986 -0.8554
15658TIP3    H268390   0.407   3.116  16.045  0.7852  0.0193 -0.6748
15659TIP3   OH268391   5.311   0.178   3.011  0.7183 -0.1098 -0.0065
15659TIP3    H168392   5.372   0.244   2.980 -1.1691  1.0829 -1.2990
15659TIP3    H268393   5.323   0.104   2.951  0.4892  0.3509 -0.6241
15660TIP3   OH268394   0.689   0.833   0.686 -0.4126 -0.0884 -0.7054
15660TIP3    H168395   0.711   0.744   0.658  0.7277 -0.2979  0.8189
15660TIP3    H268396   0.773   0.873   0.708 -1.1257  0.6028  0.8249
15661TIP3   OH268397   1.181   0.226  13.556  0.0533  0.5278 -0.2947
15661TIP3    H168398   1.097   0.238  13.510 -0.7118 -0.7034  0.7484
15661TIP3    H268399   1.225   0.158  13.505  0.7230  1.6376 -1.2294
15662TIP3   OH268400   2.137   4.325  10.829  0.1625 -0.5082  0.2013
15662TIP3    H168401   2.182   4.248  10.794 -0.6204 -0.8955  0.0387
15662TIP3    H268402   2.193   4.355  10.900  0.8565 -0.7780 -0.2229
15663TIP3   OH268403   4.431   3.000   4.390 -0.3607 -0.1420 -0.2798
15663TIP3    H168404   4.384   3.037   4.465 -2.0086 -1.0548 -0.8401
15663TIP3    H268405   4.467   3.076   4.345  0.0107  0.4689  1.0189
15664TIP3   OH268406   1.619   1.541  11.184  0.0983 -0.1993 -0.0567
15664TIP3    H168407   1.652   1.627  11.157 -0.5178 -0.3569 -1.3663
15664TIP3    H268408   1.655   1.480  11.118 -0.9030 -0.6899 -0.1586
15665TIP3   OH268409   6.393   1.256   5.750 -0.1521  0.1988  0.0192
15665TIP3    H168410   6.461   1.299   5.698 -0.9174  0.6216 -0.6444
15665TIP3    H268411   6.409   1.162   5.738 -1.1570  0.2821 -2.0984
15666TIP3   OH268412   0.916   5.816   0.459 -0.2606 -0.1305 -0.3600
15666TIP3    H168413   0.827   5.784   0.446  0.4057 -3.1580  1.9977
15666TIP3    H268414   0.969   5.764   0.399  0.2447 -0.1633  0.1113
15667TIP3   OH268415   3.729   2.695   3.071  0.0859 -0.3943  0.3874
15667TIP3    H168416   3.775   2.761   3.122  1.0718 -1.0932  0.4111
15667TIP3    H268417   3.792   2.624   3.059 -0.3719 -0.5680 -1.1616
15668TIP3   OH268418   3.586   2.177   2.773  0.2766  0.3412 -0.2525
15668TIP3    H168419   3.498   2.180   2.735 -0.1071 -0.7069  0.5422
15668TIP3    H268420   3.633   2.246   2.727 -0.9879  0.9874 -0.6112
15669TIP3   OH268421   4.773   4.779  11.634 -0.2250  0.1339 -0.2307
15669TIP3    H168422   4.768   4.857  11.690  0.0499 -0.2663  0.3663
15669TIP3    H268423   4.707   4.793  11.566  0.9957  1.6783 -1.1308
15670TIP3   OH268424   2.944   2.356   5.821  0.2096 -0.4812 -0.3941
15670TIP3    H168425   3.024   2.395   5.788  0.4226 -1.3129 -0.8885
15670TIP3    H268426   2.963   2.334   5.912 -0.1339  1.1440  0.0861
15671TIP3   OH268427   3.932   4.151   1.966  0.0782 -0.3746 -0.7500
15671TIP3    H168428   3.888   4.213   2.024  0.5122 -0.0886 -0.7209
15671TIP3    H268429   4.004   4.201   1.928  0.8819 -1.0718 -0.1590
15672TIP3   OH268430   1.668   2.912  16.595 -0.1883  0.6975 -0.4687
15672TIP3    H168431   1.666   3.005  16.573  0.0878  0.7019 -0.4724
15672TIP3    H268432   1.662   2.909  16.690 -0.0740  0.7241 -0.4607
15673TIP3   OH268433   5.954   6.628   3.496  0.4733  0.0273  0.2112
15673TIP3    H168434   5.956   6.724   3.503  1.7145 -0.0847  1.7611
15673TIP3    H268435   6.043   6.605   3.469 -0.0737 -0.6481 -1.0671
15674TIP3   OH268436   3.381   5.366   4.366  0.0145 -0.6191 -0.3499
15674TIP3    H168437   3.379   5.355   4.271 -1.9191  2.3330 -0.7250
15674TIP3    H268438   3.469   5.396   4.385  0.5371 -1.6233 -1.1474
15675TIP3   OH268439   1.643   5.452  12.868 -0.5457  0.1623  0.0681
15675TIP3    H168440   1.645   5.358  12.885 -3.4428 -0.3590 -1.9983
15675TIP3    H268441   1.570   5.485  12.921 -2.5696  0.3598 -2.6915
15676TIP3   OH268442   3.998   1.297  14.861  0.0312 -0.5807 -0.2166
15676TIP3    H168443   3.981   1.331  14.948  1.0405  0.0814 -0.2735
15676TIP3    H268444   3.947   1.215  14.857 -0.4651 -0.3292  0.7757
15677TIP3   OH268445   1.193   2.573   5.733 -0.5801 -0.1226  0.0142
15677TIP3    H168446   1.111   2.600   5.774  0.4054  0.7906  1.4598
15677TIP3    H268447   1.207   2.484   5.764 -1.1710 -0.3809 -0.4635
15678TIP3   OH268448   3.518   5.763   4.546  0.3156  0.7840  0.4276
15678TIP3    H168449   3.514   5.683   4.492  0.3492  0.2839  1.1648
15678TIP3    H268450   3.442   5.814   4.518  0.0498  0.3023  0.2625
15679TIP3   OH268451   6.288   0.388  14.983  0.2270 -0.4161  0.0428
15679TIP3    H168452   6.330   0.306  14.958 -1.9080 -2.3656  2.5778
15679TIP3    H268453   6.334   0.455  14.933  2.6487 -3.0468 -1.3694
15680TIP3   OH268454   5.896   2.356  15.152 -0.3058 -0.1474  0.2270
15680TIP3    H168455   5.945   2.368  15.071  0.1637 -0.7342  0.4262
15680TIP3    H268456   5.897   2.262  15.168 -3.2042 -0.4162 -0.8335
15681TIP3   OH268457   4.957   2.270  13.165 -0.8591 -0.5078  0.1241
15681TIP3    H168458   5.003   2.298  13.086 -0.2153  0.8932  0.9597
15681TIP3    H268459   4.945   2.350  13.215 -2.7504 -1.1263  0.6978
15682TIP3   OH268460   0.302   6.662  17.217 -0.1857  0.0961  0.2933
15682TIP3    H168461   0.251   6.742  17.234  0.6950  0.7772 -0.2445
15682TIP3    H268462   0.353   6.682  17.139  3.1921  0.5493  2.5146
15683TIP3   OH268463   6.028   5.921   0.010 -0.1742  0.1232 -1.1196
15683TIP3    H168464   5.983   5.954   0.088 -1.7978 -0.4161 -1.8207
15683TIP3    H268465   6.103   5.873   0.045 -0.1669  0.9663  0.0571
15684TIP3   OH268466   2.248   0.507   5.792 -0.3340 -0.0463  0.4085
15684TIP3    H168467   2.229   0.415   5.808  1.4816 -0.2775  1.3306
15684TIP3    H268468   2.162   0.548   5.786 -1.1539 -1.6846  0.7014
15685TIP3   OH268469   2.992   2.546   4.209 -0.5521  0.0835 -0.0120
15685TIP3    H168470   2.912   2.598   4.199 -0.3930  0.3903  0.2745
15685TIP3    H268471   2.963   2.455   4.206 -0.9109  0.1950  0.0914
15686TIP3   OH268472   1.036   2.112   1.205  0.1252 -0.1059  0.5596
15686TIP3    H168473   1.060   2.021   1.226 -0.9079 -0.2042  1.3545
15686TIP3    H268474   1.063   2.162   1.282  0.4666  0.2261  0.2235
15687TIP3   OH268475   2.703   2.521   0.698 -0.4604 -0.1863  0.2024
15687TIP3    H168476   2.664   2.442   0.661 -0.1832  0.5743 -1.7683
15687TIP3    H268477   2.662   2.593   0.650  0.7378  0.7826  0.6026
15688TIP3   OH268478   4.502   2.571   1.820 -0.2638 -0.3286 -0.5994
15688TIP3    H168479   4.521   2.665   1.817  0.8119 -0.5191 -0.0949
15688TIP3    H268480   4.539   2.542   1.903 -2.2502 -0.8550  0.1114
15689TIP3   OH268481   0.760   3.924   4.406 -0.1284 -0.1295 -0.1562
15689TIP3    H168482   0.719   3.844   4.438 -0.1127 -0.8945 -1.9448
15689TIP3    H268483   0.732   3.993   4.466  0.2643 -1.5660  1.6947
15690TIP3   OH268484   2.999   2.402  12.497  0.1254 -0.3193 -0.4510
15690TIP3    H168485   3.051   2.398  12.417 -0.8199  0.1275 -1.0950
15690TIP3    H268486   3.022   2.487  12.536 -0.1194 -0.1194 -0.7372
15691TIP3   OH268487   4.661   0.764   3.672  0.3723  0.1284  0.1463
15691TIP3    H168488   4.733   0.730   3.618  0.0670 -1.8035  0.9013
15691TIP3    H268489   4.698   0.840   3.716  1.9266 -0.7494  0.4095
15692TIP3   OH268490   2.508   5.696  15.204  0.1523  0.3683 -0.2509
15692TIP3    H168491   2.520   5.790  15.211 -0.3927  0.3878  0.5069
15692TIP3    H268492   2.430   5.678  15.256  2.9509 -1.1219  3.7383
15693TIP3   OH268493   4.290   1.472   2.073 -0.3673  0.0109  0.4607
15693TIP3    H168494   4.314   1.539   2.009 -0.3358  0.4429  0.9219
15693TIP3    H268495   4.204   1.441   2.043 -0.8592  0.9844  0.8058
15694TIP3   OH268496   2.214   2.340  11.946  0.2651 -0.4608  0.0886
15694TIP3    H168497   2.292   2.350  11.891 -0.0484 -0.1707 -0.3094
15694TIP3    H268498   2.158   2.414  11.922 -1.3969 -2.2229 -1.7118
15695TIP3   OH268499   0.652   3.486  15.503  0.0135 -0.2521 -0.0351
15695TIP3    H168500   0.681   3.573  15.530 -0.4445  0.5629 -2.0897
15695TIP3    H268501   0.562   3.480  15.536 -0.4614  0.6398 -1.1397
15696TIP3   OH268502   5.310   5.877   0.182 -0.4759 -0.2967 -0.2985
15696TIP3    H168503   5.324   5.897   0.275 -0.0554  0.8188 -0.5957
15696TIP3    H268504   5.380   5.816   0.160 -0.1009  0.0404 -0.0658
15697TIP3   OH268505   5.222   3.278   2.199 -0.2831 -0.7144  0.3660
15697TIP3    H168506   5.194   3.343   2.264  1.8217  0.2103  0.3836
15697TIP3    H268507   5.315   3.265   2.216  0.4122 -0.1963 -2.6772
15698TIP3   OH268508   1.276   5.122   0.244  0.3427  0.5494 -0.2139
15698TIP3    H168509   1.209   5.123   0.312  0.4778 -0.4104 -0.0708
15698TIP3    H268510   1.231   5.092   0.165  0.5360  0.1947 -0.1897
15699TIP3   OH268511   2.039   5.449  12.938 -0.0302 -0.1366 -0.4640
15699TIP3    H168512   2.115   5.391  12.946 -0.3943 -0.9575 -2.6628
15699TIP3    H268513   2.066   5.530  12.981  1.5463 -0.9471  0.0982
15700TIP3   OH268514   4.563   0.113  12.569  0.5266  0.3249  0.0336
15700TIP3    H168515   4.597   0.056  12.638 -0.7729 -2.2292 -1.4040
15700TIP3    H268516   4.601   0.199  12.589  1.6343 -0.7627  2.8573
15701TIP3   OH268517   0.124   3.832   6.835  0.1463  0.2496  1.1595
15701TIP3    H168518   0.179   3.812   6.759  0.4216  1.0508  1.1348
15701TIP3    H268519   0.169   3.791   6.909  0.1770 -0.0597  0.9695
15702TIP3   OH268520   1.735   2.179   0.546 -0.5151  0.3884  0.0361
15702TIP3    H168521   1.797   2.234   0.594  0.1012  0.6669 -1.0619
15702TIP3    H268522   1.780   2.095   0.537 -0.4625  0.4637 -0.4063
15703TIP3   OH268523   4.576   0.582   0.111  0.1364 -0.2271  0.0440
15703TIP3    H168524   4.581   0.620   0.023  1.1013  1.0573  0.6506
15703TIP3    H268525   4.500   0.623   0.151 -0.4769 -1.0273 -0.2676
15704TIP3   OH268526   5.960   3.140   1.084 -0.5253  0.0841  0.3700
15704TIP3    H168527   6.004   3.074   1.138 -0.3310 -0.5458 -0.5500
15704TIP3    H268528   5.877   3.155   1.129  0.5163  1.1178  1.9919
15705TIP3   OH268529   6.582   5.103  13.448 -0.2269 -0.5156  0.8324
15705TIP3    H168530   6.498   5.123  13.490 -0.6504  1.6033 -0.9557
15705TIP3    H268531   6.570   5.128  13.357  2.2791 -0.4580  0.4819
15706TIP3   OH268532   4.258   5.228   0.051 -0.2765  0.4080  0.4299
15706TIP3    H168533   4.267   5.288  -0.024 -0.1300  0.4387  0.4728
15706TIP3    H268534   4.314   5.267   0.119 -2.5277  1.9032  1.4972
15707TIP3   OH268535   2.066   2.710  13.737  0.4708  0.3490  0.0643
15707TIP3    H168536   1.981   2.747  13.762  0.4909  0.8900 -0.6578
15707TIP3    H268537   2.059   2.696  13.643  0.6179 -1.1058  0.2637
15708TIP3   OH268538   0.554   4.741   1.966 -0.1832  0.2339  0.6679
15708TIP3    H168539   0.611   4.767   1.894  1.0056 -0.1255  1.4619
15708TIP3    H268540   0.525   4.824   2.005 -0.6870  0.4259 -0.0962
15709TIP3   OH268541   4.464   4.693   5.009  0.4435 -0.0724  0.3229
15709TIP3    H168542   4.521   4.631   5.055  1.5514  1.5456  1.1759
15709TIP3    H268543   4.482   4.777   5.050 -0.2557  1.0154 -1.5522
15710TIP3   OH268544   2.604   4.340   2.874  0.2110 -0.0470 -0.3136
15710TIP3    H168545   2.620   4.389   2.954  0.0386 -1.2179  0.4461
15710TIP3    H268546   2.683   4.288   2.861  0.0931 -0.1294 -0.7113
15711TIP3   OH268547   4.906   4.843  16.677  0.5179  0.7741 -0.2465
15711TIP3    H168548   4.957   4.838  16.757 -2.1054  0.9132  1.5100
15711TIP3    H268549   4.864   4.929  16.680 -0.0998  0.5382 -1.4492
15712TIP3   OH268550   0.021   0.343   1.063 -0.0765 -0.5358  0.0282
15712TIP3    H168551   0.029   0.439   1.064  1.8478 -0.6775  1.6696
15712TIP3    H268552  -0.061   0.326   1.110 -1.1591  0.3312 -1.4879
15713TIP3   OH268553   4.588   3.839   5.902 -0.4046  0.1155 -0.1962
15713TIP3    H168554   4.609   3.894   5.978 -1.8158  0.1453  0.1922
15713TIP3    H268555   4.532   3.770   5.938 -1.1688  0.1854 -1.2336
15714TIP3   OH268556   4.106   6.484   1.097  0.1370  0.5720  0.3807
15714TIP3    H168557   4.015   6.514   1.106  0.4053  1.0195  1.6981
15714TIP3    H268558   4.149   6.554   1.048 -0.4254 -0.0554 -1.0404
15715TIP3   OH268559   1.651   1.166   0.046 -0.1644 -0.1030  0.2103
15715TIP3    H168560   1.599   1.244   0.065  0.4958  0.2755  0.4808
15715TIP3    H268561   1.690   1.183  -0.040 -0.8248 -0.5685 -0.1860
15716TIP3   OH268562   5.201   3.121   4.358 -1.0571  0.6545  0.1360
15716TIP3    H168563   5.237   3.194   4.408 -0.5852  0.3286  0.2714
15716TIP3    H268564   5.199   3.048   4.420 -1.1837  0.4527 -0.1040
15717TIP3   OH268565   6.706   6.162   0.398  0.1185 -0.0337  0.1778
15717TIP3    H168566   6.801   6.173   0.410 -0.1569  1.9028  0.7206
15717TIP3    H268567   6.682   6.094   0.461  1.2488 -1.0223 -0.4307
15718TIP3   OH268568   0.666   4.245  13.789  0.6884  0.4778 -0.3723
15718TIP3    H168569   0.699   4.304  13.856 -0.4643 -0.4430  1.0399
15718TIP3    H268570   0.732   4.177  13.782  0.1198 -0.2362  0.9425
15719TIP3   OH268571   6.259   1.978   2.229  0.2505  0.1493 -0.1891
15719TIP3    H168572   6.345   1.975   2.271 -0.1394 -0.4390  0.5826
15719TIP3    H268573   6.202   2.018   2.294 -0.3336 -0.6704 -0.1923
15720TIP3   OH268574   3.865   2.017  11.565  0.8996  0.4685  0.8019
15720TIP3    H168575   3.848   2.107  11.537  0.8777  0.5500  1.0801
15720TIP3    H268576   3.804   2.001  11.636 -1.0514 -0.7118 -1.0815
15721TIP3   OH268577   4.551   4.327   4.650  0.2505 -0.0666  0.1641
15721TIP3    H168578   4.607   4.393   4.608 -0.4452 -0.6609 -1.7423
15721TIP3    H268579   4.610   4.254   4.667  0.4562  0.0268 -0.1322
15722TIP3   OH268580   0.967   6.570   3.595 -0.2008 -0.6269  0.7296
15722TIP3    H168581   1.003   6.575   3.506 -0.6468 -2.0867  0.4552
15722TIP3    H268582   1.027   6.511   3.642  1.7215  2.3698  2.2683
15723TIP3   OH268583   4.864   5.344   3.182 -0.2525 -0.1747 -0.2815
15723TIP3    H168584   4.774   5.364   3.207 -0.0587 -0.8779  0.9858
15723TIP3    H268585   4.900   5.429   3.154 -1.3839  0.0540 -1.0997
15724TIP3   OH268586   1.202   2.939  13.653 -0.3201  0.3404  0.6899
15724TIP3    H168587   1.147   2.861  13.657 -0.6971  0.6000  0.6178
15724TIP3    H268588   1.291   2.906  13.666 -0.0576 -0.5414 -2.8008
15725TIP3   OH268589   4.764   3.235   0.995 -0.3887  0.4194 -0.2033
15725TIP3    H168590   4.768   3.187   0.912  2.9802 -0.0878  0.1765
15725TIP3    H268591   4.733   3.322   0.970 -0.7333 -0.1268 -1.7830
15726TIP3   OH268592   5.541   0.338   1.186  0.3309 -0.8117  0.6488
15726TIP3    H168593   5.497   0.419   1.213 -1.1323 -1.3865  0.0685
15726TIP3    H268594   5.626   0.366   1.152 -0.2573  0.5004  0.2205
15727TIP3   OH268595   0.103   1.560   0.484 -0.0105  0.2521  0.1479
15727TIP3    H168596   0.094   1.617   0.408  0.3944 -0.2340 -0.2735
15727TIP3    H268597   0.134   1.477   0.448  0.8957  0.2410  0.9191
15728TIP3   OH268598   6.770   3.638  14.768  0.6637  0.2642 -0.2791
15728TIP3    H168599   6.821   3.584  14.828  1.1152  0.2440 -0.6738
15728TIP3    H268600   6.736   3.576  14.703 -0.9658  0.0858  0.7233
15729TIP3   OH268601   6.524   3.721   3.596  0.5620  0.2920  0.1128
15729TIP3    H168602   6.539   3.643   3.649  1.5632  1.0613  0.9919
15729TIP3    H268603   6.491   3.688   3.512 -0.3180 -0.9722  0.9552
15730TIP3   OH268604   3.437   2.663   2.187 -0.0553  0.0010 -0.2860
15730TIP3    H168605   3.402   2.633   2.103  0.0936 -1.1070  0.0437
15730TIP3    H268606   3.413   2.756   2.191  0.6096  0.2514 -1.9035
15731TIP3   OH268607   3.520   2.880  16.277 -0.3749 -0.0476 -0.3308
15731TIP3    H168608   3.589   2.883  16.343  0.8378 -1.7059 -1.4409
15731TIP3    H268609   3.527   2.963  16.230 -1.1160  1.0467  1.4648
15732TIP3   OH268610   1.208   0.776  14.814  0.3963  0.4436  0.0988
15732TIP3    H168611   1.279   0.820  14.860  1.0142  0.1476 -0.5736
15732TIP3    H268612   1.242   0.758  14.727  0.0459 -1.0910  0.2606
15733TIP3   OH268613   6.696   6.072  13.984  0.1905 -0.1150  0.0783
15733TIP3    H168614   6.699   6.040  13.894 -0.3538  1.7788 -0.6434
15733TIP3    H268615   6.752   6.150  13.984 -1.5208  1.1543  0.8248
15734TIP3   OH268616   4.348   4.284  12.082  0.5775  0.2058  0.1165
15734TIP3    H168617   4.273   4.260  12.136 -0.3162 -0.0158 -1.1930
15734TIP3    H268618   4.420   4.231  12.115 -0.0871 -0.3374  0.7080
15735TIP3   OH268619   3.995   3.127   5.072 -1.2939 -0.2994 -0.0187
15735TIP3    H168620   4.008   3.102   5.164 -0.8272 -1.8663 -0.4909
15735TIP3    H268621   4.075   3.174   5.049 -1.9875  1.2946  0.7534
15736TIP3   OH268622   1.808   1.167  16.515 -0.0179  0.1097 -0.0556
15736TIP3    H168623   1.792   1.079  16.548 -1.4276  1.2166  2.3470
15736TIP3    H268624   1.863   1.208  16.582  0.2606  1.1921 -0.9325
15737TIP3   OH268625   2.872   4.434   2.172  0.0691  0.2167  0.0701
15737TIP3    H168626   2.815   4.510   2.187  0.0598  0.3217 -0.4907
15737TIP3    H268627   2.952   4.472   2.135  0.2677  0.0046  0.2818
15738TIP3   OH268628   2.231   3.066   3.704  0.4974  0.1184  0.8246
15738TIP3    H168629   2.278   3.031   3.628  1.0040 -1.6310  1.9121
15738TIP3    H268630   2.215   3.158   3.682  0.5536 -0.3821 -1.4331
15739TIP3   OH268631   1.230   2.340  11.620 -0.0453 -0.4431 -0.3608
15739TIP3    H168632   1.281   2.405  11.572  1.0899 -0.4433  0.8030
15739TIP3    H268633   1.139   2.361  11.600  0.3297  1.0244 -0.6216
15740TIP3   OH268634   1.016   3.472  15.179 -0.2365 -0.7267  0.1210
15740TIP3    H168635   1.052   3.549  15.223 -1.9623 -0.1279  0.5368
15740TIP3    H268636   1.046   3.479  15.089  0.0027  0.1886  0.2679
15741TIP3   OH268637   0.775   3.495  11.811 -0.1785 -0.0414 -0.1487
15741TIP3    H168638   0.826   3.574  11.796 -1.1809  0.2475 -2.0965
15741TIP3    H268639   0.795   3.471  11.902  2.9050  0.4098 -0.6738
15742TIP3   OH268640   5.089   1.815   5.177  0.4034 -0.0451 -0.2355
15742TIP3    H168641   5.091   1.830   5.083 -2.0136 -2.5663 -0.7408
15742TIP3    H268642   5.042   1.891   5.212 -0.9642 -0.3531 -1.3682
15743TIP3   OH268643   4.441   1.875  15.516 -0.1419 -0.1785 -0.1505
15743TIP3    H168644   4.498   1.925  15.575  1.0329 -1.9536  0.2680
15743TIP3    H268645   4.442   1.925  15.435 -1.1794  1.9065  1.0853
15744TIP3   OH268646   4.103   6.590   5.155 -0.0447  0.0801 -0.2844
15744TIP3    H168647   4.169   6.520   5.152  0.4234  0.5335 -0.7108
15744TIP3    H268648   4.152   6.667   5.184 -0.7552  0.0211  1.1193
15745TIP3   OH268649   5.731   3.225   0.031  0.4111 -0.0441 -0.7360
15745TIP3    H168650   5.810   3.201  -0.017  0.2850 -1.8007 -0.1077
15745TIP3    H268651   5.696   3.141   0.063 -0.7139  0.8813  0.5115
15746TIP3   OH268652   0.583   0.892  10.918 -0.3495  0.2042 -0.4472
15746TIP3    H168653   0.540   0.972  10.949  1.6630  1.6279 -1.2087
15746TIP3    H268654   0.543   0.874  10.833 -1.0621  0.1887 -0.1093
15747TIP3   OH268655   1.052   3.484   0.590 -0.0997 -0.1177 -0.3126
15747TIP3    H168656   1.081   3.453   0.504  2.5320 -2.7611  1.4380
15747TIP3    H268657   0.979   3.426   0.613 -0.2654  0.0509 -0.4143
15748TIP3   OH268658   4.346   2.422  13.023 -0.3300  0.2321  0.2606
15748TIP3    H168659   4.403   2.421  12.946  0.7530  0.7972  1.0388
15748TIP3    H268660   4.270   2.473  12.995 -0.0309  0.2787 -0.4939
15749TIP3   OH268661   1.533   4.674  11.745  0.1872  0.2200 -0.0235
15749TIP3    H168662   1.559   4.719  11.826 -1.0427  0.5616  0.1851
15749TIP3    H268663   1.485   4.740  11.695 -0.0468 -0.3294 -0.5295
15750TIP3   OH268664   3.103   5.949  11.934 -0.1146  0.0161 -0.6069
15750TIP3    H168665   3.100   6.027  11.878  1.1152 -0.8288 -1.9057
15750TIP3    H268666   3.186   5.958  11.982 -0.0144 -0.4326 -0.6931
15751TIP3   OH268667   2.178   3.635  11.708  0.0765 -1.0007 -0.4067
15751TIP3    H168668   2.224   3.716  11.688  2.0894 -2.1423 -0.5838
15751TIP3    H268669   2.198   3.618  11.800  0.0677 -1.5378 -0.5026
15752TIP3   OH268670   1.980   4.334   4.243  0.1763  0.4532 -0.2924
15752TIP3    H168671   1.967   4.244   4.213 -4.0656  0.2458  1.8093
15752TIP3    H268672   1.925   4.386   4.184  1.7647  1.5698 -0.8082
15753TIP3   OH268673   0.692   0.101  14.675 -0.2107  0.3434 -0.4926
15753TIP3    H168674   0.680   0.123  14.582 -2.1412  0.1748 -0.3091
15753TIP3    H268675   0.612   0.054  14.698  0.8812 -0.8514  0.9021
15754TIP3   OH268676   4.277   0.945   2.312  0.0722 -0.0535  0.2678
15754TIP3    H168677   4.269   0.892   2.391 -0.6816  0.5572  0.5989
15754TIP3    H268678   4.302   0.882   2.244 -0.4555 -0.7826  0.7412
15755TIP3   OH268679   2.192   0.621   6.098  0.0382 -0.4070  0.1562
15755TIP3    H168680   2.168   0.637   6.189  0.3561  1.6406 -0.1031
15755TIP3    H268681   2.240   0.538   6.100  1.5280  0.4580  2.1093
15756TIP3   OH268682   1.432   1.088   0.385 -0.3206  0.6433 -0.1906
15756TIP3    H168683   1.521   1.098   0.352 -0.4095  0.4683 -0.4923
15756TIP3    H268684   1.390   1.173   0.365  0.1110  1.1434  1.0122
15757TIP3   OH268685   2.212   6.261   5.654 -0.3335 -0.2656  0.2433
15757TIP3    H168686   2.264   6.201   5.708 -0.2875  0.7013  1.3006
15757TIP3    H268687   2.155   6.204   5.603  0.0032 -1.2313  0.9201
15758TIP3   OH268688   2.797   5.096   3.586 -0.0776  0.1724  0.0828
15758TIP3    H168689   2.825   5.183   3.616 -3.0678  0.9212  0.9435
15758TIP3    H268690   2.779   5.108   3.492 -1.3908  0.7826  0.3920
15759TIP3   OH268691   1.761   1.978  15.875 -0.4850  0.6849 -0.9062
15759TIP3    H168692   1.699   1.917  15.836  0.9160 -0.8127 -0.8140
15759TIP3    H268693   1.754   2.057  15.820 -1.9897  0.3092 -1.2765
15760TIP3   OH268694   6.598   3.722   5.832  0.2314 -0.0634  0.2206
15760TIP3    H168695   6.687   3.754   5.847  0.8870 -2.1698  0.8573
15760TIP3    H268696   6.553   3.733   5.916  0.5734 -1.1841  0.5509
15761TIP3   OH268697   1.521   4.981  11.210 -0.1959  0.4179 -0.6432
15761TIP3    H168698   1.544   4.931  11.289  0.5085 -0.2584 -1.2626
15761TIP3    H268699   1.515   4.915  11.141 -0.8205  1.0043 -1.1592
15762TIP3   OH268700   3.177   5.762  11.009 -0.5647  0.0370 -0.1101
15762TIP3    H168701   3.126   5.680  11.004  0.8327 -0.8328 -0.4194
15762TIP3    H268702   3.148   5.812  10.933 -0.0180 -1.0322 -1.0527
15763TIP3   OH268703   3.334   3.839  16.128 -0.0273  0.5977 -0.0735
15763TIP3    H168704   3.389   3.897  16.075 -0.8392  2.9910  1.5992
15763TIP3    H268705   3.395   3.788  16.181  0.6595  1.2282 -0.2622
15764TIP3   OH268706   4.109   5.065   1.247  0.0387 -0.1637  0.0485
15764TIP3    H168707   4.054   5.142   1.256  0.9468  0.5592 -0.5014
15764TIP3    H268708   4.079   5.023   1.167  0.1325  0.1013 -0.1257
15765TIP3   OH268709   0.375   3.720   0.147 -0.0796 -0.2170  0.2719
15765TIP3    H168710   0.327   3.757   0.221 -1.8753  0.8143 -1.3943
15765TIP3    H268711   0.438   3.788   0.123 -0.3379 -0.0627  0.0433
15766TIP3   OH268712   2.060   0.243  13.082  0.5854 -0.2905 -0.0107
15766TIP3    H168713   2.100   0.177  13.138 -1.8743 -0.7279  1.2915
15766TIP3    H268714   2.005   0.192  13.021 -0.7190  0.4891  0.5046
15767TIP3   OH268715   6.055   4.416  14.538 -0.6004 -0.0438  0.0766
15767TIP3    H168716   6.020   4.390  14.453 -1.1786 -1.6659  0.7864
15767TIP3    H268717   5.978   4.421  14.595 -0.0656 -0.2550  0.8189
15768TIP3   OH268718   0.674   2.439  11.376  0.1544 -0.0783  0.4228
15768TIP3    H168719   0.641   2.529  11.370 -0.9751 -0.4528  0.9539
15768TIP3    H268720   0.663   2.404  11.287 -2.7114 -0.8246  1.0410
15769TIP3   OH268721   5.099   5.550  11.751  0.1320 -0.1333 -0.3842
15769TIP3    H168722   5.092   5.637  11.711 -2.1133 -0.0203  0.1807
15769TIP3    H268723   5.132   5.568  11.839 -2.1607  0.3775  0.4108
15770TIP3   OH268724   0.772   4.038  15.593 -0.0859  0.3875 -0.2209
15770TIP3    H168725   0.833   4.100  15.635 -1.0052  0.9749  0.2663
15770TIP3    H268726   0.714   4.011  15.664 -0.9614  0.5285 -0.8861
15771TIP3   OH268727   0.489   2.914  16.935  0.2133  0.2861 -0.4277
15771TIP3    H168728   0.466   2.900  17.027 -0.2946  0.3675 -0.5351
15771TIP3    H268729   0.582   2.896  16.930 -0.0400 -1.1676 -0.1908
15772TIP3   OH268730   4.053   4.626  15.340 -0.3692  0.2315 -0.5174
15772TIP3    H168731   3.989   4.573  15.387 -0.9824  1.3611 -0.0830
15772TIP3    H268732   4.105   4.667  15.408  0.1123  0.1897 -0.8567
15773TIP3   OH268733   4.849   1.978   1.348  0.0763 -0.7526  0.5975
15773TIP3    H168734   4.805   2.062   1.333  0.2751 -0.7344  0.1104
15773TIP3    H268735   4.936   2.002   1.380  0.3993 -0.7648 -0.2772
15774TIP3   OH268736   2.325   2.488   5.820 -0.2659 -0.0883  0.1128
15774TIP3    H168737   2.406   2.515   5.862 -0.4291  0.1413  0.2764
15774TIP3    H268738   2.343   2.399   5.788 -0.3291 -0.4921  1.1738
15775TIP3   OH268739   2.006   2.380  15.342  0.8915 -0.6210 -0.4000
15775TIP3    H168740   1.986   2.463  15.385  1.2293 -1.8300  2.1710
15775TIP3    H268741   1.932   2.366  15.282  0.3765  1.0625 -0.1893
15776TIP3   OH268742   2.739   6.124  17.198 -0.3359 -0.0929 -0.5824
15776TIP3    H168743   2.705   6.194  17.142 -1.0670  0.0294  0.0233
15776TIP3    H268744   2.831   6.146  17.210 -0.4352  0.4673 -0.8442
15777TIP3   OH268745   3.528   0.669  17.136  0.2796  0.0896  0.3563
15777TIP3    H168746   3.598   0.704  17.192 -1.3546  2.3834  1.0427
15777TIP3    H268747   3.449   0.675  17.189 -1.1533  1.4505 -1.8423
15778TIP3   OH268748   3.719   4.849  14.783 -0.7041 -0.1092 -0.3127
15778TIP3    H168749   3.737   4.826  14.874 -1.7992 -0.1112 -0.0874
15778TIP3    H268750   3.682   4.937  14.787 -0.2262  0.1149 -0.8119
15779TIP3   OH268751   4.945   4.952  11.242  0.3765 -0.6382  0.4836
15779TIP3    H168752   5.038   4.936  11.225 -0.0534 -1.9889 -0.6756
15779TIP3    H268753   4.944   5.032  11.295  2.2108 -0.7554  0.7430
15780TIP3   OH268754   3.586   1.963   6.245  0.0491  0.2142  0.6840
15780TIP3    H168755   3.653   2.024   6.277  3.7309 -1.9263 -2.5481
15780TIP3    H268756   3.606   1.880   6.290  0.3492 -0.7445 -1.1799
15781TIP3   OH268757   3.483   4.342  14.118 -0.2955  0.2225 -0.1158
15781TIP3    H168758   3.427   4.365  14.193  1.2879  0.5344  0.9838
15781TIP3    H268759   3.510   4.425  14.081  0.9150  0.1107  0.4800
15782TIP3   OH268760   6.422   5.715  14.039 -0.1008 -0.1896 -0.4862
15782TIP3    H168761   6.368   5.779  13.993 -0.2753  0.4973  0.6449
15782TIP3    H268762   6.495   5.766  14.074  0.0770 -0.7101 -0.0871
15783TIP3   OH268763   6.310   1.872   1.824 -0.0497 -0.0509 -0.1409
15783TIP3    H168764   6.312   1.965   1.804 -2.4377 -0.4039 -2.2624
15783TIP3    H268765   6.328   1.830   1.740 -1.6980 -1.5250  0.2178
15784TIP3   OH268766   2.650   1.936   5.694  0.1034 -0.2397  0.4639
15784TIP3    H168767   2.623   1.863   5.638  0.0872  1.6799 -2.1204
15784TIP3    H268768   2.568   1.966   5.735 -0.0109 -1.1520  0.9164
15785TIP3   OH268769   0.395   6.746   3.658 -0.4658 -0.3393 -0.6226
15785TIP3    H168770   0.404   6.652   3.640 -1.5465 -0.7393  0.8169
15785TIP3    H268771   0.329   6.751   3.727  1.6653  1.2688  1.3804
15786TIP3   OH268772   1.197   4.715   5.199  0.1657 -0.1533  0.1217
15786TIP3    H168773   1.268   4.660   5.167 -0.0615 -0.7681  0.6591
15786TIP3    H268774   1.177   4.680   5.286 -0.2712  0.5026  0.2845
15787TIP3   OH268775   4.173   3.874  14.503  0.0958  0.0717 -0.4079
15787TIP3    H168776   4.200   3.957  14.543 -0.5930  0.6136 -1.0536
15787TIP3    H268777   4.138   3.823  14.575  0.9385  0.1584  0.0766
15788TIP3   OH268778   2.192   3.762  16.081  0.3519 -0.3014  0.0243
15788TIP3    H168779   2.189   3.753  16.177 -1.3779 -0.7312 -0.0679
15788TIP3    H268780   2.173   3.675  16.048  2.1195 -0.4209 -0.7280
15789TIP3   OH268781   5.655   4.068  16.901 -0.1714  0.0274  0.0450
15789TIP3    H168782   5.676   3.985  16.942  0.6421  0.6502  0.9085
15789TIP3    H268783   5.564   4.085  16.927 -0.5505 -0.8875 -0.6599
15790TIP3   OH268784   3.964   4.937   5.126  0.4190  0.0155  0.0796
15790TIP3    H168785   4.052   4.900   5.136  1.3263  2.2603  0.5625
15790TIP3    H268786   3.950   4.989   5.205 -1.2950 -0.1752 -0.0639
15791TIP3   OH268787   5.407   5.708   1.198 -0.2024  0.6538 -0.2087
15791TIP3    H168788   5.382   5.763   1.272  0.0078 -1.8833  1.8292
15791TIP3    H268789   5.474   5.758   1.152  1.1275  1.4098  2.4931
15792TIP3   OH268790   2.335   0.382   5.347 -0.1024 -0.4275  0.0983
15792TIP3    H168791   2.289   0.454   5.390 -0.0892  0.8658 -2.0234
15792TIP3    H268792   2.318   0.394   5.254  0.1099 -3.0284 -0.3234
15793TIP3   OH268793   3.046   2.260  16.928 -0.0494  0.4826  0.2828
15793TIP3    H168794   3.017   2.206  17.001  1.0070 -0.8186 -0.2435
15793TIP3    H268795   3.141   2.264  16.937  0.0735  0.4437 -0.9406
15794TIP3   OH268796   3.028   3.356  14.483  0.3626  0.1927 -0.0243
15794TIP3    H168797   3.107   3.342  14.430  1.2225  0.4722  1.1728
15794TIP3    H268798   3.015   3.274  14.530 -0.1195  0.1200 -0.2723
15795TIP3   OH268799   4.681   6.185   4.081  0.8278 -0.1066 -0.1774
15795TIP3    H168800   4.660   6.247   4.151  2.3994  0.1438  0.0812
15795TIP3    H268801   4.605   6.188   4.023 -0.0087  0.5113  0.9250
15796TIP3   OH268802   4.019   3.738   0.800 -0.0279  0.1654 -0.5003
15796TIP3    H168803   4.035   3.786   0.881 -1.2119 -0.2471 -0.0078
15796TIP3    H268804   3.932   3.768   0.772 -0.4064 -1.0622 -0.6443
15797TIP3   OH268805   3.195   1.784   2.652 -0.4223  0.8786  0.1599
15797TIP3    H168806   3.238   1.713   2.699  0.2059  0.0687 -1.6231
15797TIP3    H268807   3.200   1.859   2.713  0.2142 -0.1827  1.4398
15798TIP3   OH268808   3.942   3.774   1.591  0.1283  0.1153 -0.1543
15798TIP3    H168809   4.016   3.798   1.647 -0.1427  1.3870 -0.3270
15798TIP3    H268810   3.865   3.806   1.638 -0.3793 -1.6767  0.2850
15799TIP3   OH268811   1.024   5.455   3.533  0.2475  0.1040 -0.0566
15799TIP3    H168812   1.060   5.384   3.479  0.9745 -0.6595  1.4035
15799TIP3    H268813   0.950   5.415   3.579  1.3322 -0.0533  1.6063
15800TIP3   OH268814   3.494   2.068  10.809 -0.3306 -0.1652  0.5065
15800TIP3    H168815   3.511   1.975  10.791  0.3474 -0.3449  2.0176
15800TIP3    H268816   3.421   2.067  10.871 -1.0495  0.3744 -0.3042
15801TIP3   OH268817   0.788   3.308  11.240  0.4231 -0.2715 -0.1534
15801TIP3    H168818   0.731   3.303  11.318  2.2353 -1.2694  1.1433
15801TIP3    H268819   0.823   3.397  11.242 -0.5584  0.1266 -0.5706
15802TIP3   OH268820   0.424   4.996   3.502  0.1905  0.0019  0.6455
15802TIP3    H168821   0.399   4.904   3.515  0.6384 -0.4421 -1.3929
15802TIP3    H268822   0.360   5.030   3.440  0.5003  0.8432  0.7789
15803TIP3   OH268823   3.002   2.301   1.566 -0.3870 -0.1459 -0.2145
15803TIP3    H168824   3.029   2.249   1.490  0.1187 -0.7696  0.3830
15803TIP3    H268825   3.079   2.355   1.586 -0.9674  0.9612 -0.9331
15804TIP3   OH268826   6.670   3.702   1.064 -0.3933  0.4778  0.2222
15804TIP3    H168827   6.756   3.677   1.029 -0.6325  1.0894 -0.8331
15804TIP3    H268828   6.689   3.753   1.142  0.1685 -0.5881  0.7999
15805TIP3   OH268829   1.390   0.619  13.450 -0.3220 -0.1983 -0.3723
15805TIP3    H168830   1.354   0.636  13.537 -2.8939  0.2055 -1.4529
15805TIP3    H268831   1.394   0.523  13.444  0.6861 -0.2200  0.4838
15806TIP3   OH268832   3.556   5.546  11.505 -0.3934 -0.1378 -0.4286
15806TIP3    H168833   3.619   5.610  11.473 -1.4310  1.5954  0.9346
15806TIP3    H268834   3.602   5.462  11.498  2.2528  1.1414  1.0332
15807TIP3   OH268835   0.083   2.542   4.823  0.0806  0.1466 -0.2124
15807TIP3    H168836   0.010   2.490   4.792 -0.0735  0.7359 -0.8526
15807TIP3    H268837   0.045   2.599   4.890  0.5853 -1.7463  1.7555
15808TIP3   OH268838   3.813   6.043   3.469 -0.0280  0.4033  0.0133
15808TIP3    H168839   3.746   6.000   3.522  1.3296 -1.3667  0.3434
15808TIP3    H268840   3.763   6.090   3.402 -1.5802 -2.7016 -1.1127
15809TIP3   OH268841   4.372   1.821  13.216  0.2272  0.2769 -0.2687
15809TIP3    H168842   4.359   1.752  13.281 -0.8530  0.2720 -0.4904
15809TIP3    H268843   4.400   1.897  13.267 -3.2848  1.0887  0.5453
15810TIP3   OH268844   0.394   4.557  13.697  0.2057 -0.2811  0.2579
15810TIP3    H168845   0.335   4.627  13.724  1.2973  1.0965 -0.7896
15810TIP3    H268846   0.356   4.523  13.616  1.6663  1.7813 -1.3837
15811TIP3   OH268847   5.652   6.693  15.398  0.1024  0.6396 -0.0398
15811TIP3    H168848   5.719   6.762  15.400 -1.3098  2.0569 -0.8291
15811TIP3    H268849   5.569   6.740  15.389 -0.7538 -1.2369 -2.4222
15812TIP3   OH268850   3.153   5.913   4.772 -0.1984 -0.0213  0.1799
15812TIP3    H168851   3.076   5.871   4.809 -0.5086 -0.9789 -1.5453
15812TIP3    H268852   3.218   5.843   4.767  0.5611  0.6080  0.9024
15813TIP3   OH268853   1.771   4.775   5.817  0.1531 -0.2456  0.5526
15813TIP3    H168854   1.845   4.836   5.813  0.1450 -0.0169  3.0713
15813TIP3    H268855   1.697   4.830   5.842 -1.4618 -0.0269 -4.2247
15814TIP3   OH268856   5.317   1.008   0.463  0.2612  0.0733 -0.5640
15814TIP3    H168857   5.239   0.987   0.514  1.1377 -1.7512  0.0992
15814TIP3    H268858   5.350   1.089   0.502 -1.0480  0.6082 -0.5572
15815TIP3   OH268859   0.356   6.737   3.008  0.5514  0.3415 -0.3636
15815TIP3    H168860   0.441   6.774   3.030  0.7303  0.6206 -1.4535
15815TIP3    H268861   0.376   6.660   2.954  0.1156  1.5199 -2.2746
15816TIP3   OH268862   5.783   1.758  11.514 -0.7256 -0.9266  0.2328
15816TIP3    H168863   5.860   1.702  11.503  0.9221  1.2214  0.4706
15816TIP3    H268864   5.772   1.802  11.430 -0.0622  0.7501  0.9938
15817TIP3   OH268865   0.320   3.341  11.256  0.2659  0.6560 -0.2244
15817TIP3    H168866   0.334   3.427  11.215  1.4002 -0.7503 -2.8526
15817TIP3    H268867   0.275   3.362  11.338 -0.4240  3.6984 -1.2896
15818TIP3   OH268868   3.775   1.958   0.278  0.8282  0.4876 -0.6864
15818TIP3    H168869   3.840   1.889   0.282 -0.5011 -0.6849  1.6808
15818TIP3    H268870   3.770   1.992   0.368 -0.7143  1.5949 -1.1609
15819TIP3   OH268871   3.092   4.239  14.218  0.3013 -0.0255 -0.4397
15819TIP3    H168872   3.091   4.145  14.201  2.5165  0.1036 -1.4571
15819TIP3    H268873   3.115   4.247  14.310  0.2840 -0.4752 -0.3972
15820TIP3   OH268874   0.302   1.267   4.672 -0.1075 -0.5264  0.6993
15820TIP3    H168875   0.212   1.258   4.640  0.5208 -1.1447 -0.9641
15820TIP3    H268876   0.296   1.253   4.766 -1.9760  0.9715  0.8427
15821TIP3   OH268877   3.172   6.262  11.187  0.4019 -0.2440 -0.0968
15821TIP3    H168878   3.130   6.261  11.100 -0.4319  1.0969  0.2739
15821TIP3    H268879   3.236   6.333  11.182  1.5490 -1.2625 -0.1446
15822TIP3   OH268880   6.261   3.987   5.094 -0.2218  0.3213  0.0147
15822TIP3    H168881   6.242   4.056   5.157  1.7295  0.5617  0.3730
15822TIP3    H268882   6.356   3.973   5.101 -0.5915 -2.5189  0.0781
15823TIP3   OH268883   3.469   5.841   1.224  0.1938  0.0601  0.3676
15823TIP3    H168884   3.561   5.815   1.218 -0.6469 -2.7119 -1.2088
15823TIP3    H268885   3.427   5.800   1.148 -2.4405  0.9360  1.2905
15824TIP3   OH268886   6.697   2.866  14.607 -0.1337 -0.6832  0.8346
15824TIP3    H168887   6.634   2.931  14.637 -1.1614  0.1792 -2.9383
15824TIP3    H268888   6.782   2.902  14.630 -0.7137  1.7205 -0.6090
15825TIP3   OH268889   1.374   1.033   1.970  0.0500 -0.4718  0.3223
15825TIP3    H168890   1.410   0.957   2.015 -0.2156 -1.6895 -1.4462
15825TIP3    H268891   1.447   1.093   1.960  0.2533 -0.4571  1.7711
15826TIP3   OH268892   2.134   3.785  12.673 -0.1038  0.3774  0.2183
15826TIP3    H168893   2.137   3.809  12.766 -0.5128 -0.5138  0.4623
15826TIP3    H268894   2.203   3.721  12.662  0.0848  0.6399 -0.1444
15827TIP3   OH268895   5.407   1.641  12.480 -0.6974  0.1475 -0.1161
15827TIP3    H168896   5.464   1.709  12.446  0.3948  0.1531  1.6740
15827TIP3    H268897   5.318   1.670  12.457 -0.0218  0.1895 -2.8027
15828TIP3   OH268898   1.151   3.349  12.857 -0.4905 -0.3982  0.3735
15828TIP3    H168899   1.138   3.254  12.861 -1.1069 -0.3685 -0.8423
15828TIP3    H268900   1.224   3.361  12.797 -0.6555 -0.0795  0.2368
15829TIP3   OH268901   3.445   3.644   4.006 -0.4520 -0.7704 -0.8081
15829TIP3    H168902   3.422   3.573   3.946 -0.5467 -0.9975 -0.5000
15829TIP3    H268903   3.482   3.600   4.083 -2.3117 -0.5873  0.1960
15830TIP3   OH268904   0.506   1.809  14.321  0.1522 -0.0430 -0.0427
15830TIP3    H168905   0.423   1.804  14.368  0.3161 -0.9330  0.1598
15830TIP3    H268906   0.511   1.899  14.290 -0.3531  0.3267  0.9317
15831TIP3   OH268907   5.664   2.118   3.769 -0.1678 -0.6249 -0.0372
15831TIP3    H168908   5.722   2.085   3.700 -0.8967  1.7479 -1.8607
15831TIP3    H268909   5.705   2.199   3.798 -1.7337  0.2517 -0.2302
15832TIP3   OH268910   2.486   6.490  15.690 -0.0419 -0.2354 -0.0327
15832TIP3    H168911   2.518   6.580  15.697  1.5251 -0.8679  1.2043
15832TIP3    H268912   2.508   6.463  15.601 -0.3984  0.5513 -0.3612
15833TIP3   OH268913   5.586   0.688   1.199 -0.0288  0.2395 -0.0481
15833TIP3    H168914   5.631   0.728   1.274 -0.3569  0.1375  0.2035
15833TIP3    H268915   5.652   0.630   1.161  0.1880  0.4022  0.0730
15834TIP3   OH268916   4.815   3.496  12.908 -0.4527  0.9371 -0.0869
15834TIP3    H168917   4.825   3.444  12.829  1.9834  1.1219  0.0530
15834TIP3    H268918   4.724   3.524  12.908 -0.8875 -0.4344 -1.9570
15835TIP3   OH268919   2.015   2.493  12.928  0.1673 -0.5373 -0.3616
15835TIP3    H168920   2.029   2.407  12.888 -0.6111 -0.9608  0.2581
15835TIP3    H268921   2.096   2.541  12.910  0.0462 -0.9039 -1.9549
15836TIP3   OH268922   6.182   4.552  14.859 -0.1838  0.0570 -0.9126
15836TIP3    H168923   6.218   4.635  14.889  1.1850 -0.4523 -1.1011
15836TIP3    H268924   6.118   4.528  14.926 -1.6025  1.9193 -1.5579
15837TIP3   OH268925   0.968   5.517  11.751 -0.2668  0.1719  0.3401
15837TIP3    H168926   0.930   5.604  11.759 -0.1467  0.0500  2.4492
15837TIP3    H268927   1.060   5.528  11.777  0.3113 -0.1745 -1.5082
15838TIP3   OH268928   3.569   6.287   4.158  0.1013 -0.0809  0.0788
15838TIP3    H168929   3.599   6.246   4.077 -0.0062 -0.5897  0.2897
15838TIP3    H268930   3.482   6.249   4.173  0.4467 -0.5896  0.8411
15839TIP3   OH268931   4.025   4.524   0.040 -0.4981  0.3277  0.1579
15839TIP3    H168932   3.957   4.590   0.026  1.1076  1.9004 -0.4536
15839TIP3    H268933   4.107   4.570   0.021  0.6951 -1.7100  0.2500
15840TIP3   OH268934   4.227   4.172   5.405 -0.1764  0.4311 -0.3924
15840TIP3    H168935   4.258   4.254   5.444 -0.0545  0.4590 -0.5447
15840TIP3    H268936   4.155   4.198   5.348  0.0401  0.4706 -0.6526
15841TIP3   OH268937   4.349   1.002   6.311 -0.3583 -0.0883  0.1701
15841TIP3    H168938   4.258   1.008   6.281 -0.7750  0.5436  1.5332
15841TIP3    H268939   4.367   1.086   6.352  1.1812  0.1656 -0.9671
15842TIP3   OH268940   2.164   2.166  14.544  0.3808  0.0710 -0.0973
15842TIP3    H168941   2.254   2.148  14.516  0.3249  0.4807 -0.5472
15842TIP3    H268942   2.135   2.084  14.582  0.6332 -0.3539 -0.7953
15843TIP3   OH268943   0.679   4.021   3.029  0.3266  0.0432 -0.5014
15843TIP3    H168944   0.708   3.955   3.093 -0.5589  0.9369  0.8472
15843TIP3    H268945   0.747   4.020   2.961  1.6485 -0.4378  0.8019
15844TIP3   OH268946   5.025   4.231   1.324  0.3535  0.0629 -0.2978
15844TIP3    H168947   5.081   4.178   1.380  1.0591  0.9656 -0.1490
15844TIP3    H268948   5.042   4.321   1.350  0.8452  0.5145 -2.0710
15845TIP3   OH268949   6.762   4.912  11.752 -0.2464 -0.0788 -0.1144
15845TIP3    H168950   6.790   4.923  11.843  0.3509 -1.8022 -0.0725
15845TIP3    H268951   6.803   4.830  11.724  0.3036  0.8537 -2.2114
15846TIP3   OH268952   5.605   3.398  11.788 -0.1417  0.2649 -0.3701
15846TIP3    H168953   5.700   3.397  11.796 -0.1174 -1.5745 -0.7645
15846TIP3    H268954   5.589   3.412  11.695 -0.1993 -2.6144 -0.8385
15847TIP3   OH268955   0.244   5.009  11.399  0.4603  0.0636 -0.3068
15847TIP3    H168956   0.292   5.019  11.316  3.1498 -0.9021  1.0684
15847TIP3    H268957   0.303   5.047  11.464 -1.3960  0.3073  1.2529
15848TIP3   OH268958   2.747   3.125  12.606  0.4022  0.4108 -0.3115
15848TIP3    H168959   2.729   3.033  12.585 -0.6597  0.3351  0.8792
15848TIP3    H268960   2.818   3.122  12.670  0.7511  0.4562 -0.6906
15849TIP3   OH268961   6.699   3.926  14.606  0.5937 -0.2102  0.4730
15849TIP3    H168962   6.634   3.922  14.535  1.2609  0.6933 -0.2033
15849TIP3    H268963   6.782   3.906  14.563  1.1245  1.1780  0.8275
15850TIP3   OH268964   0.036   0.631  15.555  0.5490  0.1496 -0.2671
15850TIP3    H168965  -0.014   0.558  15.518 -0.4366  0.2631  0.8112
15850TIP3    H268966   0.029   0.701  15.491  0.3768 -0.2555 -0.6929
15851TIP3   OH268967   3.337   1.369  10.310  0.5490  0.2002 -0.2672
15851TIP3    H168968   3.327   1.300  10.375  2.6241 -0.4216 -0.5688
15851TIP3    H268969   3.280   1.439  10.341  0.7069 -0.4899  1.6694
15852TIP3   OH268970   5.552   2.981   5.652 -0.5283  0.7618  0.2855
15852TIP3    H168971   5.563   2.918   5.581 -0.9416  0.4403  0.5066
15852TIP3    H268972   5.626   2.963   5.711 -0.3298  0.8592  0.0673
15853TIP3   OH268973   5.660   2.516   1.501 -0.1825 -0.4206  0.0371
15853TIP3    H168974   5.589   2.453   1.486 -0.0260  0.1037 -3.1437
15853TIP3    H268975   5.740   2.466   1.485  0.0709 -0.2251  0.6602
15854TIP3   OH268976   1.020   4.705   2.098  0.2206  0.1804 -0.2733
15854TIP3    H168977   1.061   4.631   2.142  1.3866 -0.8290 -2.9978
15854TIP3    H268978   0.935   4.714   2.141  0.8242 -1.5165  1.3464
15855TIP3   OH268979   4.130   0.893  15.588  0.1613 -0.1690  0.4994
15855TIP3    H168980   4.177   0.928  15.512  1.2391  2.2665  2.2063
15855TIP3    H268981   4.040   0.923  15.575  0.7595  2.0028  1.1570
15856TIP3   OH268982   6.382   4.977   0.797  0.4685  0.6324  0.0191
15856TIP3    H168983   6.345   4.939   0.717  0.0007  1.2982 -0.0859
15856TIP3    H268984   6.450   4.916   0.824 -0.6621 -0.5783  0.1717
15857TIP3   OH268985   5.151   5.720  13.663 -0.3365  0.1714 -0.3001
15857TIP3    H168986   5.242   5.691  13.661 -0.0756  0.9398  0.1382
15857TIP3    H268987   5.126   5.730  13.571 -0.7497 -2.3770 -0.5038
15858TIP3   OH268988   5.725   3.592   1.812  0.1118  0.0975 -0.1869
15858TIP3    H168989   5.645   3.562   1.769 -0.3381 -0.3339  0.9378
15858TIP3    H268990   5.788   3.522   1.796  0.4209  0.6689 -1.5075
15859TIP3   OH268991   6.515   1.612  11.622  0.0112  0.3803  0.1728
15859TIP3    H168992   6.583   1.650  11.568 -1.2200  0.0357 -1.6608
15859TIP3    H268993   6.456   1.685  11.642  0.0716  0.3547  0.4530
15860TIP3   OH268994   6.169   5.643   3.074  0.3414  0.1997 -0.3991
15860TIP3    H168995   6.120   5.586   3.014  1.0150  0.2136 -0.9695
15860TIP3    H268996   6.251   5.662   3.028 -0.1689  2.2092 -0.5257
15861TIP3   OH268997   6.430   6.190  16.370 -0.4109 -0.1339 -0.6178
15861TIP3    H168998   6.461   6.251  16.437  1.2544  0.0048 -1.4846
15861TIP3    H268999   6.392   6.117  16.419  0.5665  0.0780  0.4599
15862TIP3   OH269000   2.048   2.925  15.542  0.0663  0.2796  0.3117
15862TIP3    H169001   2.006   3.003  15.580 -0.5494  0.0758  0.0580
15862TIP3    H269002   1.985   2.893  15.478 -0.0207 -0.8679  0.9496
15863TIP3   OH269003   6.556   5.941  11.795 -0.2444  0.2269 -0.8458
15863TIP3    H169004   6.522   5.852  11.788  0.0267 -0.1711  2.1098
15863TIP3    H269005   6.643   5.931  11.834 -0.7710  1.8437  0.8354
15864TIP3   OH269006   2.453   4.424  14.968  0.7371  0.5852 -0.2332
15864TIP3    H169007   2.465   4.346  14.914 -1.0411  1.2346 -1.6093
15864TIP3    H269008   2.360   4.424  14.991  1.0514  1.4382  1.0944
15865TIP3   OH269009   2.591   4.882   0.943  0.1528  0.0433  1.1913
15865TIP3    H169010   2.677   4.920   0.961  0.5717 -0.4296  0.2092
15865TIP3    H269011   2.572   4.905   0.852 -1.0825  0.7393  1.6025
15866TIP3   OH269012   5.963   0.977  15.132 -0.1462 -0.1614 -0.0564
15866TIP3    H169013   6.057   0.966  15.138 -0.0875  0.0435 -0.5410
15866TIP3    H269014   5.941   1.034  15.205 -0.4658 -3.4096  2.4913
15867TIP3   OH269015   2.669   3.214  11.378 -0.5785 -0.5840  0.6487
15867TIP3    H169016   2.763   3.212  11.398 -0.3073 -1.2034 -0.5885
15867TIP3    H269017   2.663   3.270  11.300 -1.1815 -0.9019  0.4654
15868TIP3   OH269018   0.397   4.475   1.700  0.2950 -0.0067 -0.2020
15868TIP3    H169019   0.479   4.515   1.727 -0.4546  1.3715  0.0949
15868TIP3    H269020   0.402   4.385   1.733  1.8636 -0.0756 -0.5924
15869TIP3   OH269021   2.713   2.519  12.708  0.2362 -0.2365 -0.2205
15869TIP3    H169022   2.726   2.427  12.686  0.2404 -0.1728 -0.4840
15869TIP3    H269023   2.750   2.528  12.796 -2.6338 -1.2079  1.1553
15870TIP3   OH269024   6.784   1.565   0.741 -0.0893  0.3794  0.4118
15870TIP3    H169025   6.838   1.570   0.663  0.3388 -1.4670  0.5680
15870TIP3    H269026   6.708   1.620   0.721  1.4149  2.3226 -0.1205
15871TIP3   OH269027   0.832   2.019  13.747  0.2367 -0.0089  0.5642
15871TIP3    H169028   0.909   1.991  13.797  0.6614  1.4171  0.7232
15871TIP3    H269029   0.862   2.095  13.697 -0.7871 -0.0943 -0.1842
15872TIP3   OH269030   2.609   2.679  14.635 -0.0563  0.6629 -0.3421
15872TIP3    H169031   2.622   2.629  14.555  0.6531 -2.2612  1.5205
15872TIP3    H269032   2.633   2.618  14.706 -2.6493  2.4584  2.1911
15873TIP3   OH269033   1.398   0.496   5.554  0.0789 -0.3418  0.0437
15873TIP3    H169034   1.443   0.431   5.609 -1.5275 -0.9012  0.7236
15873TIP3    H269035   1.433   0.580   5.583  1.0084 -0.7944  0.2612
15874TIP3   OH269036   2.086   1.138   0.139 -0.5041 -0.7549 -0.7146
15874TIP3    H169037   2.125   1.106   0.220 -0.2591 -2.0666 -1.3458
15874TIP3    H269038   2.161   1.164   0.085 -0.6408 -0.4637 -0.7689
15875TIP3   OH269039   0.567   2.900   3.098  0.0424 -0.3859 -0.1033
15875TIP3    H169040   0.644   2.865   3.054  0.2473  0.0891 -0.1179
15875TIP3    H269041   0.533   2.826   3.149  0.9970 -0.3656  0.5793
15876TIP3   OH269042   3.819   2.537   3.765  0.2433  0.0517 -0.0098
15876TIP3    H169043   3.787   2.541   3.675 -1.0752  2.7519  0.5487
15876TIP3    H269044   3.907   2.574   3.761 -1.9140  5.6272  0.6628
15877TIP3   OH269045   2.268   6.620  14.467 -0.2216 -0.4321 -0.0025
15877TIP3    H169046   2.241   6.536  14.431 -1.5702 -0.4161  0.9557
15877TIP3    H269047   2.216   6.685  14.419 -3.0086 -0.4886  2.7932
15878TIP3   OH269048   4.648   6.537   5.671  0.3030  0.1553 -0.0165
15878TIP3    H169049   4.622   6.621   5.709 -1.3537  0.4142 -1.6415
15878TIP3    H269050   4.572   6.480   5.683 -0.4237  0.3631 -3.2539
15879TIP3   OH269051   6.424   3.966   4.800  0.0949 -0.1468  0.3992
15879TIP3    H169052   6.400   3.980   4.891  1.0771  1.3294  0.4451
15879TIP3    H269053   6.512   4.002   4.792  0.0710 -0.3603 -1.1154
15880TIP3   OH269054   5.856   2.481  15.679  0.0081 -0.5759  0.1044
15880TIP3    H169055   5.893   2.436  15.755  1.3826  0.0175 -0.2064
15880TIP3    H269056   5.824   2.411  15.622  1.6957 -1.1377 -0.1611
15881TIP3   OH269057   1.983   0.603  14.435 -0.9094  0.1084 -0.3326
15881TIP3    H169058   2.047   0.534  14.456 -2.5883 -1.2167  0.5932
15881TIP3    H269059   2.033   0.684  14.440  0.1392 -0.6603  3.0201
15882TIP3   OH269060   6.678   3.212  16.419 -0.3189  0.1787  0.0891
15882TIP3    H169061   6.679   3.177  16.508  0.2732 -1.3061 -0.4949
15882TIP3    H269062   6.660   3.305  16.431  0.0824  0.0590  1.7891
15883TIP3   OH269063   2.824   0.622  12.523  0.1055  0.3999  0.2303
15883TIP3    H169064   2.828   0.632  12.618 -1.4678 -0.5629  0.4234
15883TIP3    H269065   2.779   0.701  12.492  0.2564  0.5218  0.3206
15884TIP3   OH269066   0.960   1.950   6.120 -0.4603 -0.1186 -1.0015
15884TIP3    H169067   1.004   1.896   6.186 -1.4372  1.5115  1.0500
15884TIP3    H269068   0.904   1.888   6.073 -2.8437 -0.6798  2.4009
15885TIP3   OH269069   5.968   1.230   5.829 -0.4208  0.1926  0.0909
15885TIP3    H169070   5.958   1.281   5.909 -0.8225 -0.2384  0.3163
15885TIP3    H269071   6.045   1.174   5.845 -0.5396  0.0607  0.2002
15886TIP3   OH269072   4.023   4.318  14.891 -0.7487 -0.4663  0.0190
15886TIP3    H169073   3.980   4.237  14.916 -0.9216  0.0653  1.4838
15886TIP3    H269074   4.052   4.357  14.973  2.3829 -0.6997 -0.8838
15887TIP3   OH269075   6.189   2.346  10.953  0.3227 -0.1989 -1.0881
15887TIP3    H169076   6.134   2.279  10.994  0.6826 -0.3914 -0.9205
15887TIP3    H269077   6.186   2.326  10.859  0.2511 -0.3150 -1.0614
15888TIP3   OH269078   5.034   1.296   5.246 -0.4241 -0.5431 -0.0006
15888TIP3    H169079   4.953   1.249   5.266 -0.7445 -0.4330 -1.0295
15888TIP3    H269080   5.007   1.388   5.239 -0.2732 -0.5549 -0.7273
15889TIP3   OH269081   1.495   0.115  17.033  0.0674  0.6147 -0.0952
15889TIP3    H169082   1.505   0.026  17.000 -0.2855  0.9256 -1.0588
15889TIP3    H269083   1.437   0.158  16.970  0.4088  1.5838  0.2331
15890TIP3   OH269084   6.179   3.208   2.432 -0.0439 -0.5833  0.0473
15890TIP3    H169085   6.263   3.204   2.388  0.9457 -2.3200  2.0014
15890TIP3    H269086   6.131   3.131   2.401 -0.4030 -0.3297 -0.0416
15891TIP3   OH269087   5.354   2.369  11.056  0.1512  0.1288  0.0218
15891TIP3    H169088   5.334   2.335  10.968  0.9440  0.3373 -0.2429
15891TIP3    H269089   5.370   2.462  11.042 -1.9913  0.6260  0.7460
15892TIP3   OH269090   2.276   4.348   5.147 -0.0413  0.8358 -0.0492
15892TIP3    H169091   2.306   4.271   5.197 -0.1457  0.9634  0.2130
15892TIP3    H269092   2.182   4.334   5.137 -0.1815  1.2889  0.6303
15893TIP3   OH269093   2.647   3.417   4.201  0.0920  0.4503  0.3184
15893TIP3    H169094   2.593   3.378   4.269 -2.2413  0.6980 -1.3389
15893TIP3    H269095   2.658   3.508   4.228 -1.1418  0.6441  0.1825
15894TIP3   OH269096   0.363   6.420  14.210  0.1006  0.2117  0.1642
15894TIP3    H169097   0.456   6.408  14.190 -0.4265 -0.4018 -2.0080
15894TIP3    H269098   0.353   6.387  14.300  2.0420  0.7075  0.5896
15895TIP3   OH269099   2.126   0.547  12.994 -0.2495  0.5695  0.0755
15895TIP3    H169100   2.084   0.603  12.929  0.5710  1.5603  0.3846
15895TIP3    H269101   2.210   0.589  13.010 -0.0132 -0.2550  0.9986
15896TIP3   OH269102   0.094   6.369   5.426  0.0806 -0.1350  0.5671
15896TIP3    H169103   0.178   6.329   5.446 -0.1603 -0.6594  0.5249
15896TIP3    H269104   0.049   6.305   5.371 -0.2530  0.2441  0.3989
15897TIP3   OH269105   1.749   4.930   4.204 -0.8483 -0.0491  0.3110
15897TIP3    H169106   1.737   4.836   4.214 -0.1431 -0.2019 -0.2419
15897TIP3    H269107   1.822   4.952   4.262 -1.6847  0.3337  1.2241
15898TIP3   OH269108   4.180   0.102  17.230 -0.3239 -0.5156  0.2780
15898TIP3    H169109   4.246   0.050  17.276 -0.6475  0.4556  1.8925
15898TIP3    H269110   4.120   0.132  17.299 -0.9466  0.8140 -0.8009
15899TIP3   OH269111   5.553   0.718   5.607  0.1909  0.0782  0.8265
15899TIP3    H169112   5.540   0.627   5.581  1.0944  0.4679 -1.1149
15899TIP3    H269113   5.485   0.766   5.560  0.5278  0.5570  0.8235
15900TIP3   OH269114   0.038   3.448  16.469 -0.3542  0.5133  0.0346
15900TIP3    H169115   0.025   3.463  16.563 -0.1512 -0.9381  0.2955
15900TIP3    H269116   0.127   3.414  16.462 -0.5695  0.0932 -0.6290
15901TIP3   OH269117   0.762   1.336   1.859  0.4146  0.0420  0.2376
15901TIP3    H169118   0.766   1.290   1.943  1.2356 -1.2223 -0.4866
15901TIP3    H269119   0.721   1.274   1.799  3.4894 -0.6241 -1.2692
15902TIP3   OH269120   2.048   3.675  14.339  0.8399  0.1875 -0.0832
15902TIP3    H169121   2.070   3.642  14.426  0.8451 -0.2991 -0.2674
15902TIP3    H269122   2.088   3.762  14.336  1.1205  0.0738  0.2786
15903TIP3   OH269123   4.245   3.805  12.402  0.0833  0.7534 -0.1822
15903TIP3    H169124   4.289   3.852  12.473 -0.1123 -0.2949  0.6636
15903TIP3    H269125   4.250   3.713  12.429 -0.7866  0.4312 -1.1011
15904TIP3   OH269126   6.199   3.078  14.752 -0.2994 -0.2658  0.3526
15904TIP3    H169127   6.208   2.996  14.800  0.9224 -1.3138 -1.5774
15904TIP3    H269128   6.261   3.138  14.794  1.2388 -1.3701 -0.2946
15905TIP3   OH269129   4.160   4.601   5.500 -0.6225  0.1485  0.1221
15905TIP3    H169130   4.197   4.630   5.417  0.5537 -0.1874  0.5259
15905TIP3    H269131   4.218   4.531   5.530 -2.8621 -1.9722 -0.3440
15906TIP3   OH269132   4.684   2.932   3.575  0.0958  0.8259  0.0507
15906TIP3    H169133   4.597   2.972   3.582  0.3844  1.3747  0.6061
15906TIP3    H269134   4.728   2.983   3.507  0.3178  1.1842  0.4596
15907TIP3   OH269135   4.128   5.310   2.787 -0.0187  0.2767  0.4440
15907TIP3    H169136   4.118   5.403   2.764 -1.3496  0.6914  2.5752
15907TIP3    H269137   4.223   5.296   2.785  0.1833  1.6134 -0.1610
15908TIP3   OH269138   5.244   0.969   0.202  0.0978  0.2960 -0.4338
15908TIP3    H169139   5.234   0.874   0.208 -0.0984  0.3748  0.6314
15908TIP3    H269140   5.270   0.996   0.290 -1.7224  1.4583 -0.2198
15909TIP3   OH269141   0.725   5.450   2.658  0.0499 -0.8656 -0.2978
15909TIP3    H169142   0.681   5.370   2.686 -0.9508 -0.1641  0.1908
15909TIP3    H269143   0.812   5.445   2.698 -0.5478 -0.9900  1.0306
15910TIP3   OH269144   6.070   0.223  16.201  0.3284 -0.0421 -0.6773
15910TIP3    H169145   6.125   0.220  16.280 -0.2900  0.7483 -0.2046
15910TIP3    H269146   5.988   0.261  16.231 -0.1034 -0.2422 -1.6037
15911TIP3   OH269147   2.241   6.685   2.879  0.2416  0.4634  0.1283
15911TIP3    H169148   2.319   6.631   2.890  0.0809 -0.0538 -1.2709
15911TIP3    H269149   2.272   6.763   2.834 -0.2542 -0.2838 -1.5378
15912TIP3   OH269150   3.443   5.930   3.873  0.5857 -0.0981  0.2259
15912TIP3    H169151   3.422   5.993   3.803 -0.3466 -0.7771 -0.1211
15912TIP3    H269152   3.372   5.866   3.869  0.5051 -0.1146  1.8414
15913TIP3   OH269153   5.482   1.232  15.920  0.4611 -0.1007  0.0882
15913TIP3    H169154   5.421   1.248  15.848 -0.5219 -1.9993  0.4649
15913TIP3    H269155   5.429   1.242  15.999  1.6508  2.5020  0.6077
15914TIP3   OH269156   1.307   6.189  12.509 -0.3396 -0.0627 -0.4986
15914TIP3    H169157   1.325   6.113  12.564 -1.1253 -0.5027 -0.8399
15914TIP3    H269158   1.387   6.242  12.513  1.0408 -1.9735 -1.9772
15915TIP3   OH269159   1.488   3.018  12.452  0.1699 -0.4276 -0.3919
15915TIP3    H169160   1.528   3.105  12.454 -0.4263 -0.1738  0.4429
15915TIP3    H269161   1.453   3.011  12.363 -1.2798  0.8782  0.0521
15916TIP3   OH269162   4.790   3.218  13.133  0.9552 -0.3961 -0.1285
15916TIP3    H169163   4.829   3.301  13.105  1.1997 -0.5400 -0.2093
15916TIP3    H269164   4.859   3.153  13.121  0.7987 -0.5947  0.0406
15917TIP3   OH269165   5.175   3.454   4.835 -0.2613  0.7820 -0.0740
15917TIP3    H169166   5.111   3.518   4.868  0.3883  1.1054  0.5655
15917TIP3    H269167   5.218   3.499   4.762  1.3361  1.7109  1.4028
15918TIP3   OH269168   6.469   4.147  15.781  0.2633  0.3440 -0.0537
15918TIP3    H169169   6.425   4.186  15.705 -0.4341  0.3833  0.3657
15918TIP3    H269170   6.531   4.086  15.743  2.8334  3.2926 -0.8051
15919TIP3   OH269171   0.283   5.936  16.398 -0.2443  0.2975  0.3810
15919TIP3    H169172   0.244   6.006  16.451 -0.7539  0.1789  0.1616
15919TIP3    H269173   0.356   5.978  16.353 -1.0902  0.9156 -0.4430
15920TIP3   OH269174   1.047   5.248  17.237 -0.0842  0.4646 -0.2870
15920TIP3    H169175   1.012   5.161  17.259 -0.2873  0.9142  1.2369
15920TIP3    H269176   1.131   5.231  17.196  0.7317 -0.3981  1.7008
15921TIP3   OH269177   2.701   3.213   3.510 -0.0009 -0.0724 -0.1412
15921TIP3    H169178   2.646   3.201   3.432  1.3868 -0.8276 -1.0157
15921TIP3    H269179   2.646   3.264   3.569 -1.1803  0.2849 -1.5006
15922TIP3   OH269180   0.594   1.668   4.095  0.3118  0.2444 -0.0443
15922TIP3    H169181   0.550   1.741   4.139  2.0580  0.9913  0.5198
15922TIP3    H269182   0.553   1.590   4.132 -2.6793  0.9073 -1.8106
15923TIP3   OH269183   5.002   1.847   0.290 -0.0955 -0.0697  0.3392
15923TIP3    H169184   5.059   1.786   0.244 -0.6363  0.0650 -0.5284
15923TIP3    H269185   5.054   1.927   0.298 -0.0399 -0.0595 -0.1353
15924TIP3   OH269186   6.508   3.705   4.570 -0.3770 -0.4052 -0.1570
15924TIP3    H169187   6.468   3.707   4.657  1.7377  0.1718  0.8346
15924TIP3    H269188   6.577   3.639   4.577  1.1521  1.0973 -0.7807
15925TIP3   OH269189   1.089   0.093   0.016  0.3213 -0.5171  0.2107
15925TIP3    H169190   1.108   0.146  -0.061  1.5138 -0.7701  0.3229
15925TIP3    H269191   1.125   0.143   0.089  0.5153 -0.9809  0.4327
15926TIP3   OH269192   3.158   3.766  13.950 -0.5838 -0.4947 -1.3058
15926TIP3    H169193   3.123   3.839  13.899 -1.2137 -0.4683 -0.8508
15926TIP3    H269194   3.252   3.769  13.935 -0.3961  1.5037  0.1050
15927TIP3   OH269195   2.140   1.295  16.752  0.0882  0.2050 -0.3321
15927TIP3    H169196   2.231   1.264  16.760  0.7348  2.0781 -0.0810
15927TIP3    H269197   2.129   1.312  16.659 -0.7142 -1.9825 -0.6791
15928TIP3   OH269198   3.542   5.115   3.778  0.0030 -0.2402 -0.3069
15928TIP3    H169199   3.585   5.137   3.860  0.7484 -0.3860 -0.6500
15928TIP3    H269200   3.550   5.020   3.770  1.3263 -0.0603 -1.2979
15929TIP3   OH269201   4.557   2.458   0.526  0.2365 -0.3385  0.0019
15929TIP3    H169202   4.549   2.381   0.583 -0.6791 -0.1075  0.1897
15929TIP3    H269203   4.475   2.506   0.538  0.1218 -0.1741 -1.3539
15930TIP3   OH269204   4.784   1.130  12.769  0.7399 -0.7262  0.2066
15930TIP3    H169205   4.834   1.102  12.845 -1.6826  0.9197  2.5038
15930TIP3    H269206   4.787   1.226  12.773 -1.4985 -0.6061 -0.3047
15931TIP3   OH269207   0.877   2.962  12.663 -0.3507  0.2623 -0.3210
15931TIP3    H169208   0.842   3.041  12.623 -1.0163  0.0346 -0.1909
15931TIP3    H269209   0.803   2.923  12.710  0.0137 -0.3375 -0.2292
15932TIP3   OH269210   4.748   1.853   0.171  0.0890  0.6817 -0.3471
15932TIP3    H169211   4.825   1.830   0.223 -1.1115  0.8134  1.5317
15932TIP3    H269212   4.762   1.944   0.146  0.0896  1.0155  0.8448
15933TIP3   OH269213   4.704   4.787  15.339  0.5154  0.2047 -0.1191
15933TIP3    H169214   4.658   4.817  15.260  0.2691 -1.0266 -0.4655
15933TIP3    H269215   4.744   4.704  15.312  1.9124  0.6368  0.5466
15934TIP3   OH269216   2.459   6.754  12.928  0.1901 -0.4331  0.4110
15934TIP3    H169217   2.461   6.679  12.869  2.9830 -2.1304  2.5113
15934TIP3    H269218   2.368   6.758  12.959 -0.7636 -0.8907 -2.1624
15935TIP3   OH269219   0.378   2.136  15.788  0.5079  0.1141  0.3971
15935TIP3    H169220   0.284   2.122  15.781  0.8570 -1.0298 -2.7201
15935TIP3    H269221   0.390   2.228  15.766  0.1031  0.3299  1.0632
15936TIP3   OH269222   2.409   4.759   1.797 -0.2931  0.1141 -0.1776
15936TIP3    H169223   2.421   4.669   1.828 -3.1930  0.1338  1.1755
15936TIP3    H269224   2.432   4.813   1.873 -5.1524  0.2263  1.4194
15937TIP3   OH269225   4.555   1.901  11.741  0.6303 -0.0335 -0.1235
15937TIP3    H169226   4.473   1.949  11.745 -0.0695 -1.0728 -1.5548
15937TIP3    H269227   4.582   1.892  11.833  0.8089  3.0477  0.1802
15938TIP3   OH269228   0.787   6.061  16.049  0.7422  0.2826 -0.2471
15938TIP3    H169229   0.772   6.095  16.138  1.2235 -0.1462 -0.0031
15938TIP3    H269230   0.823   5.974  16.062 -1.8893 -0.9587 -0.8906
15939TIP3   OH269231   4.760   2.979   6.006  0.0234  0.0837 -0.4696
15939TIP3    H169232   4.851   2.950   5.997 -0.0845  0.1264 -1.8628
15939TIP3    H269233   4.711   2.919   5.949 -0.6660  0.7634 -0.5950
15940TIP3   OH269234   3.081   4.465   0.717 -0.1756 -0.3890  0.2106
15940TIP3    H169235   3.085   4.384   0.766  0.9825  0.7616  2.0673
15940TIP3    H269236   3.156   4.516   0.748 -0.8578  1.3776 -0.9493
15941TIP3   OH269237   1.135   2.915   0.289  0.0348  0.4191 -0.0364
15941TIP3    H169238   1.227   2.942   0.297 -0.0065  0.7682 -0.7438
15941TIP3    H269239   1.124   2.848   0.357  0.2922  1.7395  1.3364
15942TIP3   OH269240   3.022   3.694   3.005  0.2103  0.3769 -1.1670
15942TIP3    H169241   3.063   3.626   3.059  0.3131 -0.3235 -2.1009
15942TIP3    H269242   3.090   3.760   2.994  0.1970  0.5152 -0.4702
15943TIP3   OH269243   0.563   6.053   1.562 -0.6551 -0.1798 -0.5337
15943TIP3    H169244   0.478   6.019   1.533 -0.0432 -3.0440  0.8579
15943TIP3    H269245   0.582   6.004   1.642  1.6127  1.5262  0.0131
15944TIP3   OH269246   4.035   2.551   6.155  0.3427 -0.1655  0.0106
15944TIP3    H169247   4.120   2.586   6.128  0.6420 -0.5093  0.4854
15944TIP3    H269248   3.972   2.621   6.135  1.0933  1.1669  2.1076
15945TIP3   OH269249   2.556   4.921   0.625 -0.2469  0.2303  0.3726
15945TIP3    H169250   2.483   4.859   0.619 -0.2243  0.3365 -1.3662
15945TIP3    H269251   2.520   5.004   0.595  0.3386  0.5018  0.4077
15946TIP3   OH269252   2.307   4.627  12.505 -0.1481  0.2031  0.2300
15946TIP3    H169253   2.373   4.693  12.483 -0.7340  1.5699  2.4043
15946TIP3    H269254   2.266   4.660  12.585 -4.2977 -0.0187 -1.6700
15947TIP3   OH269255   2.909   2.558  16.239 -0.1074 -1.0450  1.0062
15947TIP3    H169256   2.983   2.581  16.182 -0.8798 -0.4960  0.2000
15947TIP3    H269257   2.923   2.466  16.261  1.5482 -0.5818  1.9978
15948TIP3   OH269258   4.064   5.435  16.236 -0.4572  0.3075 -0.3639
15948TIP3    H169259   4.128   5.480  16.292 -2.0180  2.3107 -0.1405
15948TIP3    H269260   4.018   5.376  16.296  1.1189 -1.1224 -0.5177
15949TIP3   OH269261   3.948   1.976  16.456 -0.5017  0.6153 -0.0683
15949TIP3    H169262   3.856   1.971  16.482 -0.2873 -2.5432  0.3457
15949TIP3    H269263   3.954   1.923  16.377  0.7942  1.5848 -0.6366
15950TIP3   OH269264   0.442   6.000  14.220  0.6411  0.3156  0.1778
15950TIP3    H169265   0.349   5.995  14.199  0.2056  1.8705  1.6093
15950TIP3    H269266   0.486   6.002  14.135 -0.3890 -3.6112 -0.5688
15951TIP3   OH269267   1.239   2.653   5.468  0.1642 -0.5167 -0.1242
15951TIP3    H169268   1.224   2.642   5.562 -1.9550 -1.4700 -0.5439
15951TIP3    H269269   1.249   2.747   5.456  3.0270 -0.5719  1.3860
15952TIP3   OH269270   5.976   2.067   3.031  0.3367 -0.1453 -0.2329
15952TIP3    H169271   5.968   2.153   2.989 -0.6077 -0.7030 -1.2247
15952TIP3    H269272   5.912   2.012   2.985  1.4972 -1.5924 -0.1621
15953TIP3   OH269273   3.449   5.620  17.179 -0.0575 -0.4170  0.0545
15953TIP3    H169274   3.439   5.714  17.165  2.8372 -0.0085  0.3980
15953TIP3    H269275   3.433   5.607  17.272 -1.3454 -0.4332 -0.1542
15954TIP3   OH269276   3.373   4.769   2.575  0.2006 -0.1121  0.4646
15954TIP3    H169277   3.362   4.849   2.626  0.3961  0.3010 -0.1314
15954TIP3    H269278   3.292   4.721   2.587  0.5686 -0.3990  1.8217
15955TIP3   OH269279   6.433   2.323  14.783  0.8583  0.1203  0.0230
15955TIP3    H169280   6.435   2.390  14.852 -0.3109  0.6564 -0.4589
15955TIP3    H269281   6.448   2.240  14.830 -1.0170  0.3503  1.0908
15956TIP3   OH269282   4.578   0.400  13.286 -0.2089  0.5947  0.0940
15956TIP3    H169283   4.612   0.318  13.321 -0.7948 -0.5535 -1.9291
15956TIP3    H269284   4.578   0.387  13.191  0.2773  3.1741 -0.3095
15957TIP3   OH269285   2.868   0.713  14.929 -0.1885 -0.0075  0.1707
15957TIP3    H169286   2.836   0.787  14.877 -0.3152  0.4397  0.8779
15957TIP3    H269287   2.892   0.751  15.013  0.3180 -0.6760  0.3353
15958TIP3   OH269288   0.342   4.942   5.949 -0.6443  0.2058 -0.2728
15958TIP3    H169289   0.279   5.006   5.980 -1.5353  0.6756 -2.8777
15958TIP3    H269290   0.426   4.987   5.952 -0.5823 -0.0025  2.0144
15959TIP3   OH269291   0.482   1.339  13.407  0.6583  0.5306 -0.1838
15959TIP3    H169292   0.407   1.320  13.463 -0.0522 -0.8630 -1.5709
15959TIP3    H269293   0.533   1.258  13.407  0.9805  0.7295 -1.0246
15960TIP3   OH269294   3.021   5.991  11.535 -0.0135  0.2118 -0.6297
15960TIP3    H169295   3.018   5.932  11.610  1.1476 -1.3110 -1.7436
15960TIP3    H269296   2.961   5.953  11.471  0.6347  0.3055 -1.3043
15961TIP3   OH269297   0.695   2.976  11.148 -0.1616 -0.0925  0.2771
15961TIP3    H169298   0.633   3.046  11.165 -0.5272 -0.7721  1.8079
15961TIP3    H269299   0.740   3.002  11.067 -1.5449  1.0135 -0.1382
15962TIP3   OH269300   1.361   5.341  15.772  0.7883 -0.5422 -0.0107
15962TIP3    H169301   1.287   5.284  15.792  1.0950 -1.5415 -1.6455
15962TIP3    H269302   1.421   5.328  15.845  1.0203 -2.6313 -0.5430
15963TIP3   OH269303   5.954   2.284  12.731 -0.2011  0.2559 -0.6228
15963TIP3    H169304   6.033   2.267  12.679  0.6320  0.6300  0.4991
15963TIP3    H269305   5.934   2.376  12.714 -0.4651  0.1353 -0.9841
15964TIP3   OH269306   4.426   1.648  11.791 -0.0794  0.1694 -0.2539
15964TIP3    H169307   4.463   1.736  11.787  0.7490 -0.1768 -0.3661
15964TIP3    H269308   4.341   1.655  11.747 -1.0220  1.3971  1.6905
15965TIP3   OH269309   5.962   3.761   1.007  0.3770 -0.1142  0.3527
15965TIP3    H169310   6.049   3.736   0.978  0.9889  0.0143  1.9882
15965TIP3    H269311   5.952   3.718   1.092 -1.0920  0.0064  0.2554
15966TIP3   OH269312   0.495   2.196  10.997  0.2962  0.1289 -0.7365
15966TIP3    H169313   0.546   2.167  11.073  1.0608  3.3619  0.0539
15966TIP3    H269314   0.561   2.228  10.935 -0.5313  0.4138 -1.4691
15967TIP3   OH269315   4.410   3.244  14.037  0.3745  0.2364  0.5004
15967TIP3    H169316   4.390   3.181  13.968 -0.0285 -1.4622  2.1249
15967TIP3    H269317   4.406   3.330  13.994  0.1360 -0.7954 -1.5626
15968TIP3   OH269318   6.104   4.458  11.806  0.5001  0.6810 -0.1306
15968TIP3    H169319   6.067   4.520  11.868 -0.7270  0.7642 -0.9367
15968TIP3    H269320   6.092   4.499  11.721 -0.0630 -0.5150 -0.6421
15969TIP3   OH269321   0.983   6.418   6.560  0.5573  0.3435  0.1707
15969TIP3    H169322   1.071   6.441   6.590  0.2504  0.2933  1.1178
15969TIP3    H269323   0.926   6.436   6.635 -0.4694  1.8403 -0.9301
15970TIP3   OH269324   0.057   0.209   4.650  0.1176 -0.3247  0.4838
15970TIP3    H169325   0.124   0.197   4.716 -0.5738  0.6892  1.3897
15970TIP3    H269326   0.100   0.259   4.581  0.9450 -1.7120 -0.0177
15971TIP3   OH269327   3.241   0.945  16.920 -0.3775 -0.2859  0.3656
15971TIP3    H169328   3.239   0.851  16.900 -1.5140  0.1521 -1.7472
15971TIP3    H269329   3.152   0.975  16.902  0.5242  1.6049 -1.1581
15972TIP3   OH269330   4.403   5.524  11.555 -0.1637 -0.4571 -0.1930
15972TIP3    H169331   4.376   5.432  11.563 -1.4559  0.0495  1.7794
15972TIP3    H269332   4.331   5.566  11.508  1.5573 -0.8992 -3.3205
15973TIP3   OH269333   0.556   4.304  14.910 -0.1134 -0.2359 -0.0382
15973TIP3    H169334   0.632   4.330  14.962  0.0512 -0.4091 -0.1882
15973TIP3    H269335   0.548   4.210  14.925  0.1566 -0.3537 -0.6086
15974TIP3   OH269336   3.257   1.133  13.980 -0.1616  0.5502 -0.0067
15974TIP3    H169337   3.308   1.171  14.052  1.0705 -0.6029 -0.2531
15974TIP3    H269338   3.308   1.153  13.902 -0.9390  0.8333 -0.4513
15975TIP3   OH269339   2.340   0.003   5.864 -0.2885  0.6451  0.3249
15975TIP3    H169340   2.360  -0.075   5.814  0.0047  1.2063 -0.4396
15975TIP3    H269341   2.397  -0.003   5.942 -1.0674 -0.4400  0.8151
15976TIP3   OH269342   2.644   2.052   3.146  0.1931  0.2388  0.0395
15976TIP3    H169343   2.615   2.094   3.227 -0.4019 -0.1541  0.0332
15976TIP3    H269344   2.577   1.987   3.127 -0.3040  1.1263 -1.4001
15977TIP3   OH269345   6.748   6.310   4.417 -0.8352  0.0776 -0.4060
15977TIP3    H169346   6.666   6.295   4.370 -1.4864 -0.1286  0.7883
15977TIP3    H269347   6.744   6.402   4.443 -0.4072  0.2307 -0.8590
15978TIP3   OH269348   2.109   6.642   3.179  0.9987 -0.4631 -0.4100
15978TIP3    H169349   2.182   6.591   3.143  2.1480  1.0138 -0.1993
15978TIP3    H269350   2.094   6.711   3.114 -0.1301 -0.6898 -0.3950
15979TIP3   OH269351   6.025   4.199   6.063 -0.0692 -0.1046 -0.4148
15979TIP3    H169352   6.059   4.112   6.082 -2.3006 -0.5883  1.6271
15979TIP3    H269353   6.073   4.257   6.123  1.0107  0.0156 -1.3785
15980TIP3   OH269354   4.061   5.097  15.436  0.4050 -0.0663  0.2316
15980TIP3    H169355   4.040   5.034  15.505  0.4788 -0.5332 -0.1726
15980TIP3    H269356   4.121   5.159  15.478  2.4192 -1.7515 -0.0966
15981TIP3   OH269357   2.283   1.578  12.178  0.6766  0.4400  0.2458
15981TIP3    H169358   2.244   1.565  12.264  1.4792  2.0280  0.8555
15981TIP3    H269359   2.299   1.489  12.146 -4.4155 -0.3893 -0.5094
15982TIP3   OH269360   2.690   2.859  11.424 -0.3660 -0.0662  0.0630
15982TIP3    H169361   2.678   2.954  11.425  0.1898  0.0015  1.5506
15982TIP3    H269362   2.676   2.832  11.515  1.0283 -1.1929 -0.0414
15983TIP3   OH269363   0.633   5.281   4.753 -0.2131  0.2696 -0.3479
15983TIP3    H169364   0.657   5.279   4.660 -0.4512  0.3708 -0.4132
15983TIP3    H269365   0.704   5.234   4.797  0.3281  0.9364 -0.4884
15984TIP3   OH269366   4.238   2.327  16.132 -0.0436 -0.0173 -0.1520
15984TIP3    H169367   4.326   2.360  16.118 -0.7361  1.4393 -1.1571
15984TIP3    H269368   4.217   2.278  16.053 -0.4500  0.3570 -0.2776
15985TIP3   OH269369   1.489   2.564  14.861 -0.4959  0.0717  0.4018
15985TIP3    H169370   1.447   2.615  14.791 -0.0301  0.0397  0.0958
15985TIP3    H269371   1.500   2.476  14.824  0.2950  0.2093  0.2957
15986TIP3   OH269372   2.282   3.284  16.646  0.2641 -0.3470 -0.0016
15986TIP3    H169373   2.277   3.344  16.571 -0.7730  0.6082  0.8158
15986TIP3    H269374   2.194   3.283  16.682  0.3667 -2.0901  0.2341
15987TIP3   OH269375   5.795   2.504  15.999  0.3195 -0.2099  0.1033
15987TIP3    H169376   5.753   2.540  16.077  0.3592 -0.2609  0.1491
15987TIP3    H269377   5.722   2.476  15.943  0.3009 -0.8305  0.4296
15988TIP3   OH269378   2.597   1.393  13.129 -0.2019 -0.0277 -0.4417
15988TIP3    H169379   2.594   1.423  13.220 -1.5103 -3.1380  0.5987
15988TIP3    H269380   2.680   1.428  13.095 -0.0317  1.7522  1.7056
15989TIP3   OH269381   5.303   2.830   4.441  0.0745 -0.3341  0.5436
15989TIP3    H169382   5.303   2.750   4.387  0.8709 -0.0949  0.1820
15989TIP3    H269383   5.213   2.838   4.472  0.1529 -1.7876  1.1918
15990TIP3   OH269384   3.038   4.039  15.350  0.3525  0.5000  0.2623
15990TIP3    H169385   3.047   3.971  15.284 -1.8071 -0.2183  0.6605
15990TIP3    H269386   2.945   4.036  15.374  1.0090  1.0782  2.9620
15991TIP3   OH269387   5.238   3.969  14.894 -0.4280  0.4388 -0.2802
15991TIP3    H169388   5.180   3.986  14.820 -0.2383 -0.8666 -0.7425
15991TIP3    H269389   5.187   3.995  14.971 -1.2447  0.2500 -0.7495
15992TIP3   OH269390   5.478   5.310  15.490 -0.2659 -0.2520 -0.5391
15992TIP3    H169391   5.429   5.267  15.420 -0.8425 -1.9548  0.8721
15992TIP3    H269392   5.412   5.333  15.556  0.3442  0.8047 -0.2739
15993TIP3   OH269393   3.999   4.288   4.461  0.7649  0.3770  0.0562
15993TIP3    H169394   3.961   4.338   4.532  1.8521  0.2878  0.7154
15993TIP3    H269395   4.094   4.291   4.477  0.8919 -1.3215 -0.2548
15994TIP3   OH269396   0.130   0.468   0.626  0.9136  0.7005  0.5626
15994TIP3    H169397   0.197   0.517   0.674 -1.6950  2.2276  2.7719
15994TIP3    H269398   0.088   0.533   0.569 -1.0830  0.5959  1.8768
15995TIP3   OH269399   1.561   0.274  13.145  0.0903 -0.5825 -0.0763
15995TIP3    H169400   1.576   0.341  13.079  0.1348 -0.6829 -0.1677
15995TIP3    H269401   1.509   0.207  13.101  1.2504 -1.2849 -0.4048
15996TIP3   OH269402   1.178   5.960   1.866  0.3081 -0.4215 -0.1343
15996TIP3    H169403   1.242   5.960   1.937  0.0879  1.3882  0.0931
15996TIP3    H269404   1.149   6.051   1.860 -0.3553 -0.7329 -1.9341
15997TIP3   OH269405   0.124   3.569  15.529 -0.9711  0.7311  0.3733
15997TIP3    H169406   0.083   3.526  15.604 -1.0114 -1.1833 -0.6987
15997TIP3    H269407   0.060   3.635  15.502 -0.5787  2.0029  2.5174
15998TIP3   OH269408   5.397   0.463  13.202  0.3571  0.2048  0.3818
15998TIP3    H169409   5.413   0.557  13.201  0.6760  0.1467 -1.4347
15998TIP3    H269410   5.330   0.449  13.136  0.9531 -0.9406  0.0060
15999TIP3   OH269411   5.509   4.594   0.871 -0.1418 -0.2124  0.0458
15999TIP3    H169412   5.474   4.518   0.917 -0.8771 -0.2245 -0.5223
15999TIP3    H269413   5.604   4.586   0.880 -0.2427 -0.7075  0.7565
16000TIP3   OH269414   0.647   6.238  13.947 -0.0017 -0.1609 -0.0185
16000TIP3    H169415   0.559   6.214  13.919  0.4341 -0.3386 -1.2910
16000TIP3    H269416   0.644   6.334  13.954 -0.2725 -0.1562 -0.1698
16001TIP3   OH269417   3.683   1.523   3.310  0.2023 -0.1931  0.2474
16001TIP3    H169418   3.714   1.575   3.236 -1.1049 -0.1137 -0.2701
16001TIP3    H269419   3.616   1.465   3.272 -0.6926  0.0578  1.4182
16002TIP3   OH269420   4.392   0.178  10.357 -0.3375 -0.0733  0.0674
16002TIP3    H169421   4.357   0.177  10.446  0.9249 -1.0027  0.5659
16002TIP3    H269422   4.335   0.119  10.308  0.1122 -1.0653  0.7183
16003TIP3   OH269423   4.594   0.736  14.571  0.1867 -0.6797  0.1359
16003TIP3    H169424   4.566   0.680  14.499 -0.3351 -0.6937  0.3448
16003TIP3    H269425   4.677   0.699  14.600 -0.5844 -1.8862  0.8558
16004TIP3   OH269426   0.128   2.861  14.151 -0.0086 -0.1085 -0.6518
16004TIP3    H169427   0.037   2.887  14.164 -0.1224 -0.7545 -0.1600
16004TIP3    H269428   0.168   2.866  14.238 -0.0883 -1.8051 -0.5036
16005TIP3   OH269429   2.884   2.701  14.834 -0.2061 -0.4656  0.1253
16005TIP3    H169430   2.973   2.732  14.848  0.3856 -1.6600 -0.7971
16005TIP3    H269431   2.895   2.615  14.792 -1.7907 -0.2800 -0.7312
16006TIP3   OH269432   4.560   2.864   5.443 -0.2188 -0.4980  0.3498
16006TIP3    H169433   4.473   2.832   5.466 -0.1576 -1.7438 -1.0644
16006TIP3    H269434   4.614   2.785   5.437  0.1801 -0.0655 -2.1934
16007TIP3   OH269435   4.949   6.303  15.871 -0.5123 -0.1191  0.9304
16007TIP3    H169436   4.966   6.327  15.780 -1.2828 -1.4408  0.4180
16007TIP3    H269437   4.920   6.384  15.912  0.8415  0.7272  0.2720
16008TIP3   OH269438   1.211   3.175  16.644 -0.7296 -0.2576  0.3237
16008TIP3    H169439   1.198   3.183  16.549  0.5443 -0.9828  0.0722
16008TIP3    H269440   1.203   3.081  16.661 -0.7046 -0.1558  0.8978
16009TIP3   OH269441   2.185   6.005  14.227 -0.1008  0.6656 -0.0772
16009TIP3    H169442   2.216   5.922  14.263  1.9220  0.4747 -2.1690
16009TIP3    H269443   2.157   6.056  14.303  2.1160 -0.5153  1.5542
16010TIP3   OH269444   6.778   1.204  13.870 -0.5136 -0.1644  0.6701
16010TIP3    H169445   6.809   1.114  13.863  1.6216  0.6860 -1.3023
16010TIP3    H269446   6.683   1.197  13.868 -0.4211 -2.4757  2.1869
16011TIP3   OH269447   4.147   1.896   5.192  0.4633 -0.0003  0.2962
16011TIP3    H169448   4.111   1.932   5.273 -3.0070  1.5031 -1.8045
16011TIP3    H269449   4.133   1.964   5.126 -0.3312 -2.6257 -2.3828
16012TIP3   OH269450   2.686   6.094   3.368  0.6497 -0.1295  0.1426
16012TIP3    H169451   2.694   6.190   3.366  0.8848 -0.1717 -1.6328
16012TIP3    H269452   2.594   6.077   3.348  0.6404 -0.2788  0.3103
16013TIP3   OH269453   4.211   3.186   4.593  0.3584  0.0944  0.6624
16013TIP3    H169454   4.195   3.187   4.499  2.4886 -1.4307  0.2471
16013TIP3    H269455   4.290   3.239   4.604  0.8973 -0.8425  1.4096
16014TIP3   OH269456   4.114   4.988  16.010  0.5906 -0.0972 -0.2773
16014TIP3    H169457   4.127   5.022  16.099 -0.4822 -0.5994  0.0787
16014TIP3    H269458   4.033   5.030  15.980  0.1951 -0.9980 -0.4875
16015TIP3   OH269459   5.262   0.050  12.767 -0.0506  0.3650  0.2343
16015TIP3    H169460   5.321   0.021  12.837 -0.3544 -0.5272  0.1171
16015TIP3    H269461   5.235  -0.030  12.723 -0.1241  0.8940 -0.7052
16016TIP3   OH269462   0.391   4.550   2.097  0.1451 -0.3285  0.2631
16016TIP3    H169463   0.479   4.582   2.078 -1.1562  1.2706 -3.7575
16016TIP3    H269464   0.394   4.458   2.073  1.1368 -0.6725  1.6797
16017TIP3   OH269465   3.372   6.665  13.948 -0.1538  0.1590  0.1655
16017TIP3    H169466   3.282   6.634  13.944  0.2344 -0.7279 -2.7712
16017TIP3    H269467   3.418   6.600  14.002 -0.6585 -1.0362 -0.8265
16018TIP3   OH269468   6.683   5.728   4.853 -0.2744 -0.1442 -0.2365
16018TIP3    H169469   6.728   5.653   4.890  0.7878  1.3908  1.7027
16018TIP3    H269470   6.595   5.725   4.890 -0.2026 -0.3778 -0.0865
16019TIP3   OH269471   1.615   4.417  11.491  0.0674 -0.9732  0.3901
16019TIP3    H169472   1.660   4.494  11.456 -2.6066  0.6821  0.4807
16019TIP3    H269473   1.677   4.380  11.554  1.5028  0.9651  0.1597
16020TIP3   OH269474   5.051   6.518   3.978 -0.7411  0.5870 -0.1164
16020TIP3    H169475   4.975   6.461   3.972 -0.6792  0.2039  2.1653
16020TIP3    H269476   5.049   6.551   4.068  2.1987  0.0032  0.2176
16021TIP3   OH269477   6.133   6.286   3.521  0.4479 -0.1097 -1.1171
16021TIP3    H169478   6.129   6.217   3.454 -0.6970  0.3371 -1.5323
16021TIP3    H269479   6.110   6.366   3.473  0.2163  0.3015 -0.3169
16022TIP3   OH269480   2.959   3.973  17.041 -0.5177  0.3415  0.5589
16022TIP3    H169481   3.031   4.021  17.000  1.1459 -0.3028  2.6095
16022TIP3    H269482   2.971   3.988  17.135 -1.5333 -1.8784  1.0811
16023TIP3   OH269483   0.348   3.515  12.731  0.0081 -0.3330 -0.0791
16023TIP3    H169484   0.318   3.606  12.732 -0.6568 -0.5406 -0.9204
16023TIP3    H269485   0.326   3.483  12.644  0.1708 -1.3296  0.2380
16024TIP3   OH269486   3.941   1.527  11.625 -0.9333  0.1051  0.3285
16024TIP3    H169487   3.888   1.598  11.588 -1.5339 -0.8224 -0.6143
16024TIP3    H269488   3.998   1.499  11.553 -0.4187 -0.1103  0.8141
16025TIP3   OH269489   1.883   0.840   3.898 -0.1867  0.1263 -0.3985
16025TIP3    H169490   1.870   0.820   3.806 -0.0919  3.0317 -1.0845
16025TIP3    H269491   1.974   0.868   3.904 -0.0245 -0.5782  0.7160
16026TIP3   OH269492   2.535   1.927   0.368  0.9554 -0.5188 -0.2677
16026TIP3    H169493   2.618   1.918   0.414  0.6850  1.2694  0.6155
16026TIP3    H269494   2.536   2.017   0.334 -1.7626  0.4644  2.1048
16027TIP3   OH269495   3.603   4.536  13.315 -0.6057 -0.0693  0.4187
16027TIP3    H169496   3.640   4.622  13.335  0.5924 -0.0067 -1.8516
16027TIP3    H269497   3.624   4.482  13.391  1.3315  0.8694  0.5711
16028TIP3   OH269498   1.143   3.141  13.448  0.6328  0.4339 -0.3183
16028TIP3    H169499   1.165   3.067  13.505  1.0511  1.3032  0.6635
16028TIP3    H269500   1.221   3.196  13.449  0.5537  0.5783 -1.5453
16029TIP3   OH269501   5.173   4.613  16.606  0.6249 -0.5277  0.2171
16029TIP3    H169502   5.167   4.518  16.614 -1.5382 -0.1531  3.5008
16029TIP3    H269503   5.260   4.634  16.639  0.8045 -1.2770  0.2374
16030TIP3   OH269504   5.871   4.482   3.731 -0.0809 -0.3867  0.3434
16030TIP3    H169505   5.807   4.425   3.775 -0.3177 -1.4343 -1.3229
16030TIP3    H269506   5.948   4.426   3.721  0.1728  0.0365 -0.0342
16031TIP3   OH269507   2.041   1.193  16.265 -0.6826  0.8329 -0.0001
16031TIP3    H169508   1.992   1.154  16.193  0.7637 -0.2200 -0.4264
16031TIP3    H269509   2.045   1.125  16.332  0.3638  0.8639 -0.0361
16032TIP3   OH269510   3.654   0.072  14.139 -0.3508  0.5440  0.1041
16032TIP3    H169511   3.706   0.147  14.170 -0.7468  0.7986  0.1713
16032TIP3    H269512   3.576   0.112  14.100  0.1168  0.2128 -1.1752
16033TIP3   OH269513   5.411   2.037   1.860 -0.3063  0.2170 -0.6003
16033TIP3    H169514   5.458   2.107   1.905  2.9683 -1.6116 -1.0754
16033TIP3    H269515   5.426   1.959   1.914 -2.1340 -0.5991 -1.2211
16034TIP3   OH269516   0.527   2.479  16.472  0.4737  0.1248  0.1795
16034TIP3    H169517   0.592   2.409  16.476  1.5245  1.0000 -1.1276
16034TIP3    H269518   0.557   2.542  16.537 -1.0811 -1.1103  2.1455
16035TIP3   OH269519   5.388   4.535  11.945  0.2878  0.2991 -0.0130
16035TIP3    H169520   5.454   4.476  11.908 -0.2040  0.0720 -0.5234
16035TIP3    H269521   5.310   4.520  11.893 -1.2750 -2.0482  2.8728
16036TIP3   OH269522   3.139   2.109   0.169 -0.4201 -0.1593 -0.1000
16036TIP3    H169523   3.127   2.041   0.103 -1.2558  0.3560 -0.4891
16036TIP3    H269524   3.166   2.187   0.119 -3.1741  0.8352 -0.1207
16037TIP3   OH269525   4.386   5.781   3.903  0.1092  0.8540  0.0009
16037TIP3    H169526   4.309   5.809   3.854 -0.9052  0.9888  1.6356
16037TIP3    H269527   4.412   5.858   3.954  0.0673  0.2109  1.0203
16038TIP3   OH269528   6.177   1.718  11.758 -0.0214 -0.2573  0.6683
16038TIP3    H169529   6.166   1.631  11.720  1.4374 -0.6604  1.1066
16038TIP3    H269530   6.235   1.704  11.833  0.6818  1.1609  0.4178
16039TIP3   OH269531   2.641   1.225   5.793 -0.0631 -0.1377 -0.1763
16039TIP3    H169532   2.717   1.197   5.743  0.0505 -1.6224  0.7856
16039TIP3    H269533   2.571   1.165   5.767  0.3916 -1.9351  2.4911
16040TIP3   OH269534   4.220   0.171  11.935 -0.2205  0.1558 -0.4706
16040TIP3    H169535   4.206   0.164  11.841 -0.4823 -1.0943 -0.3528
16040TIP3    H269536   4.134   0.151  11.973  0.3992 -1.5795  0.0843
16041TIP3   OH269537   3.731   1.692   1.015  0.4646  0.6506 -0.1885
16041TIP3    H169538   3.691   1.773   0.985  0.1467  0.8343  0.7215
16041TIP3    H269539   3.825   1.706   1.003  0.3333  0.6560 -1.2469
16042TIP3   OH269540   0.944   3.371  14.216 -0.1480  0.5237  0.5652
16042TIP3    H169541   0.944   3.342  14.125 -1.0884 -0.2977  0.8210
16042TIP3    H269542   1.028   3.416  14.227  1.1895 -1.7835  0.0560
16043TIP3   OH269543   4.965   0.528   0.215  0.0370  0.3312 -0.0790
16043TIP3    H169544   4.919   0.457   0.260 -0.8326  1.4613  0.8649
16043TIP3    H269545   4.940   0.518   0.124 -1.3661  0.3644  0.2873
16044TIP3   OH269546   5.237   0.535   5.587 -0.1122 -0.0981  0.2199
16044TIP3    H169547   5.252   0.618   5.543  1.8507 -0.1467  0.7488
16044TIP3    H269548   5.151   0.506   5.556 -0.6463  1.9318 -0.2491
16045TIP3   OH269549   0.639   2.672  12.113  0.1692  0.4538 -0.0668
16045TIP3    H169550   0.613   2.693  12.203 -0.0468  1.7378 -0.4213
16045TIP3    H269551   0.671   2.754  12.077 -0.6753  0.1863 -1.4931
16046TIP3   OH269552   0.097   5.441   1.909 -0.2284 -0.2331  0.2415
16046TIP3    H169553   0.162   5.469   1.845 -1.7694  1.3587 -0.6747
16046TIP3    H269554   0.100   5.345   1.906 -0.2581 -0.1771 -2.2010
16047TIP3   OH269555   1.071   1.226  16.684  0.2645  0.3894 -0.3270
16047TIP3    H169556   0.980   1.197  16.680  0.4713 -0.0904 -1.9498
16047TIP3    H269557   1.113   1.164  16.742 -0.5302  0.8744  0.7879
16048TIP3   OH269558   1.454   5.873   4.909 -0.1846  0.0699 -0.0611
16048TIP3    H169559   1.370   5.829   4.897 -0.3353 -0.4190  2.5392
16048TIP3    H269560   1.442   5.959   4.868 -1.6807 -0.3039 -0.4308
16049TIP3   OH269561   2.861   4.370  15.787  0.1119 -0.1187 -0.1573
16049TIP3    H169562   2.780   4.340  15.745  1.1718 -0.8310 -1.7387
16049TIP3    H269563   2.856   4.335  15.875 -1.8001  0.7376  0.1095
16050TIP3   OH269564   6.529   5.556   1.059 -0.2188  0.3132 -0.2694
16050TIP3    H169565   6.568   5.487   1.113 -0.6225  0.5884  0.3902
16050TIP3    H269566   6.587   5.564   0.984  0.0732 -0.4414 -0.1317
16051TIP3   OH269567   2.176   1.307   0.868  0.1827 -0.5647  0.6077
16051TIP3    H169568   2.230   1.318   0.947  3.1907 -0.8839 -1.3509
16051TIP3    H269569   2.107   1.246   0.895  1.8645 -1.6398  2.6432
16052TIP3   OH269570   2.474   1.876  14.563  0.4729  0.0887  0.5173
16052TIP3    H169571   2.436   1.806  14.616  0.3971 -0.2129  0.0626
16052TIP3    H269572   2.512   1.936  14.627 -1.1175  0.6010  1.0206
16053TIP3   OH269573   3.867   2.295  17.040  0.1626 -0.4371 -0.7470
16053TIP3    H169574   3.854   2.338  17.124  0.9667  0.7233 -1.2006
16053TIP3    H269575   3.915   2.214  17.062 -0.2402 -0.4819 -0.0256
16054TIP3   OH269576   1.032   1.933  13.906  0.2217 -0.2860 -0.4797
16054TIP3    H169577   1.083   1.859  13.939  1.8613  0.2040 -1.8204
16054TIP3    H269578   1.016   1.987  13.983 -1.8791 -2.5246  0.7026
16055TIP3   OH269579   6.623   5.352  16.690 -1.0089 -0.1699  0.3656
16055TIP3    H169580   6.718   5.369  16.693 -0.6853 -1.9724  1.0434
16055TIP3    H269581   6.608   5.318  16.602 -0.7322 -1.3301  0.7446
16056TIP3   OH269582   4.983   4.342   0.086 -0.4516 -0.0498 -0.3545
16056TIP3    H169583   4.906   4.349   0.030  1.4538  3.7954 -2.8032
16056TIP3    H269584   5.030   4.265   0.053 -0.9265  0.3569 -2.0341
16057TIP3   OH269585   3.223   0.244  11.212 -0.2414 -0.6174  0.0027
16057TIP3    H169586   3.197   0.318  11.267 -2.2956 -1.6181  0.4204
16057TIP3    H269587   3.319   0.249  11.209 -0.2965  1.4687  0.8254
16058TIP3   OH269588   0.499   6.112  16.327  0.6218 -0.6811 -0.5456
16058TIP3    H169589   0.460   6.177  16.267 -0.7466 -0.8835  0.0927
16058TIP3    H269590   0.588   6.100  16.295  0.4051  0.3898 -1.5943
16059TIP3   OH269591   1.229   6.351  15.446  0.2291 -0.1263  0.0368
16059TIP3    H169592   1.279   6.360  15.527 -1.5832  1.3639  1.0143
16059TIP3    H269593   1.139   6.334  15.475  0.1357 -2.8688 -1.6978
16060TIP3   OH269594   6.322   5.057   1.383 -0.1721  0.4471 -0.5700
16060TIP3    H169595   6.280   4.984   1.427 -1.0374  1.2799 -0.0159
16060TIP3    H269596   6.280   5.061   1.297 -2.1440  2.0595  0.4334
16061TIP3   OH269597   1.226   2.240   4.245  0.2749  0.1041 -0.1942
16061TIP3    H169598   1.272   2.216   4.165  1.6151  3.2428 -0.4760
16061TIP3    H269599   1.138   2.263   4.216  0.2181 -0.5337 -0.5185
16062TIP3   OH269600   4.452   6.339  14.106 -0.5182  0.1598 -0.1037
16062TIP3    H169601   4.504   6.404  14.153 -0.6156 -1.4586  2.3597
16062TIP3    H269602   4.390   6.391  14.054  0.8470  2.0378  0.0821
16063TIP3   OH269603   1.893   4.219   3.431 -0.0716 -0.5519  0.2056
16063TIP3    H169604   1.902   4.232   3.337  1.9681  2.2688  0.7094
16063TIP3    H269605   1.965   4.160   3.454  1.1639  0.9520  0.3395
16064TIP3   OH269606   3.927   4.129  13.161  0.4944  0.4365 -0.2921
16064TIP3    H169607   3.831   4.130  13.165  0.5082  0.8542 -0.0448
16064TIP3    H269608   3.946   4.132  13.067  0.2569 -1.1400 -0.4071
16065TIP3   OH269609   5.000   2.569  11.924  0.4148  0.2171  0.5286
16065TIP3    H169610   5.029   2.660  11.918  1.4091  0.0010  1.8135
16065TIP3    H269611   4.905   2.573  11.915  0.2577  1.5936  2.5435
16066TIP3   OH269612   5.405   4.050  16.615 -0.4806 -0.2986 -1.0207
16066TIP3    H169613   5.311   4.034  16.627 -1.1224  1.0992 -3.7735
16066TIP3    H269614   5.413   4.146  16.617  1.0622 -0.4320  0.2550
16067TIP3   OH269615   0.065   4.944   4.791  0.0496 -0.4247  0.1518
16067TIP3    H169616   0.087   4.854   4.766 -0.3499 -0.1297 -1.3464
16067TIP3    H269617  -0.028   4.953   4.768  0.4663  0.8269 -1.1206
16068TIP3   OH269618   2.835   3.227  15.391  0.1585 -0.5147 -0.1728
16068TIP3    H169619   2.820   3.226  15.297 -1.7060 -2.8768  0.1078
16068TIP3    H269620   2.883   3.146  15.409  0.7707  0.0600  0.8660
16069TIP3   OH269621   4.872   6.443  15.094  0.1453  0.2239  0.2745
16069TIP3    H169622   4.910   6.408  15.175 -0.5979 -2.2274 -0.3984
16069TIP3    H269623   4.782   6.466  15.119  0.1788  0.2635  0.3577
16070TIP3   OH269624   3.558   1.316   3.121  0.1900 -0.8020  0.5178
16070TIP3    H169625   3.572   1.273   3.037 -0.8740 -2.0937  0.9819
16070TIP3    H269626   3.482   1.372   3.106  1.1698  0.4307  0.0982
16071TIP3   OH269627   4.436   0.323   1.364  0.1812  0.1128 -0.1294
16071TIP3    H169628   4.422   0.290   1.453 -1.5237 -1.1378 -0.8183
16071TIP3    H269629   4.514   0.277   1.334  0.1852 -0.2143  0.3704
16072TIP3   OH269630   3.509   4.096  16.292 -0.0561 -0.0876  0.2588
16072TIP3    H169631   3.497   4.176  16.342  0.8106  1.6428 -2.1778
16072TIP3    H269632   3.600   4.100  16.261  0.3317 -2.5379  0.9703
16073TIP3   OH269633   0.108   4.461  15.847  0.0169 -0.1100  0.0617
16073TIP3    H169634   0.183   4.406  15.823 -0.3967 -0.6311 -0.0505
16073TIP3    H269635   0.115   4.537  15.789  0.1481 -0.4190 -0.3326
16074TIP3   OH269636   1.412   6.073  15.371  0.1789 -0.4413 -0.3078
16074TIP3    H169637   1.357   6.137  15.324 -0.3464 -0.2694  0.5367
16074TIP3    H269638   1.499   6.084  15.332 -0.1087  0.1458 -0.8037
16075TIP3   OH269639   5.448   2.435   3.880 -0.3028  0.2609 -0.5280
16075TIP3    H169640   5.366   2.391   3.858 -0.4633  0.2592  0.0704
16075TIP3    H269641   5.498   2.436   3.798 -1.1612  0.8152 -1.0483
16076TIP3   OH269642   0.397   0.312  12.251  0.2153  0.3246 -0.2000
16076TIP3    H169643   0.317   0.298  12.301  0.7145 -0.9791  0.2541
16076TIP3    H269644   0.406   0.234  12.196  1.7910 -0.1119  0.6288
16077TIP3   OH269645   0.492   6.116   2.191  0.3397  0.2571  0.0461
16077TIP3    H169646   0.454   6.198   2.223  0.8468  0.0942  1.0628
16077TIP3    H269647   0.424   6.078   2.137  0.1397  1.4166 -0.5464
16078TIP3   OH269648   0.266   3.566  11.088 -0.2236 -0.0611 -0.1400
16078TIP3    H169649   0.181   3.530  11.060 -0.3492  1.0306 -1.2198
16078TIP3    H269650   0.244   3.629  11.156 -0.1182 -1.0644  0.8280
16079TIP3   OH269651   1.798   6.095  13.268  0.1385  0.5566  0.1539
16079TIP3    H169652   1.745   6.149  13.209 -2.2941 -1.9037  0.0087
16079TIP3    H269653   1.746   6.089  13.348 -0.1621 -2.4718 -0.2315
16080TIP3   OH269654   1.410   5.217  12.412  0.3170  0.3239 -0.0974
16080TIP3    H169655   1.381   5.236  12.323  1.9593  1.9184 -0.3068
16080TIP3    H269656   1.349   5.149  12.443 -0.4457 -0.0400 -2.3113
16081TIP3   OH269657   3.061   5.111   1.684 -0.3272 -0.6300 -0.2126
16081TIP3    H169658   3.147   5.083   1.717  0.6771  1.3050 -1.1126
16081TIP3    H269659   3.009   5.031   1.684  0.9326 -1.5241  1.9917
16082TIP3   OH269660   6.710   2.065  12.613 -0.2764  0.0586 -0.1362
16082TIP3    H169661   6.669   2.004  12.674  0.4850  1.1261  1.4804
16082TIP3    H269662   6.782   2.015  12.573 -0.9421 -0.7244 -0.3564
16083TIP3   OH269663   1.944   3.316   0.975  0.0964 -0.8195 -0.7181
16083TIP3    H169664   1.916   3.242   1.028 -0.8762 -0.4425 -0.6946
16083TIP3    H269665   1.867   3.373   0.970  0.7937  0.1279 -0.8372
16084TIP3   OH269666   4.113   6.377   5.361 -0.3521 -0.5815  0.4960
16084TIP3    H169667   4.044   6.319   5.392 -2.4919  0.2671 -2.4660
16084TIP3    H269668   4.089   6.464   5.395 -0.2361 -0.4461  0.2345
16085TIP3   OH269669   6.597   0.439  13.672  0.0548  0.3173  0.3382
16085TIP3    H169670   6.667   0.385  13.634  0.7321  1.2004  0.3361
16085TIP3    H269671   6.524   0.378  13.683  0.6805 -0.5144 -0.0566
16086TIP3   OH269672   1.223   6.571  14.212  0.0433 -0.2305 -0.3028
16086TIP3    H169673   1.311   6.576  14.250 -0.0036  0.3984 -0.2832
16086TIP3    H269674   1.238   6.553  14.120  0.2016  0.3326 -0.3862
16087TIP3   OH269675   0.283   4.548  13.403 -0.3888  0.0888  0.1347
16087TIP3    H169676   0.205   4.542  13.458  0.1698 -1.2831  0.7920
16087TIP3    H269677   0.300   4.459  13.374  0.6109  0.4627 -0.4592
16088TIP3   OH269678   0.615   0.262   0.692  0.0778 -0.0254  0.3556
16088TIP3    H169679   0.528   0.227   0.675  1.0208 -1.1562 -2.5192
16088TIP3    H269680   0.635   0.317   0.616  2.5298 -1.1742  0.0973
16089TIP3   OH269681   5.616   3.027  16.031  0.4608  0.1935 -0.2563
16089TIP3    H169682   5.578   2.961  16.089  0.7112 -0.7677 -1.1858
16089TIP3    H269683   5.697   3.053  16.075  0.5098 -0.3223 -0.0400
16090TIP3   OH269684   2.299   6.145  11.000 -0.4102 -0.3507  0.4514
16090TIP3    H169685   2.358   6.211  10.964 -0.8010 -0.7421 -0.9510
16090TIP3    H269686   2.314   6.067  10.947 -0.9000 -1.0003  1.2397
16091TIP3   OH269687   1.183   6.253   3.420  1.0296 -0.2285  0.3161
16091TIP3    H169688   1.168   6.189   3.351 -0.5318  0.9888 -0.4867
16091TIP3    H269689   1.265   6.225   3.461  0.0458 -3.1121  0.4036
16092TIP3   OH269690   5.240   5.904  17.043  0.1706 -0.2452 -0.3478
16092TIP3    H169691   5.182   5.834  17.073  1.2997 -1.1696 -0.3338
16092TIP3    H269692   5.205   5.928  16.957  0.1893 -1.2706 -0.6394
16093TIP3   OH269693   3.521   4.544   2.659  0.2681 -0.0077  0.0638
16093TIP3    H169694   3.505   4.603   2.586  0.8016  1.1480  0.8816
16093TIP3    H269695   3.498   4.594   2.737 -0.0981 -1.1582  0.7143
16094TIP3   OH269696   3.769   1.015  13.217  0.3859  0.2475  0.1939
16094TIP3    H169697   3.794   1.107  13.206  0.8015  0.1987  0.6601
16094TIP3    H269698   3.714   0.995  13.142  0.8285  0.6954 -0.2545
16095TIP3   OH269699   5.740   3.464  15.046 -0.1640  0.1078  0.3281
16095TIP3    H169700   5.777   3.376  15.047 -1.0127 -0.2488  1.0763
16095TIP3    H269701   5.752   3.496  15.136  0.1525  0.7616  0.0578
16096TIP3   OH269702   5.966   3.074   0.381 -0.3445  0.2468  0.0871
16096TIP3    H169703   5.987   3.017   0.455  0.0128 -0.5644 -0.6333
16096TIP3    H269704   5.875   3.100   0.395 -0.9511 -1.5946 -0.2881
16097TIP3   OH269705   1.345   6.078   0.663  0.3643 -0.2753  0.3786
16097TIP3    H169706   1.283   6.011   0.690 -1.5945  0.7043 -1.5853
16097TIP3    H269707   1.385   6.044   0.584  0.3775  0.2673  0.1492
16098TIP3   OH269708   1.065   2.935   1.239 -0.7512 -0.4212 -0.7136
16098TIP3    H169709   1.039   3.027   1.244 -0.5661 -0.3952 -0.0927
16098TIP3    H269710   1.054   2.911   1.147  3.7193  1.5514 -1.9188
16099TIP3   OH269711   3.034   3.769  15.501  0.0010  0.6184  0.4553
16099TIP3    H169712   3.101   3.700  15.496  0.2396  0.5519  3.9153
16099TIP3    H269713   3.082   3.850  15.488  0.1668  0.3591 -0.6511
16100TIP3   OH269714   5.054   5.061  14.778  0.0713 -0.3284 -0.1554
16100TIP3    H169715   5.015   5.022  14.856  1.0897 -1.3211 -0.1330
16100TIP3    H269716   5.113   5.128  14.812 -0.3927  0.0728 -0.1300
16101TIP3   OH269717   1.959   6.473  15.316  0.0679 -0.2422 -0.0879
16101TIP3    H169718   2.011   6.450  15.394 -0.8299  1.5519  1.0777
16101TIP3    H269719   1.885   6.413  15.319  0.1263 -0.2994  0.3690
16102TIP3   OH269720   4.499   3.899   6.621 -0.2734  0.5243  0.8026
16102TIP3    H169721   4.445   3.971   6.589 -0.6511  0.1567  0.6097
16102TIP3    H269722   4.530   3.855   6.542 -0.6602  0.0209  0.9291
16103TIP3   OH269723   6.463   1.026  13.692 -0.1476  0.9344 -0.3144
16103TIP3    H169724   6.524   0.964  13.733  0.5845 -0.3866 -3.2964
16103TIP3    H269725   6.478   1.108  13.738  0.5294 -0.5118  2.1609
16104TIP3   OH269726   0.624   5.886  13.516 -0.4992  0.3776  0.1150
16104TIP3    H169727   0.598   5.794  13.512  1.0815 -0.1125  0.6974
16104TIP3    H269728   0.641   5.903  13.609 -0.1471  1.0699 -0.0692
16105TIP3   OH269729   5.057   1.035  13.182  0.7327  0.4936  0.4786
16105TIP3    H169730   5.046   1.036  13.277 -2.5312  0.7513  0.1564
16105TIP3    H269731   5.064   1.128  13.158 -2.0136  0.6431  0.1480
16106TIP3   OH269732   5.215   0.624   2.777 -0.3335 -0.3968  0.0326
16106TIP3    H169733   5.138   0.583   2.737 -1.0497  0.8273  0.1189
16106TIP3    H269734   5.211   0.599   2.870 -0.7563 -0.1494  0.0811
16107TIP3   OH269735   0.420   3.627  16.324 -0.1048 -0.5362 -0.5503
16107TIP3    H169736   0.325   3.636  16.327 -0.2759 -2.3624 -0.1010
16107TIP3    H269737   0.450   3.706  16.279 -1.9211 -0.5174 -1.7757
16108TIP3   OH269738   4.375   0.999  13.333  0.3361  0.6051  0.2232
16108TIP3    H169739   4.303   0.994  13.271  1.4449 -1.3318 -0.9602
16108TIP3    H269740   4.394   1.092  13.341 -2.8047  1.2028  1.1967
16109TIP3   OH269741   6.509   0.224  14.632 -0.1830 -0.1827 -0.3023
16109TIP3    H169742   6.502   0.196  14.541 -0.8107  0.9083 -0.5896
16109TIP3    H269743   6.438   0.178  14.676 -1.0106  0.7011 -0.7128
16110TIP3   OH269744   1.597   5.607   2.547 -0.1352  0.6396  0.3230
16110TIP3    H169745   1.615   5.627   2.455  1.5125 -0.6471  0.3448
16110TIP3    H269746   1.638   5.522   2.561 -3.7662 -1.0483  1.2164
16111TIP3   OH269747   3.035   1.076   5.242  0.1639  0.0386 -0.9107
16111TIP3    H169748   3.018   1.103   5.332 -1.5503 -1.9515 -0.5894
16111TIP3    H269749   3.091   0.999   5.250 -1.1633 -0.9976 -1.4712
16112TIP3   OH269750   6.052   0.922   4.446 -0.3082  0.1498  0.2827
16112TIP3    H169751   6.101   0.914   4.528  0.4592  1.0240 -0.0817
16112TIP3    H269752   6.110   0.972   4.389 -1.9597  1.8630  0.0830
16113TIP3   OH269753   2.387   2.872   5.779  0.1337  0.1445 -0.4839
16113TIP3    H169754   2.321   2.828   5.833 -0.4269  1.3391 -0.1776
16113TIP3    H269755   2.459   2.810   5.774 -0.2714 -0.4373  0.7105
16114TIP3   OH269756   1.178   0.310  15.870 -0.0914  0.0861 -0.3512
16114TIP3    H169757   1.224   0.332  15.789 -0.5825  0.4911 -0.5230
16114TIP3    H269758   1.160   0.216  15.863 -0.9686  0.3015 -1.1439
16115TIP3   OH269759   3.568   5.682   3.039  0.6539 -0.6292 -0.5846
16115TIP3    H169760   3.612   5.713   2.960  0.6112 -1.2190 -0.8402
16115TIP3    H269761   3.634   5.690   3.108 -0.4221  3.3720  0.0788
16116TIP3   OH269762   1.469   0.063   1.633  0.5403  0.0696 -0.0966
16116TIP3    H169763   1.513   0.122   1.694  1.1402 -1.5581  1.0816
16116TIP3    H269764   1.422   0.001   1.688  0.4279 -0.9346 -1.2894
16117TIP3   OH269765   4.255   4.892  15.139  0.2261  0.0324 -0.2756
16117TIP3    H169766   4.295   4.962  15.191 -0.1189  0.8750 -1.1165
16117TIP3    H269767   4.189   4.853  15.196 -0.2692  1.0606 -0.1394
16118TIP3   OH269768   4.601   4.374   4.317  0.4594  0.4397 -0.4072
16118TIP3    H169769   4.647   4.409   4.393  0.6433 -0.0664 -0.2801
16118TIP3    H269770   4.517   4.419   4.316  0.9395  1.3463 -0.6116
16119TIP3   OH269771   3.256   5.657  16.097  0.0584 -0.5759  0.2688
16119TIP3    H169772   3.215   5.592  16.040 -1.3692 -0.7363  1.4585
16119TIP3    H269773   3.318   5.608  16.150  1.6052 -0.3836 -1.3203
16120TIP3   OH269774   2.342   5.075   0.563  0.0143  0.1728 -0.4232
16120TIP3    H169775   2.293   5.098   0.642  0.4896  1.0313 -0.3822
16120TIP3    H269776   2.274   5.055   0.498 -0.3820  0.3552 -0.0650
16121TIP3   OH269777   1.303   5.813   2.337 -0.3614  0.5537 -0.4461
16121TIP3    H169778   1.320   5.900   2.373 -0.2635 -0.3179  1.7079
16121TIP3    H269779   1.231   5.779   2.391  1.4278 -1.7587  0.5849
16122TIP3   OH269780   3.600   0.614  15.538  0.1015  0.4287 -0.0665
16122TIP3    H169781   3.683   0.659  15.522  1.2577 -1.8415 -0.7343
16122TIP3    H269782   3.559   0.664  15.609  1.1474  2.7068 -1.0309
16123TIP3   OH269783   3.470   4.621   1.480 -0.3443 -0.1392  0.6644
16123TIP3    H169784   3.452   4.624   1.386 -1.7058  1.3964  0.9437
16123TIP3    H269785   3.562   4.647   1.488 -0.0620 -0.8470 -0.2792
16124TIP3   OH269786   5.370   0.232   1.021  0.0840  0.1391  0.1403
16124TIP3    H169787   5.432   0.290   1.066 -0.7055  0.5253  0.7533
16124TIP3    H269788   5.381   0.253   0.928 -0.2553  1.3719  0.3564
16125TIP3   OH269789   3.265   4.216   0.825 -0.2666 -0.4157  0.0286
16125TIP3    H169790   3.316   4.297   0.838 -1.0148  0.0245  0.2518
16125TIP3    H269791   3.289   4.161   0.899  0.1149 -0.3251 -0.0260
16126TIP3   OH269792   3.469   3.685   0.655 -0.2761  0.6073  0.7415
16126TIP3    H169793   3.443   3.745   0.585  1.2135  0.6831  0.2303
16126TIP3    H269794   3.458   3.598   0.618  1.2373  0.6635  0.1324
16127TIP3   OH269795   3.610   6.241  12.450 -0.3852 -0.0324  0.4543
16127TIP3    H169796   3.679   6.215  12.511 -0.6800  0.7146  1.1230
16127TIP3    H269797   3.558   6.304  12.499 -0.8553  0.2895 -0.4480
16128TIP3   OH269798   1.656   0.852  15.575  0.1512 -0.1047 -0.2383
16128TIP3    H169799   1.722   0.782  15.570  1.3176  0.9738 -0.1557
16128TIP3    H269800   1.582   0.819  15.523  1.1177 -0.9408 -1.1170
16129TIP3   OH269801   3.395   5.326   4.092 -0.0320 -0.1262 -0.5008
16129TIP3    H169802   3.367   5.348   4.003 -1.1960 -2.2734 -0.6807
16129TIP3    H269803   3.472   5.271   4.080  0.5481  0.5835 -0.1216
16130TIP3   OH269804   4.841   5.584   1.711 -0.7349 -0.2172  0.1787
16130TIP3    H169805   4.914   5.630   1.755 -2.4759  2.7256  0.1018
16130TIP3    H269806   4.788   5.551   1.783  0.6410 -2.4166  0.2358
16131TIP3   OH269807   5.412   5.341  13.174  0.3853 -0.4266  0.5262
16131TIP3    H169808   5.390   5.250  13.195  0.3881 -0.5366  0.0511
16131TIP3    H269809   5.503   5.350  13.202  0.2975 -0.4860  0.8372
16132TIP3   OH269810   2.695   0.917   5.068 -0.5650 -0.0226  0.3826
16132TIP3    H169811   2.607   0.886   5.046  0.2788 -2.1420 -0.1594
16132TIP3    H269812   2.716   0.979   4.999 -0.6178 -1.4926 -0.9833
16133TIP3   OH269813   2.425   6.774  17.085 -0.3330  0.0265 -0.8461
16133TIP3    H169814   2.519   6.754  17.088 -0.3310 -0.0618 -1.5621
16133TIP3    H269815   2.407   6.792  16.993 -0.5360  2.4098 -0.3634
16134TIP3   OH269816   4.436   0.593  16.562 -0.3279  0.2494  0.3731
16134TIP3    H169817   4.508   0.530  16.552 -0.5422  0.0809 -0.1566
16134TIP3    H269818   4.394   0.569  16.644 -1.1203 -1.0448 -0.3914
16135TIP3   OH269819   2.397   0.737   2.311 -0.2825 -0.1885 -0.2084
16135TIP3    H169820   2.407   0.649   2.274 -0.4100 -0.2092 -0.1966
16135TIP3    H269821   2.393   0.795   2.235  1.4818 -0.0014 -0.1772
16136TIP3   OH269822   4.444   3.943   3.124  0.0609  0.2642  0.0781
16136TIP3    H169823   4.412   4.030   3.102  2.1634  0.8688 -0.6723
16136TIP3    H269824   4.411   3.928   3.213 -1.5423  1.1979 -0.3327
16137TIP3   OH269825   5.723   3.185   1.602  0.1505 -0.0449  0.2294
16137TIP3    H169826   5.642   3.149   1.568 -0.8213  2.9548 -0.7932
16137TIP3    H269827   5.770   3.218   1.525  0.2018  2.3628  1.2408
16138TIP3   OH269828   3.407   1.485   1.682 -0.3037  0.5271  0.0181
16138TIP3    H169829   3.357   1.471   1.602  1.6088 -1.3911 -0.8941
16138TIP3    H269830   3.471   1.553   1.659  0.1876  0.0378 -0.0835
16139TIP3   OH269831   5.912   1.300   1.921 -0.8969  0.1302 -0.3644
16139TIP3    H169832   5.860   1.379   1.927 -0.3015  0.5698 -0.9473
16139TIP3    H269833   5.919   1.282   1.827  0.0298  0.0979 -0.2973
16140TIP3   OH269834   0.148   1.264  12.818  0.1976  0.2827  0.1103
16140TIP3    H169835   0.161   1.342  12.873 -1.6574  0.5631  0.1708
16140TIP3    H269836   0.128   1.194  12.880  0.2362  0.1154 -0.0644
16141TIP3   OH269837   2.726   0.213  13.341 -0.3773 -0.7723 -0.2133
16141TIP3    H169838   2.789   0.219  13.269  0.1081  2.5506  0.4126
16141TIP3    H269839   2.647   0.178  13.300  0.0795  0.5168 -2.2725
16142TIP3   OH269840   3.733   6.332  12.225 -0.1650 -0.2194  0.3346
16142TIP3    H169841   3.800   6.394  12.254 -0.8312  0.5179  0.3303
16142TIP3    H269842   3.695   6.298  12.305 -0.7855  0.4742  0.3419
16143TIP3   OH269843   4.655   3.403   5.990 -0.0635  0.1806 -0.4589
16143TIP3    H169844   4.596   3.332   6.016  1.6346 -0.8062  0.7668
16143TIP3    H269845   4.683   3.380   5.902 -1.4029  0.6016 -1.0108
16144TIP3   OH269846   0.545   5.540  11.818  0.1836  0.3654  0.2892
16144TIP3    H169847   0.580   5.614  11.767 -0.4007 -1.0350 -2.2093
16144TIP3    H269848   0.452   5.539  11.798  0.3149 -1.4995 -0.2764
16145TIP3   OH269849   2.824   1.951  12.866 -0.0137 -0.0622  0.1847
16145TIP3    H169850   2.796   1.882  12.926  1.2426  0.4580  1.3963
16145TIP3    H269851   2.815   2.032  12.917  0.2001  0.4768 -0.6270
16146TIP3   OH269852   5.556   5.554   0.714  0.4963 -0.3380 -0.4474
16146TIP3    H169853   5.569   5.461   0.730  1.1609 -0.0223  0.9730
16146TIP3    H269854   5.640   5.584   0.680  0.3148 -0.2406 -0.8089
16147TIP3   OH269855   5.470   0.273  14.799 -0.5573  0.2554 -0.2666
16147TIP3    H169856   5.552   0.292  14.845 -0.5332 -1.8330  0.5978
16147TIP3    H269857   5.489   0.295  14.707  1.5489 -1.7789 -0.3637
16148TIP3   OH269858   2.950   5.576  11.946 -0.5689  0.4383  0.3265
16148TIP3    H169859   2.877   5.518  11.968  2.0765 -3.7193 -1.0670
16148TIP3    H269860   3.008   5.572  12.022  0.7766 -0.8161 -0.7120
16149TIP3   OH269861   4.139   1.110   3.540  0.7344  0.0458  0.0064
16149TIP3    H169862   4.082   1.148   3.473 -1.5540 -0.0591  1.8189
16149TIP3    H269863   4.143   1.017   3.518  2.0142  0.4110 -1.3794
16150TIP3   OH269864   2.130   1.465   1.214  0.1183  0.2570 -0.3196
16150TIP3    H169865   2.165   1.524   1.146 -0.3031  0.2575 -0.5410
16150TIP3    H269866   2.207   1.418   1.247  0.3500  0.3738 -0.6870
16151TIP3   OH269867   6.242   0.097  14.652  0.1521 -0.1347 -0.3715
16151TIP3    H169868   6.220   0.053  14.570 -1.0061  0.2940 -0.2851
16151TIP3    H269869   6.164   0.145  14.676  1.3321  1.8125 -0.3392
16152TIP3   OH269870   2.424   1.699   5.932  0.6687 -0.3405 -0.0069
16152TIP3    H169871   2.447   1.614   5.896  1.8510 -1.0258  2.2600
16152TIP3    H269872   2.339   1.686   5.975 -0.2007  0.1899 -1.5444
16153TIP3   OH269873   4.160   1.235  10.583  0.0619  0.1064  0.0101
16153TIP3    H169874   4.181   1.328  10.591  0.0437  0.0732  0.4935
16153TIP3    H269875   4.065   1.232  10.573  0.1284  0.1739 -0.6563
16154TIP3   OH269876   4.421   3.234   0.764 -0.0890 -0.0514 -0.4063
16154TIP3    H169877   4.450   3.211   0.852  0.2779 -2.0416 -1.0286
16154TIP3    H269878   4.327   3.248   0.773 -0.1232 -0.6656  0.2246
16155TIP3   OH269879   0.074   5.276   4.328  0.1103 -0.0804  0.8497
16155TIP3    H169880   0.079   5.346   4.263  1.8206 -1.5703 -0.7097
16155TIP3    H269881   0.013   5.212   4.291  1.1071 -0.9479  0.6687
16156TIP3   OH269882   1.427   5.997  11.700 -0.3673  0.5707  0.0195
16156TIP3    H169883   1.384   6.051  11.766 -3.1620 -0.4047 -0.9572
16156TIP3    H269884   1.421   6.048  11.620  0.0054  0.2648 -0.2068
16157TIP3   OH269885   0.923   1.754   0.392  0.1881 -0.4992  0.1792
16157TIP3    H169886   0.899   1.710   0.474  1.1062 -0.8610  0.2610
16157TIP3    H269887   0.842   1.795   0.362 -0.0382  0.0798  1.5469
16158TIP3   OH269888   2.828   2.265   1.180 -0.4620  0.0994  0.5339
16158TIP3    H169889   2.906   2.298   1.136 -1.1179  0.0773 -0.6606
16158TIP3    H269890   2.832   2.303   1.268  1.8633 -1.4104  1.1201
16159TIP3   OH269891   4.920   3.529  14.267 -0.2188  0.8269  0.4387
16159TIP3    H169892   4.845   3.534  14.327  0.0867  0.8821  0.8209
16159TIP3    H269893   4.924   3.438  14.240  0.6574  0.4349  1.8237
16160TIP3   OH269894   3.642   3.303   5.819 -0.0113 -0.4425  0.2904
16160TIP3    H169895   3.554   3.301   5.855 -0.1089  1.0558  0.1710
16160TIP3    H269896   3.697   3.264   5.887 -0.6087 -0.3108  0.8488
16161TIP3   OH269897   0.322   4.724  16.158  0.2285 -0.5253 -0.2387
16161TIP3    H169898   0.257   4.679  16.211 -0.5062 -1.7708 -2.1550
16161TIP3    H269899   0.333   4.669  16.080  4.0783 -0.7401  0.3205
16162TIP3   OH269900   5.370   6.323  12.965  0.1474  0.1187 -0.0903
16162TIP3    H169901   5.336   6.309  13.054 -3.1435  2.2600 -0.9179
16162TIP3    H269902   5.394   6.235  12.935 -0.9173 -0.9610  2.0539
16163TIP3   OH269903   5.277   1.462   5.086 -0.2914  0.1089 -0.0168
16163TIP3    H169904   5.337   1.528   5.120 -1.5645  1.2909 -0.0145
16163TIP3    H269905   5.222   1.438   5.160 -0.0652 -0.6860 -0.1069
16164TIP3   OH269906   2.066   4.753  15.863 -0.3366 -0.3988 -0.3641
16164TIP3    H169907   2.039   4.667  15.830  0.2682 -0.1681 -1.4559
16164TIP3    H269908   2.141   4.778  15.809  0.7370 -0.0582  1.2325
16165TIP3   OH269909   5.032   3.667  11.757  0.2334 -0.4032 -0.3248
16165TIP3    H169910   5.020   3.762  11.750  1.8847 -0.0279  1.3918
16165TIP3    H269911   4.960   3.629  11.707 -0.7952  1.7588 -0.5162
16166TIP3   OH269912   0.349   3.444  14.638 -0.7860 -0.3181  0.1812
16166TIP3    H169913   0.262   3.447  14.600 -0.8697 -0.2010  0.3808
16166TIP3    H269914   0.347   3.508  14.710 -0.1593  0.5765 -0.5870
16167TIP3   OH269915   3.601   0.956   5.164 -0.2620  0.0938 -0.9261
16167TIP3    H169916   3.645   0.996   5.089  0.9077 -0.7887 -0.7180
16167TIP3    H269917   3.587   0.865   5.138 -2.7470  0.5263 -1.3201
16168TIP3   OH269918   5.646   5.814  15.806 -0.1494 -0.3194  0.1177
16168TIP3    H169919   5.619   5.904  15.788 -0.4060 -0.5271 -0.5404
16168TIP3    H269920   5.742   5.817  15.803 -0.1353  0.1071  0.9612
16169TIP3   OH269921   3.056   5.296  12.445  0.7223 -0.3700 -0.1473
16169TIP3    H169922   3.117   5.282  12.518  3.3655 -0.8648 -2.3669
16169TIP3    H269923   3.110   5.332  12.375 -1.6330 -0.5311 -2.1236
16170TIP3   OH269924   0.711   5.775   5.792  0.1130  0.0321 -0.5371
16170TIP3    H169925   0.634   5.831   5.802 -0.2559 -0.5209 -0.2369
16170TIP3    H269926   0.769   5.800   5.864  0.5654  1.0005 -1.2282
16171TIP3   OH269927   4.837   4.383  10.406  0.5331  0.6020 -0.1452
16171TIP3    H169928   4.891   4.308  10.381  2.4534  1.4291  1.3441
16171TIP3    H269929   4.754   4.345  10.435  2.3194 -1.2100  2.9093
16172TIP3   OH269930   0.275   1.059  12.490 -0.4901  0.2847  0.0992
16172TIP3    H169931   0.250   1.150  12.507  2.3686  0.8811  1.3436
16172TIP3    H269932   0.206   1.007  12.530 -1.3391  1.8908  0.7572
16173TIP3   OH269933   0.738   6.627   3.423  0.2325  0.1387 -0.1269
16173TIP3    H169934   0.796   6.597   3.493 -0.0272  0.5190  0.2524
16173TIP3    H269935   0.669   6.561   3.419  1.5057 -1.1451 -1.6223
16174TIP3   OH269936   1.048   5.931   0.026  0.1114 -0.6051  0.4900
16174TIP3    H169937   1.139   5.920  -0.002 -0.4115 -0.1124 -1.4030
16174TIP3    H269938   1.041   5.874   0.103  1.9164 -0.9203  0.4593
16175TIP3   OH269939   4.661   6.419  10.666  0.3358 -0.7331  0.2585
16175TIP3    H169940   4.575   6.460  10.665  0.0106 -1.4053  0.1786
16175TIP3    H269941   4.719   6.483  10.624  0.1594  0.3246  1.5919
16176TIP3   OH269942   3.366   1.889   5.042  0.0278  0.2477 -0.3524
16176TIP3    H169943   3.410   1.837   4.975 -0.0270  0.4912 -0.5788
16176TIP3    H269944   3.390   1.847   5.125  2.2112  1.4797 -0.3221
16177TIP3   OH269945   5.970   3.254   4.299  0.2782 -0.0641 -0.5948
16177TIP3    H169946   6.006   3.322   4.242 -0.7479  1.7427  0.8569
16177TIP3    H269947   6.041   3.190   4.307  0.9877  0.4283 -2.6087
16178TIP3   OH269948   0.530   4.242   3.573 -0.0395  0.0815 -0.9626
16178TIP3    H169949   0.464   4.178   3.598 -1.2260  1.1004 -1.4450
16178TIP3    H269950   0.572   4.205   3.495  0.0473 -0.6171 -0.5896
16179TIP3   OH269951   5.862   5.406   0.137 -0.7281 -0.7199  0.4188
16179TIP3    H169952   5.917   5.327   0.136  1.0234  0.4906 -1.5750
16179TIP3    H269953   5.808   5.399   0.058 -1.4495 -0.4881  0.8816
16180TIP3   OH269954   0.870   5.540   4.932 -0.9056  0.0548  0.1797
16180TIP3    H169955   0.794   5.485   4.950 -1.9371  1.3402 -0.2127
16180TIP3    H269956   0.936   5.510   4.994 -1.4086 -1.6913 -0.0891
16181TIP3   OH269957   1.033   3.761   4.903 -0.1491 -0.2126 -0.3141
16181TIP3    H169958   1.115   3.719   4.877 -1.0315 -1.4015 -1.2512
16181TIP3    H269959   0.983   3.769   4.821 -0.6977  1.1182  0.1294
16182TIP3   OH269960   4.388   4.547   4.409 -0.4801  0.1151 -0.0520
16182TIP3    H169961   4.300   4.578   4.433 -1.0535 -1.5053  0.0454
16182TIP3    H269962   4.447   4.604   4.457 -1.4555  1.7542 -0.7566
16183TIP3   OH269963   5.428   4.739   1.701  0.6942 -0.1515  0.0457
16183TIP3    H169964   5.340   4.732   1.664  0.3247 -1.7470  1.1921
16183TIP3    H269965   5.414   4.751   1.795  1.6711  1.7432 -0.0214
16184TIP3   OH269966   3.830   2.380  11.802  0.3197 -0.7140  0.4010
16184TIP3    H169967   3.910   2.334  11.775  1.5257  1.5746 -0.0038
16184TIP3    H269968   3.796   2.418  11.721  0.2574  0.5168  0.9916
16185TIP3   OH269969   6.151   6.476  11.687 -0.3441  0.3883 -0.3731
16185TIP3    H169970   6.156   6.569  11.665 -1.3480  0.8270  1.1965
16185TIP3    H269971   6.231   6.458  11.735 -0.1491  0.4431 -0.6772
16186TIP3   OH269972   0.816   1.167   2.072 -0.4584  0.3167  0.8493
16186TIP3    H169973   0.808   1.077   2.103 -1.6157  0.6113  1.4252
16186TIP3    H269974   0.906   1.174   2.041  0.0356 -0.6617  2.0384
16187TIP3   OH269975   3.241   5.538   2.489  0.6794 -0.1761  0.8075
16187TIP3    H169976   3.177   5.490   2.541  0.6832  0.6342  1.5754
16187TIP3    H269977   3.308   5.473   2.467 -0.6631 -1.1521 -0.4637
16188TIP3   OH269978   6.002   5.033   4.930 -1.0264  0.2335  0.2700
16188TIP3    H169979   6.065   4.988   4.874 -1.0690  1.1312 -0.5109
16188TIP3    H269980   6.043   5.034   5.016 -0.4239 -0.1018 -0.0094
16189TIP3   OH269981   6.128   1.981   4.502 -0.2968  0.2451 -0.5901
16189TIP3    H169982   6.189   2.008   4.571 -0.8313 -0.5316  0.1920
16189TIP3    H269983   6.163   1.897   4.472 -2.1195 -1.2308  1.2954
16190TIP3   OH269984   4.677   1.017   2.201  0.3529 -0.3923 -0.1567
16190TIP3    H169985   4.726   1.071   2.139  0.0618  0.0288 -0.0222
16190TIP3    H269986   4.740   0.994   2.269  0.0529  1.2076  0.6847
16191TIP3   OH269987   3.318   2.864   5.694 -0.5110  0.0268 -0.6728
16191TIP3    H169988   3.232   2.896   5.719 -0.8217 -0.6619 -0.8655
16191TIP3    H269989   3.353   2.825   5.774 -0.2292  0.6131 -0.5023
16192TIP3   OH269990   0.196   6.235   4.765 -0.3056 -0.5188 -0.3450
16192TIP3    H169991   0.209   6.143   4.742 -0.3637 -0.6798  0.2498
16192TIP3    H269992   0.108   6.239   4.802  0.4224 -0.5974  1.4373
16193TIP3   OH269993   0.822   2.018   1.002  0.5685 -0.1816 -0.2473
16193TIP3    H169994   0.911   1.988   1.022  1.3870  1.0520 -1.9398
16193TIP3    H269995   0.772   1.998   1.081  2.0051 -2.2253  0.1944
16194TIP3   OH269996   0.592   2.924   0.501  0.1664 -0.4376  0.8230
16194TIP3    H169997   0.541   2.997   0.466  2.8069  0.6031 -1.0072
16194TIP3    H269998   0.619   2.874   0.424  1.2215 -1.4278  1.8128
16195TIP3   OH269999   0.502   2.659  13.548  0.0481  0.1801  0.2487
16195TIP3    H170000   0.505   2.564  13.542 -0.8296  0.1256  0.5793
16195TIP3    H270001   0.593   2.686  13.558  0.2767 -0.6417  0.3566
16196TIP3   OH270002   3.141   1.497   0.555 -0.2371 -0.4065 -0.7752
16196TIP3    H170003   3.117   1.466   0.643  2.9429 -1.3663 -0.1761
16196TIP3    H270004   3.154   1.591   0.565  0.5352 -0.5810 -0.1138
16197TIP3   OH270005   3.083   1.140   0.582  0.2948  0.1598  1.3011
16197TIP3    H170006   2.991   1.114   0.571  0.4103 -1.2383  3.3414
16197TIP3    H270007   3.132   1.082   0.525 -0.2295  2.2965 -1.4077
16198TIP3   OH270008   6.666   5.690   6.139 -0.0086 -0.2546 -0.0874
16198TIP3    H170009   6.645   5.635   6.215 -0.9077  1.1872  0.7360
16198TIP3    H270010   6.619   5.649   6.066 -0.3586 -0.7914  0.4386
16199TIP3   OH270011   0.765   6.088   2.090  0.0426 -0.1740  0.2933
16199TIP3    H170012   0.674   6.086   2.122 -0.5697  0.4454 -1.3767
16199TIP3    H270013   0.811   6.141   2.155 -0.8586 -0.2134  0.9833
16200TIP3   OH270014   5.005   5.728  13.891 -0.1588  0.1937 -0.4567
16200TIP3    H170015   5.057   5.730  13.810  0.2950  2.9407 -0.1320
16200TIP3    H270016   5.065   5.694  13.957 -0.5728 -2.2020 -1.2368
16201TIP3   OH270017   2.686   0.241  14.841 -0.1145 -0.1999  0.0039
16201TIP3    H170018   2.612   0.299  14.827  1.0353  0.6688 -2.8235
16201TIP3    H270019   2.654   0.155  14.814 -0.7591 -0.2472  0.9008
16202TIP3   OH270020   3.395   0.104   6.107 -0.2514  0.6173 -0.0373
16202TIP3    H170021   3.313   0.057   6.088 -0.7047  2.0371 -1.6707
16202TIP3    H270022   3.375   0.154   6.186 -0.3041 -0.5717  0.7307
16203TIP3   OH270023   4.309   0.023  15.049 -0.4148  0.4530  0.0668
16203TIP3    H170024   4.291  -0.006  15.138 -2.4284  0.1569 -0.4080
16203TIP3    H270025   4.231  -0.001  14.999  0.0944  1.8505 -1.4827
16204TIP3   OH270026   3.185   4.017   5.149  0.0466 -0.1221  0.1455
16204TIP3    H170027   3.250   4.054   5.209  1.1376 -2.9440  0.7940
16204TIP3    H270028   3.104   4.015   5.201  0.5569 -0.8575  0.9347
16205TIP3   OH270029   4.371   5.703   2.580 -0.0451 -0.4037  0.1368
16205TIP3    H170030   4.281   5.723   2.553  0.8747  2.5567 -0.8341
16205TIP3    H270031   4.379   5.742   2.667  0.1430 -1.2611  0.5186
16206TIP3   OH270032   1.568   4.344   5.147  0.0765  0.2854 -0.5283
16206TIP3    H170033   1.615   4.281   5.202  0.3992 -0.4447 -1.6308
16206TIP3    H270034   1.585   4.315   5.057 -1.4871  0.7184 -0.9756
16207TIP3   OH270035   2.008   5.894   1.168  0.3697  0.4171  0.2292
16207TIP3    H170036   2.086   5.879   1.114 -0.0712  0.6101 -0.4814
16207TIP3    H270037   1.989   5.987   1.157 -1.0985 -0.0229 -1.1988
16208TIP3   OH270038   1.429   4.379   2.273 -0.3864 -0.6600  0.4541
16208TIP3    H170039   1.371   4.370   2.349  0.2888  2.2134  1.3951
16208TIP3    H270040   1.455   4.472   2.274  1.6750 -1.1588 -1.8059
16209TIP3   OH270041   5.131   0.204   1.179 -0.4746  0.2050  0.3280
16209TIP3    H170042   5.199   0.148   1.143  0.4084  1.1219  0.5252
16209TIP3    H270043   5.163   0.293   1.164 -0.9139  0.6267  1.8079
16210TIP3   OH270044   6.024   4.077   0.457  0.2022  0.1692 -0.2830
16210TIP3    H170045   6.073   4.150   0.419 -0.3928  1.6048  1.6309
16210TIP3    H270046   5.943   4.073   0.405 -0.2616  1.6043  0.3130
16211TIP3   OH270047   3.747   5.000  12.639  0.1571  0.3684  0.1967
16211TIP3    H170048   3.692   5.012  12.562  2.2982 -0.1347 -1.4382
16211TIP3    H270049   3.725   4.913  12.671  0.4101 -0.0713 -0.8044
16212TIP3   OH270050   3.148   4.190  12.950 -0.1493  0.2506  0.6465
16212TIP3    H170051   3.057   4.163  12.958 -0.3952  0.5242 -1.0374
16212TIP3    H270052   3.145   4.285  12.955 -0.2141  0.3834 -1.5068
16213TIP3   OH270053   6.065   1.915   3.398  0.1583  0.6430  0.1697
16213TIP3    H170054   6.130   1.873   3.341 -0.2649  0.3387 -0.0858
16213TIP3    H270055   6.075   1.869   3.482  0.7748  1.0857  0.3456
16214TIP3   OH270056   5.383   5.506   5.307 -0.1355 -0.3901 -0.1172
16214TIP3    H170057   5.434   5.566   5.253  0.2106  0.2301  0.8758
16214TIP3    H270058   5.304   5.555   5.330 -0.8109 -1.0528 -0.9695
16215TIP3   OH270059   3.769   3.971   0.483  1.1253 -0.0206 -0.1093
16215TIP3    H170060   3.744   3.912   0.555  0.8519  0.3636  0.1123
16215TIP3    H270061   3.790   3.912   0.411  2.4682 -0.4432  0.6226
16216TIP3   OH270062   4.476   0.130  16.391 -0.1826  0.2952  0.6803
16216TIP3    H170063   4.481   0.101  16.482  0.1737 -3.1907 -0.3792
16216TIP3    H270064   4.392   0.176  16.386 -0.2025  0.5341  2.7800
16217TIP3   OH270065   0.257   5.015  16.794 -0.1801  0.6210  0.1784
16217TIP3    H170066   0.235   4.985  16.706 -1.5544  0.4319  0.5781
16217TIP3    H270067   0.211   5.098  16.804  0.1030  0.7221  0.6600
16218TIP3   OH270068   5.552   0.971   4.971  0.0551 -0.0760  0.2314
16218TIP3    H170069   5.590   1.049   5.011 -0.9720  0.6970 -0.2743
16218TIP3    H270070   5.572   0.981   4.877  1.7967 -1.4981  0.4335
16219TIP3   OH270071   6.271   0.424   1.545 -0.5267  0.4602 -0.1498
16219TIP3    H170072   6.191   0.448   1.499 -0.7493  0.8357  0.4312
16219TIP3    H270073   6.332   0.399   1.476 -0.2579  2.7841 -0.7839
16220TIP3   OH270074   2.301   5.542   0.038 -0.1240 -0.3501 -0.0972
16220TIP3    H170075   2.307   5.500   0.124  0.1240 -1.7718 -0.7916
16220TIP3    H270076   2.383   5.518  -0.006 -0.5157 -0.1443 -0.9478
16221TIP3   OH270077   4.451   3.607   2.087 -0.2109  0.3270  0.2161
16221TIP3    H170078   4.408   3.692   2.092  1.6909  1.3448 -0.2186
16221TIP3    H270079   4.381   3.543   2.101 -1.6105  1.9662  0.7941
16222TIP3   OH270080   0.101   0.853   5.729  0.0377  0.5363 -0.0056
16222TIP3    H170081   0.150   0.820   5.655  0.4347  1.1181 -0.0035
16222TIP3    H270082   0.153   0.926   5.762 -0.8488  1.1805 -0.0334
16223TIP3   OH270083   0.059   6.634  12.641 -0.1608 -0.2386  0.1189
16223TIP3    H170084   0.043   6.566  12.576  2.4385 -0.2157 -0.5931
16223TIP3    H270085  -0.021   6.686  12.641 -0.1862 -0.1438 -3.2102
16224TIP3   OH270086   6.506   5.543  11.640 -0.2503  0.2159 -0.1239
16224TIP3    H170087   6.585   5.495  11.613 -1.0682 -0.3464 -1.5615
16224TIP3    H270088   6.500   5.615  11.577 -0.9931  0.1337 -0.1479
16225TIP3   OH270089   4.032   5.530   3.930 -0.2783  0.1666  0.0127
16225TIP3    H170090   4.073   5.477   3.862  1.4641 -0.6097  1.6354
16225TIP3    H270091   4.055   5.486   4.012 -2.3890  1.0530  1.1158
16226TIP3   OH270092   0.992   0.573  13.673 -0.5183 -0.0273  0.0192
16226TIP3    H170093   0.969   0.531  13.590  0.4911  0.9681 -0.7813
16226TIP3    H270094   1.087   0.567  13.677 -0.5530  0.0511  1.0467
16227TIP3   OH270095   6.544   1.108  15.068  0.1822  0.1922  0.9399
16227TIP3    H170096   6.533   1.025  15.020 -3.2000  1.0808  0.0554
16227TIP3    H270097   6.526   1.085  15.159  1.4464 -0.4437  1.0515
16228TIP3   OH270098   4.300   2.579   0.210 -0.3945 -0.2635 -0.0429
16228TIP3    H170099   4.261   2.667   0.208 -1.6213 -0.8120 -0.8634
16228TIP3    H270100   4.325   2.566   0.302  0.1570  1.0877  0.0160
16229TIP3   OH270101   4.297   5.236   3.170  0.3775 -0.0314  0.2038
16229TIP3    H170102   4.319   5.147   3.197 -2.8510 -0.4443  1.8149
16229TIP3    H270103   4.341   5.248   3.086  2.4430 -2.4193  0.8883
16230TIP3   OH270104   1.438   5.952   5.534 -0.4771 -0.6967  0.1970
16230TIP3    H170105   1.412   5.935   5.443 -1.1550  1.7928 -0.1119
16230TIP3    H270106   1.394   6.034   5.556  2.3668  0.4640  1.6928
16231TIP3   OH270107   2.729   1.464   2.385 -0.3500 -0.3603 -0.4129
16231TIP3    H170108   2.803   1.404   2.378 -0.0909  0.1164 -1.8537
16231TIP3    H270109   2.769   1.550   2.401 -0.5490 -0.0249 -1.6418
16232TIP3   OH270110   6.682   1.900   0.811 -0.3757 -0.0764  0.2236
16232TIP3    H170111   6.767   1.879   0.773 -0.2143  0.3899  0.3169
16232TIP3    H270112   6.619   1.856   0.755 -0.1999  1.3387 -1.1347
16233TIP3   OH270113   6.291   3.272  15.435  0.8183  0.2482 -0.7199
16233TIP3    H170114   6.211   3.265  15.487 -0.3354  0.7001 -2.4216
16233TIP3    H270115   6.266   3.321  15.357  3.0379  1.4379 -0.7234
16234TIP3   OH270116   5.891   1.615  15.074  0.1201 -0.3515  0.0653
16234TIP3    H170117   5.842   1.684  15.119  2.4269 -0.0264  2.2199
16234TIP3    H270118   5.894   1.543  15.137  1.0605 -0.9234 -0.6290
16235TIP3   OH270119   0.405   5.115  11.608 -0.2350 -0.0830  1.0032
16235TIP3    H170120   0.458   5.162  11.672  2.1750  0.6274 -1.4214
16235TIP3    H270121   0.445   5.028  11.604  0.7336  0.4106 -0.7257
16236TIP3   OH270122   3.454   0.677  11.920  0.4723  0.3943  0.2877
16236TIP3    H170123   3.370   0.664  11.965 -0.3986  0.3530 -1.3012
16236TIP3    H270124   3.482   0.588  11.898  1.0207  0.3983  0.9765
16237TIP3   OH270125   0.531   0.895   1.219 -0.3226  0.4691  0.2003
16237TIP3    H170126   0.577   0.860   1.295  1.3396  0.2308 -0.9028
16237TIP3    H270127   0.544   0.989   1.224  0.0476  0.4267  0.0459
16238TIP3   OH270128   3.608   5.473  14.972 -0.3582 -0.3705 -0.3321
16238TIP3    H170129   3.683   5.469  15.031 -0.0531  1.1093 -0.6057
16238TIP3    H270130   3.551   5.401  15.000  0.2231 -0.2644  1.1367
16239TIP3   OH270131   6.249   6.387   0.156 -0.0395  0.5517 -0.2075
16239TIP3    H170132   6.228   6.368   0.065 -1.7032 -1.6762  0.5895
16239TIP3    H270133   6.341   6.363   0.165 -0.2379 -0.5556 -0.9831
16240TIP3   OH270134   2.945   5.748   4.662 -0.2110  0.2786  0.8618
16240TIP3    H170135   2.959   5.831   4.617  0.5886 -1.1319 -1.5913
16240TIP3    H270136   2.853   5.751   4.689 -1.1161  0.6539 -2.0640
16241TIP3   OH270137   4.123   3.320  11.627  0.1137 -0.8455 -0.2339
16241TIP3    H170138   4.164   3.377  11.562 -0.7803  0.4565  0.3003
16241TIP3    H270139   4.098   3.380  11.698 -1.1856 -1.8527  0.1783
16242TIP3   OH270140   1.137   4.394   5.278 -0.3810 -1.1925  1.0075
16242TIP3    H170141   1.152   4.311   5.322  0.5791 -0.7825  1.4676
16242TIP3    H270142   1.131   4.459   5.348 -1.6924 -0.9514  0.6865
16243TIP3   OH270143   4.991   0.590  14.341 -0.6955 -0.1409 -0.4467
16243TIP3    H170144   5.057   0.549  14.396 -0.6912 -0.1024 -0.4225
16243TIP3    H270145   4.908   0.572  14.385 -0.5599  1.1338  0.3477
16244TIP3   OH270146   1.057   0.949   1.739 -0.0219 -0.4056  0.0819
16244TIP3    H170147   1.087   0.878   1.796  0.5946 -0.4510 -0.2975
16244TIP3    H270148   0.962   0.941   1.738  0.0714 -1.5353 -0.3449
16245TIP3   OH270149   0.135   5.503  11.116 -0.1731 -0.3910 -0.4013
16245TIP3    H170150   0.105   5.594  11.107  2.1348  0.5250  0.6432
16245TIP3    H270151   0.138   5.470  11.026  1.2953  1.3742 -1.0299
16246TIP3   OH270152   1.133   0.477  13.007 -0.3043  0.5339 -0.4411
16246TIP3    H170153   1.158   0.390  12.977  2.2465  1.2165 -0.4357
16246TIP3    H270154   1.056   0.500  12.955 -0.2837 -1.2353 -1.2726
16247TIP3   OH270155   0.769   5.201   0.587 -0.3352  0.2564 -0.6134
16247TIP3    H170156   0.749   5.276   0.530 -0.1179  1.4586  0.8414
16247TIP3    H270157   0.855   5.222   0.624 -1.2579  0.3889  1.5265
16248TIP3   OH270158   5.515   6.368  11.897 -0.6163  0.1212 -0.3153
16248TIP3    H170159   5.482   6.449  11.936 -1.6096 -0.6091  0.3750
16248TIP3    H270160   5.591   6.345  11.951 -0.9358  0.0565  0.1125
16249TIP3   OH270161   4.358   5.755   1.198 -0.0746  0.6136 -0.0094
16249TIP3    H170162   4.437   5.707   1.225  0.5532  1.5142 -0.2120
16249TIP3    H270163   4.365   5.840   1.242 -1.0315  0.6289  0.1252
16250TIP3   OH270164   3.770   3.092  15.190 -0.0451  0.2478 -0.1578
16250TIP3    H170165   3.847   3.139  15.223  1.0047 -0.1515 -1.9278
16250TIP3    H270166   3.792   2.999  15.202 -2.0902  0.1243  3.2828
16251TIP3   OH270167   6.628   2.023   2.718 -1.2630  0.3031  0.1448
16251TIP3    H170168   6.680   2.023   2.638 -0.7977 -1.9965  0.4170
16251TIP3    H270169   6.554   2.081   2.698 -1.4146 -0.6201 -2.1145
16252TIP3   OH270170   0.373   1.975   4.579  0.0505  0.8324 -0.4265
16252TIP3    H170171   0.454   1.983   4.530  1.0289  2.6281  1.4030
16252TIP3    H270172   0.400   1.978   4.671 -2.2495  4.0164  0.2446
16253TIP3   OH270173   5.523   6.069  15.856  0.5676  0.2303  0.3620
16253TIP3    H170174   5.513   6.161  15.832 -1.2618 -0.0477  0.0005
16253TIP3    H270175   5.518   6.069  15.951 -0.6033  0.3748  0.3036
16254TIP3   OH270176   1.691   4.042  12.058  0.2797 -0.5126  0.2627
16254TIP3    H170177   1.708   4.073  12.147 -0.5619 -0.7670  0.5214
16254TIP3    H270178   1.771   4.061  12.009  1.4272 -1.9610  1.5132
16255TIP3   OH270179   1.638   2.721  14.328  0.3338  0.3557 -0.0393
16255TIP3    H170180   1.598   2.637  14.307 -0.4432  0.6992  0.0459
16255TIP3    H270181   1.705   2.733  14.261  0.6691 -0.4848  0.1489
16256TIP3   OH270182   0.681   4.723  13.199  1.0333 -0.5687  0.2197
16256TIP3    H170183   0.589   4.701  13.186  1.0943 -1.4158  1.1637
16256TIP3    H270184   0.696   4.800  13.144 -0.2273 -0.4398  0.0589
16257TIP3   OH270185   1.876   4.800  11.586  0.3156 -0.1422  0.2711
16257TIP3    H170186   1.847   4.764  11.502  0.8576  0.5454 -0.2089
16257TIP3    H270187   1.855   4.731  11.649  0.9930 -1.1456 -0.5890
16258TIP3   OH270188   2.268   1.527   3.770  0.0740 -0.4425  0.2728
16258TIP3    H170189   2.280   1.560   3.682 -0.0196 -1.0088  0.0438
16258TIP3    H270190   2.299   1.597   3.827 -0.0992  0.0200 -0.2043
16259TIP3   OH270191   2.444   4.150  13.831 -0.3641 -0.3741  0.2112
16259TIP3    H170192   2.370   4.179  13.779 -0.4033  0.2243  0.6003
16259TIP3    H270193   2.405   4.117  13.912 -0.3896 -2.2557 -0.5282
16260TIP3   OH270194   0.325   1.707   2.566  0.5413 -0.0215 -0.1282
16260TIP3    H170195   0.286   1.642   2.624  0.4569  0.5769  0.4970
16260TIP3    H270196   0.268   1.783   2.574  1.5875  0.7160  0.4716
16261TIP3   OH270197   3.797   0.732  15.809 -0.1178 -0.2583  0.2567
16261TIP3    H170198   3.732   0.704  15.874 -0.4338 -0.6924 -0.2521
16261TIP3    H270199   3.855   0.657  15.800 -1.5062 -1.1160 -1.7987
16262TIP3   OH270200   1.764   6.585  11.872 -0.3307 -0.3248  0.0065
16262TIP3    H170201   1.846   6.537  11.858  0.2437  0.4059  0.8075
16262TIP3    H270202   1.780   6.672  11.834 -0.0663  0.4404  1.8435
16263TIP3   OH270203   1.070   1.591   2.280 -0.1094  0.1957  0.2956
16263TIP3    H170204   1.139   1.657   2.278  0.1701 -0.1088 -0.4110
16263TIP3    H270205   1.104   1.519   2.227 -0.8414 -0.0862  0.1969
16264TIP3   OH270206   3.126   1.137  13.182  0.1581  0.5893  0.1527
16264TIP3    H170207   3.078   1.095  13.254  0.5997  1.0518  0.7274
16264TIP3    H270208   3.093   1.227  13.182 -0.1118  0.4904 -0.4725
16265TIP3   OH270209   5.598   4.326   1.250  0.7050 -0.4281 -0.0519
16265TIP3    H170210   5.627   4.306   1.339 -0.3837  3.1286  1.1591
16265TIP3    H270211   5.677   4.361   1.207  0.3881  1.0956  0.5893
16266TIP3   OH270212   2.609   1.499   1.222 -0.4826  0.1364  0.0895
16266TIP3    H170213   2.695   1.493   1.263 -0.0956  0.3166 -0.7026
16266TIP3    H270214   2.566   1.416   1.245 -0.3217  0.2841  0.9639
16267TIP3   OH270215   1.058   4.263   0.827  0.0507 -0.0248 -0.0724
16267TIP3    H170216   0.971   4.264   0.787 -0.2778  1.2695  0.6703
16267TIP3    H270217   1.097   4.182   0.795 -0.3909  0.7071 -2.6281
16268TIP3   OH270218   4.295   3.232   3.485  0.3262 -0.0188  0.1725
16268TIP3    H170219   4.233   3.159   3.490  2.0335 -1.5734 -0.9360
16268TIP3    H270220   4.280   3.270   3.399  0.9794 -0.4873 -0.1568
16269TIP3   OH270221   4.775   4.315   1.473  0.0935  0.0243 -0.3556
16269TIP3    H170222   4.737   4.397   1.443  2.0568  0.5926 -1.3368
16269TIP3    H270223   4.848   4.299   1.413  1.0003 -1.3810  1.0960
16270TIP3   OH270224   3.219   5.984  14.056 -0.1700 -0.2182 -0.8017
16270TIP3    H170225   3.143   5.940  14.019  0.4364 -0.9232 -1.2191
16270TIP3    H270226   3.262   5.917  14.110 -1.2437  0.8923  1.4988
16271TIP3   OH270227   5.481   3.111   2.519 -0.6998 -0.4563  0.1082
16271TIP3    H170228   5.523   3.126   2.435 -2.4159 -2.2010 -1.0868
16271TIP3    H270229   5.548   3.066   2.571 -0.0405 -0.4303 -0.7021
16272TIP3   OH270230   6.355   4.202   3.861  0.6744 -0.1164 -0.0411
16272TIP3    H170231   6.336   4.108   3.864 -2.4794  0.4425 -1.3542
16272TIP3    H270232   6.368   4.221   3.768  1.1522  0.7919  0.2064
16273TIP3   OH270233   4.208   4.657  14.528  0.4923  0.5662  0.4930
16273TIP3    H170234   4.240   4.638  14.440  0.8174 -1.1380  0.9680
16273TIP3    H270235   4.267   4.726  14.560  2.5514 -1.2311  0.6656
16274TIP3   OH270236   3.524   2.611   5.619 -0.0076  1.3028  0.1568
16274TIP3    H170237   3.600   2.593   5.675  0.8745  0.0125 -1.4221
16274TIP3    H270238   3.490   2.695   5.651  0.7506  0.8112  2.3104
16275TIP3   OH270239   0.069   0.365   3.195  0.1506 -0.6549  0.3542
16275TIP3    H170240  -0.001   0.316   3.151 -1.6099  1.2370  0.9779
16275TIP3    H270241   0.137   0.375   3.128 -1.2676 -0.3374 -1.0606
16276TIP3   OH270242   2.975   4.112  11.766  0.4687  0.2366 -0.5577
16276TIP3    H170243   2.957   4.132  11.858  2.3011  1.3125 -0.4217
16276TIP3    H270244   2.955   4.019  11.757  0.1532  0.1592  0.8945
16277TIP3   OH270245   3.477   1.220   1.800  0.4769  0.7327  0.5157
16277TIP3    H170246   3.483   1.179   1.713  2.7753  0.1883  0.9025
16277TIP3    H270247   3.448   1.310   1.782 -0.2556  0.2614 -0.7130
16278TIP3   OH270248   6.190   3.312   5.426 -0.9531 -0.3839 -0.2082
16278TIP3    H170249   6.111   3.362   5.445 -0.5773 -0.3865  1.4285
16278TIP3    H270250   6.171   3.224   5.460 -1.6032 -1.3965 -3.0293
16279TIP3   OH270251   4.473   5.295   1.211 -0.1236  0.0758  0.0044
16279TIP3    H170252   4.434   5.361   1.153  1.1975  1.4539  0.6569
16279TIP3    H270253   4.487   5.341   1.294  0.3802 -1.1671  0.6252
16280TIP3   OH270254   2.737   5.301   3.274  0.9258  0.1802 -0.2218
16280TIP3    H170255   2.827   5.291   3.244  1.2011 -1.7221  1.1412
16280TIP3    H270256   2.731   5.391   3.304  2.0222  0.6624 -1.4245
16281TIP3   OH270257   2.180   4.416  16.349  0.0751  0.2379  0.8132
16281TIP3    H170258   2.218   4.495  16.387  0.3908  1.1321 -1.2950
16281TIP3    H270259   2.100   4.400  16.399 -0.3571  2.3063  0.8028
16282TIP3   OH270260   2.052   1.166   4.368  0.1900  0.4136 -0.3900
16282TIP3    H170261   2.062   1.261   4.368 -0.3781  0.4745 -0.7313
16282TIP3    H270262   1.958   1.151   4.357  0.3937 -0.2015 -1.3394
16283TIP3   OH270263   1.731   2.180  15.686 -0.7550 -0.1311 -0.2771
16283TIP3    H170264   1.733   2.276  15.678 -0.6618 -0.0531  0.6121
16283TIP3    H270265   1.764   2.148  15.602  1.1843  0.6439  0.1537
16284TIP3   OH270266   6.523   6.113   5.784  0.3043 -0.0379  0.3199
16284TIP3    H170267   6.473   6.194   5.788  1.1326  0.4080  2.5686
16284TIP3    H270268   6.614   6.142   5.771  0.4860 -0.6207  0.2712
16285TIP3   OH270269   1.660   5.121   4.033 -0.2185 -0.1858 -0.2146
16285TIP3    H170270   1.709   5.070   4.097 -1.6407 -2.0206 -0.5560
16285TIP3    H270271   1.637   5.202   4.080  0.2860 -0.7351  1.0040
16286TIP3   OH270272   1.397   3.460   4.108 -0.6527  0.4743  0.4522
16286TIP3    H170273   1.382   3.373   4.143 -0.3446  0.6737  1.0708
16286TIP3    H270274   1.329   3.470   4.041 -1.5008  0.2552  1.2661
16287TIP3   OH270275   3.059   0.251  15.042  0.1551 -0.0133 -0.6690
16287TIP3    H170276   3.017   0.335  15.059  0.3283 -0.1771  0.5963
16287TIP3    H270277   3.151   0.272  15.026  0.4994 -0.1005  1.1395
16288TIP3   OH270278   2.945   3.177  12.797  0.0437 -0.6824 -0.2498
16288TIP3    H170279   2.910   3.266  12.807  0.3250 -0.6557  0.4767
16288TIP3    H270280   3.015   3.171  12.861  0.7060 -1.0916 -1.0016
16289TIP3   OH270281   1.207   0.058   4.216 -0.1036 -0.3371 -0.4820
16289TIP3    H170282   1.259   0.139   4.216 -0.4867 -0.0905 -1.4874
16289TIP3    H270283   1.172   0.052   4.127 -0.7471 -1.1822 -0.1711
16290TIP3   OH270284   3.643   2.423   6.648 -0.6395  0.0628 -0.2150
16290TIP3    H170285   3.675   2.332   6.650  1.2211  0.6728 -1.1795
16290TIP3    H270286   3.559   2.418   6.604 -0.6984 -1.2464  0.0306
16291TIP3   OH270287   4.886   1.579   3.727 -0.0521  0.0730  0.0646
16291TIP3    H170288   4.958   1.516   3.721 -2.2917 -2.6876  1.0370
16291TIP3    H270289   4.855   1.587   3.637  0.4959  0.0609 -0.1267
16292TIP3   OH270290   3.339   2.451  11.525 -0.1397  0.4521  0.3027
16292TIP3    H170291   3.337   2.510  11.600  0.6332 -0.7929  1.3230
16292TIP3    H270292   3.292   2.373  11.554 -0.8562  0.4045 -0.9167
16293TIP3   OH270293   0.901   0.372   1.063  0.1273 -0.5408  0.7309
16293TIP3    H170294   0.828   0.327   1.020  0.4792 -0.9330  0.5308
16293TIP3    H270295   0.931   0.437   0.999 -0.1543 -0.2645  0.8797
16294TIP3   OH270296   3.505   1.735  13.012  0.3951  0.1374  0.2744
16294TIP3    H170297   3.551   1.667  13.060  0.1578  0.6954  1.3043
16294TIP3    H270298   3.574   1.786  12.970  0.5661 -0.7999 -0.5931
16295TIP3   OH270299   4.300   1.695   4.014  0.1441  0.1328 -0.5741
16295TIP3    H170300   4.214   1.734   4.031 -0.4032 -1.7405  1.2027
16295TIP3    H270301   4.361   1.750   4.064 -0.3334  0.0484  0.1154
16296TIP3   OH270302   5.826   1.232   6.122  0.2969 -0.3124 -0.0673
16296TIP3    H170303   5.766   1.159   6.137  1.1042 -0.8185  0.7405
16296TIP3    H270304   5.782   1.286   6.056 -2.5717  1.0499  2.8407
16297TIP3   OH270305   1.207   5.042   0.534 -0.3318  0.0102  0.1700
16297TIP3    H170306   1.237   5.132   0.538  1.2037 -0.5311  1.1102
16297TIP3    H270307   1.210   5.011   0.625 -1.3958 -0.8101 -0.0608
16298TIP3   OH270308   1.343   3.564   4.636  0.5016  0.5273  0.5172
16298TIP3    H170309   1.273   3.624   4.611  0.9700  0.8535 -0.0125
16298TIP3    H270310   1.384   3.539   4.553 -0.1380 -1.0748  0.6713
16299TIP3   OH270311   3.280   2.160   3.164 -0.2837  0.2967  0.4287
16299TIP3    H170312   3.231   2.187   3.086 -0.1754  1.7331  0.8410
16299TIP3    H270313   3.368   2.142   3.133 -0.3488  0.4573  0.1561
16300TIP3   OH270314   4.021   5.271   2.440 -0.3425  0.4398 -0.1784
16300TIP3    H170315   3.948   5.275   2.378  0.1395  1.3414 -0.7096
16300TIP3    H270316   3.980   5.260   2.525 -1.0745  0.3761 -0.5350
16301TIP3   OH270317   5.565   5.428  11.496  0.2049 -0.1695 -0.0426
16301TIP3    H170318   5.615   5.358  11.538 -0.1120 -0.1186  0.4213
16301TIP3    H270319   5.496   5.450  11.559 -0.7198 -0.5871 -0.9075
16302TIP3   OH270320   0.241   3.054  13.635 -0.4875 -0.1988 -0.2308
16302TIP3    H170321   0.163   3.100  13.604 -0.4547 -0.3006 -0.4669
16302TIP3    H270322   0.217   3.021  13.721 -0.6744 -0.1531 -0.2655
16303TIP3   OH270323   1.244   3.172  17.136 -0.0557  0.0837 -0.1744
16303TIP3    H170324   1.327   3.156  17.182  0.7383 -0.3995 -1.7158
16303TIP3    H270325   1.177   3.161  17.203  1.0523 -0.6846  0.8462
16304TIP3   OH270326   1.502   0.458   1.988 -0.2503 -0.5799  0.1871
16304TIP3    H170327   1.555   0.472   2.066 -0.5157 -0.7104  0.3862
16304TIP3    H270328   1.478   0.366   1.990  0.7286 -0.8724 -0.6588
16305TIP3   OH270329   6.484   2.741   5.530 -0.0383  0.3548 -0.3154
16305TIP3    H170330   6.511   2.766   5.442  0.5105  0.5562 -0.0930
16305TIP3    H270331   6.447   2.821   5.568 -1.6144 -0.0984 -0.8649
16306TIP3   OH270332   5.048   0.301  15.692 -0.3534  0.9377 -0.5562
16306TIP3    H170333   5.013   0.370  15.748  1.4830  0.9067  0.6593
16306TIP3    H270334   5.096   0.348  15.623  0.6696  0.8986  0.1198
16307TIP3   OH270335   5.619   3.508   6.521 -0.1511 -0.4735  0.7214
16307TIP3    H170336   5.655   3.419   6.530  2.2024  0.2531 -1.0248
16307TIP3    H270337   5.681   3.563   6.569  0.8521  0.7211 -1.8379
16308TIP3   OH270338   6.172   1.806  12.476  0.4336  0.0577  0.2068
16308TIP3    H170339   6.159   1.757  12.558 -0.0548 -0.1623 -0.0010
16308TIP3    H270340   6.267   1.816  12.470  0.5461 -0.8671  0.2580
16309TIP3   OH270341   0.876   4.920   5.212 -0.3528 -0.0574 -0.1810
16309TIP3    H170342   0.949   4.952   5.159  0.4120 -2.2350 -0.4779
16309TIP3    H270343   0.799   4.937   5.158  0.1228  0.4581 -0.7126
16310TIP3   OH270344   4.486   3.001   0.590  0.4591 -0.1340 -0.1523
16310TIP3    H170345   4.437   3.081   0.610  0.9872  0.1922 -0.1806
16310TIP3    H270346   4.517   2.970   0.675  0.6854 -0.0333 -0.1980
16311TIP3   OH270347   0.873   6.290   0.937 -0.3309  0.2155  0.2569
16311TIP3    H170348   0.849   6.230   1.007 -0.3122 -0.8358 -0.6175
16311TIP3    H270349   0.791   6.312   0.894 -0.2173 -0.0487 -0.1004
16312TIP3   OH270350   6.351   6.538  12.634  0.3807  1.0099  0.1930
16312TIP3    H170351   6.338   6.553  12.540  0.8161  2.2512  0.3153
16312TIP3    H270352   6.423   6.598  12.657  1.0386 -0.1093  1.0785
16313TIP3   OH270353   3.222   2.117  14.251 -0.6301  0.1499  0.1542
16313TIP3    H170354   3.171   2.041  14.275 -0.7120  0.4153  0.8349
16313TIP3    H270355   3.290   2.083  14.193 -0.3291 -0.5287  0.8947
16314TIP3   OH270356   6.227   0.540  15.634  0.0964  0.0144 -0.3987
16314TIP3    H170357   6.272   0.588  15.703 -0.2370 -0.5096  0.1916
16314TIP3    H270358   6.257   0.450  15.644  0.0623 -0.0604 -0.9500
16315TIP3   OH270359   6.187   3.378  14.057 -0.2069 -0.1576  0.0262
16315TIP3    H170360   6.143   3.362  14.140  0.2276 -1.0851  0.0856
16315TIP3    H270361   6.239   3.457  14.072  1.4178 -1.4219  1.2673
16316TIP3   OH270362   4.176   1.258   4.584  0.3458 -0.4796 -0.7632
16316TIP3    H170363   4.149   1.324   4.647 -0.4817  0.8892 -2.5083
16316TIP3    H270364   4.271   1.259   4.587  0.3235  0.0243 -0.0193
16317TIP3   OH270365   6.450   0.582  15.450  0.5834  0.0353 -0.3170
16317TIP3    H170366   6.415   0.670  15.465  1.6798  0.4096  0.1051
16317TIP3    H270367   6.377   0.524  15.468  0.0201  0.8312  0.0087
16318TIP3   OH270368   4.526   2.720  16.722  0.4874  0.1491  0.5591
16318TIP3    H170369   4.516   2.626  16.703  1.2083  0.1804  0.0117
16318TIP3    H270370   4.524   2.762  16.636 -0.2182  0.6759  0.8301
16319TIP3   OH270371   0.827   2.587   1.410 -0.6217 -0.1584  0.4043
16319TIP3    H170372   0.801   2.508   1.362 -1.2666 -0.1595  0.7552
16319TIP3    H270373   0.807   2.659   1.350 -0.8841 -0.2014  0.4382
16320TIP3   OH270374   1.438   1.769  16.469  0.2926 -0.3361  0.6798
16320TIP3    H170375   1.492   1.843  16.443 -0.6000  0.4908  1.1687
16320TIP3    H270376   1.501   1.700  16.492  1.0942 -0.2469 -1.2270
16321TIP3   OH270377   2.802   2.843   5.665 -0.2156  0.0807 -0.1743
16321TIP3    H170378   2.775   2.923   5.620 -0.5189 -0.6770 -1.3649
16321TIP3    H270379   2.883   2.817   5.621  1.2273  1.0461  1.8161
16322TIP3   OH270380   6.134   1.009  11.483 -0.2700  0.2261 -0.5453
16322TIP3    H170381   6.064   0.945  11.492 -0.6051  0.4298 -1.6374
16322TIP3    H270382   6.149   1.041  11.572 -1.1895 -0.2060 -0.2288
16323TIP3   OH270383   2.936   3.606  16.636 -0.3951  0.3761 -0.5191
16323TIP3    H170384   2.933   3.511  16.648  0.4358 -0.0127 -3.0631
16323TIP3    H270385   2.960   3.641  16.722 -0.6823 -1.7055  0.4294
16324TIP3   OH270386   5.265   2.110  16.695  0.3152  0.0708 -0.1075
16324TIP3    H170387   5.239   2.104  16.787  0.9652 -1.3340 -0.0085
16324TIP3    H270388   5.339   2.170  16.695  1.3079 -1.1341  0.5009
16325TIP3   OH270389   2.443   0.739  14.621  0.2261  0.2487  0.2642
16325TIP3    H170390   2.357   0.699  14.628 -0.9003  3.0093  4.2601
16325TIP3    H270391   2.504   0.670  14.648 -0.8995 -1.0278 -0.3944
16326TIP3   OH270392   0.640   6.424   2.671  0.0027 -0.3127 -0.4288
16326TIP3    H170393   0.560   6.421   2.724 -0.1181 -0.1375 -0.5999
16326TIP3    H270394   0.609   6.444   2.583  0.2204 -0.4131 -0.5268
16327TIP3   OH270395   2.042   1.897  13.206  0.0816 -0.0849 -0.1621
16327TIP3    H170396   2.094   1.819  13.224 -0.7130 -0.3198  1.2778
16327TIP3    H270397   2.076   1.963  13.267  0.8560  0.7492 -1.4839
16328TIP3   OH270398   1.524   4.403  15.271  0.9389  0.5344 -0.3278
16328TIP3    H170399   1.478   4.324  15.301  0.2620  0.1780 -2.2472
16328TIP3    H270400   1.611   4.371  15.247  0.3735  0.1771 -1.9717
16329TIP3   OH270401   1.032   5.686   1.503  0.3724  0.2384  0.0338
16329TIP3    H170402   0.990   5.746   1.564  0.7991  0.5637  0.0089
16329TIP3    H270403   1.091   5.633   1.557  0.1039 -0.0609  0.0342
16330TIP3   OH270404   2.932   0.480  11.120 -0.1105  0.3325  0.1562
16330TIP3    H170405   2.954   0.539  11.047 -2.1817  0.0296 -0.7524
16330TIP3    H270406   3.006   0.489  11.180  1.8610  0.2689 -2.1562
16331TIP3   OH270407   2.449   3.112   4.216 -0.1758 -0.5289 -0.0252
16331TIP3    H170408   2.424   3.109   4.124 -0.2288 -0.0535 -0.0261
16331TIP3    H270409   2.499   3.031   4.230 -2.5193 -2.0032  0.2060
16332TIP3   OH270410   5.203   3.966  14.025  0.3962  0.2535  0.0286
16332TIP3    H170411   5.130   4.026  14.008  0.9463  1.0377  0.4059
16332TIP3    H270412   5.183   3.928  14.110 -0.7860 -1.3418 -0.9423
16333TIP3   OH270413   5.650   6.502   5.178 -0.0265 -0.7726 -0.2455
16333TIP3    H170414   5.720   6.567   5.174 -0.7987  0.2601  2.0266
16333TIP3    H270415   5.658   6.462   5.265 -1.3015 -1.7165 -0.5379
16334TIP3   OH270416   6.595   2.050   3.493 -0.1250 -0.0572  0.1475
16334TIP3    H170417   6.569   2.133   3.533  0.6458  0.9053 -1.3021
16334TIP3    H270418   6.658   2.012   3.554 -0.7923  0.2326  1.0158
16335TIP3   OH270419   1.647   5.523   1.435  0.6755  0.2440  0.4284
16335TIP3    H170420   1.623   5.612   1.413 -0.0147 -0.0082  0.1563
16335TIP3    H270421   1.698   5.493   1.360 -1.1495 -0.4041 -0.5759
16336TIP3   OH270422   3.230   3.350  15.933  0.6228  0.3033  0.2853
16336TIP3    H170423   3.170   3.352  16.008  0.7433 -1.0201  0.4204
16336TIP3    H270424   3.227   3.439  15.898 -0.5761  0.5357  0.9573
16337TIP3   OH270425   4.951   4.725  13.758  0.4595  0.2697 -0.2734
16337TIP3    H170426   4.995   4.649  13.719  1.1327  1.1094 -1.1693
16337TIP3    H270427   4.951   4.707  13.852 -2.9073 -2.7229 -0.7082
16338TIP3   OH270428   0.653   3.419   5.662  0.5226  0.0517  0.4241
16338TIP3    H170429   0.732   3.365   5.660  2.1198  2.3247 -0.3183
16338TIP3    H270430   0.606   3.389   5.740  1.0039 -2.8394 -0.3515
16339TIP3   OH270431   0.277   2.277  12.315 -0.2828 -0.1198 -0.2825
16339TIP3    H170432   0.333   2.275  12.392 -0.5257  1.4117 -0.0363
16339TIP3    H270433   0.321   2.339  12.256 -1.2216  0.3849 -0.4590
16340TIP3   OH270434   4.295   6.660  10.624 -0.3993 -0.1565  0.4144
16340TIP3    H170435   4.203   6.651  10.599 -0.5295 -2.2704  1.5673
16340TIP3    H270436   4.313   6.754  10.615 -2.1263  0.0152 -1.6235
16341TIP3   OH270437   2.276   5.784  10.352  0.3782  0.4264 -0.1492
16341TIP3    H170438   2.304   5.710  10.299 -0.2681 -2.5653  3.4156
16341TIP3    H270439   2.184   5.796  10.330  0.9238  1.3161 -1.9827
16342TIP3   OH270440   2.264   6.283  12.295  0.0057 -0.7074  0.2978
16342TIP3    H170441   2.314   6.353  12.336 -0.2619  0.1200 -0.7634
16342TIP3    H270442   2.331   6.226  12.257  0.1788  0.0439 -0.5469
16343TIP3   OH270443   1.748   1.108  11.129  0.5722 -0.1250  0.5771
16343TIP3    H170444   1.778   1.190  11.089  1.1819  0.1824  1.6510
16343TIP3    H270445   1.719   1.055  11.055  3.9634 -0.5239 -0.5693
16344TIP3   OH270446   1.517   6.077  13.796  0.5247 -0.0218  0.0017
16344TIP3    H170447   1.436   6.080  13.745  0.1656  0.7697  0.6131
16344TIP3    H270448   1.533   6.168  13.822  0.4642 -0.4800  1.6833
16345TIP3   OH270449   5.435   2.211   3.638 -0.3923 -0.0459 -0.0062
16345TIP3    H170450   5.407   2.126   3.604 -2.4657  0.3992  0.5503
16345TIP3    H270451   5.515   2.192   3.688 -2.4878 -2.1553  2.6811
16346TIP3   OH270452   3.321   1.250  14.429  0.5683 -0.4136  0.4816
16346TIP3    H170453   3.281   1.164  14.421  1.5315 -0.8730  0.5150
16346TIP3    H270454   3.299   1.295  14.347  0.2656 -0.7804  0.3625
16347TIP3   OH270455   5.053   1.818   4.854 -0.0769  0.4248  0.3446
16347TIP3    H170456   4.978   1.830   4.795  0.4598 -0.1557 -0.4542
16347TIP3    H270457   5.048   1.726   4.880  0.9277  0.1252 -0.4921
16348TIP3   OH270458   0.232   4.229   0.855  0.3595  0.6547 -0.2728
16348TIP3    H170459   0.302   4.287   0.827  0.9348  0.7180  1.2648
16348TIP3    H270460   0.251   4.210   0.947 -1.0606 -0.1625 -0.1259
16349TIP3   OH270461   2.312   4.294   5.857 -0.1114 -0.0401 -0.3259
16349TIP3    H170462   2.320   4.336   5.772  0.5151  0.8848  0.1726
16349TIP3    H270463   2.285   4.204   5.838  0.3291  0.0721 -1.5127
16350TIP3   OH270464   5.887   5.565   1.400  0.5425  0.1940 -0.2531
16350TIP3    H170465   5.953   5.575   1.331 -1.2164 -0.4213 -2.0445
16350TIP3    H270466   5.815   5.622   1.373  0.0669  0.3757  1.3705
16351TIP3   OH270467   1.749   0.570   0.316  0.2867 -0.5611  0.3038
16351TIP3    H170468   1.761   0.485   0.359  0.1135 -0.0640  1.3285
16351TIP3    H270469   1.759   0.634   0.386  1.5387  0.3358 -0.6697
16352TIP3   OH270470   6.247   0.662   4.474 -0.1182 -0.5571 -0.1192
16352TIP3    H170471   6.209   0.745   4.444  1.8683 -0.2149 -1.6989
16352TIP3    H270472   6.312   0.688   4.540 -1.2682 -1.0471  1.2528
16353TIP3   OH270473   3.179   4.146  14.569 -0.0919  0.4945  0.0371
16353TIP3    H170474   3.094   4.130  14.529 -0.1128 -0.7598  0.5667
16353TIP3    H270475   3.195   4.070  14.625  1.0114  1.0943  0.5721
16354TIP3   OH270476   1.651   2.714   5.220  0.4748 -0.5250  0.3205
16354TIP3    H170477   1.720   2.772   5.186  1.3175 -0.9910  1.2006
16354TIP3    H270478   1.587   2.774   5.260  0.4700 -0.1020 -0.3131
16355TIP3   OH270479   0.327   2.248  15.251  0.6664 -0.5846  0.1795
16355TIP3    H170480   0.325   2.341  15.274  3.4949 -0.4365  0.0362
16355TIP3    H270481   0.360   2.205  15.330 -0.9425 -1.5425  0.3584
16356TIP3   OH270482   0.756   0.745  12.962 -0.5393 -0.0621 -0.1213
16356TIP3    H170483   0.701   0.802  12.907  0.2308  0.3976 -0.4164
16356TIP3    H270484   0.776   0.799  13.038  1.3229  0.5598 -1.0300
16357TIP3   OH270485   1.879   5.485  13.339 -0.3214  0.1526  0.5371
16357TIP3    H170486   1.897   5.392  13.349  0.6112  0.2456 -0.2314
16357TIP3    H270487   1.784   5.490  13.327 -0.3409 -0.7214  0.3178
16358TIP3   OH270488   1.125   2.420  16.557  0.0479  0.4866 -0.0452
16358TIP3    H170489   1.105   2.346  16.614 -1.2074  0.2877 -0.7301
16358TIP3    H270490   1.039   2.452  16.527  0.6830  0.4198 -2.0310
16359TIP3   OH270491   6.439   4.334  14.292  0.0810  0.0054 -0.1175
16359TIP3    H170492   6.404   4.413  14.251  0.5230 -0.2879 -1.0668
16359TIP3    H270493   6.373   4.310  14.357 -0.8879  0.1487 -1.0402
16360TIP3   OH270494   3.219   2.259  16.030  0.3314  0.1245  0.2938
16360TIP3    H170495   3.290   2.236  15.970  1.0801  0.1326  1.1725
16360TIP3    H270496   3.154   2.189  16.019  1.1344 -0.6651  0.5786
16361TIP3   OH270497   5.824   0.896  15.820  0.1930  0.3770 -0.1113
16361TIP3    H170498   5.836   0.987  15.844  1.3064  0.3356 -0.4918
16361TIP3    H270499   5.890   0.879  15.753 -1.2201 -0.2066 -1.3787
16362TIP3   OH270500   2.475   0.445  13.510 -0.0324 -0.6775  0.7328
16362TIP3    H170501   2.449   0.353  13.510 -1.5419 -0.2754  0.0115
16362TIP3    H270502   2.401   0.491  13.551 -0.7133  0.5552 -1.7491
16363TIP3   OH270503   0.661   1.310  16.166 -0.2525  0.0672 -0.0331
16363TIP3    H170504   0.580   1.287  16.212 -0.1949 -1.5738 -0.6988
16363TIP3    H270505   0.658   1.405  16.159 -2.1032  0.0447  0.0207
16364TIP3   OH270506   0.384   6.151  11.751 -0.6759  0.6181  0.5837
16364TIP3    H170507   0.343   6.188  11.673  1.6495  0.9039 -0.5609
16364TIP3    H270508   0.377   6.056  11.740 -0.7869  0.6664  0.2575
16365TIP3   OH270509   1.951   3.500   1.271 -0.4713  0.4408  0.1279
16365TIP3    H170510   2.042   3.484   1.295 -0.4810 -0.4173 -0.3933
16365TIP3    H270511   1.912   3.413   1.261 -1.1074  0.7869 -0.5433
16366TIP3   OH270512   0.226   2.731   2.225 -0.3420  0.1188  0.5562
16366TIP3    H170513   0.176   2.768   2.297  0.8951 -0.5984  1.8166
16366TIP3    H270514   0.245   2.806   2.168  0.0770  0.9965  1.8340
16367TIP3   OH270515   3.059   4.711  16.259  0.3770 -1.0409  0.2062
16367TIP3    H170516   3.142   4.756  16.248  1.0678 -2.2016  0.6665
16367TIP3    H270517   3.075   4.622  16.229 -0.4857 -1.4822  1.0219
16368TIP3   OH270518   1.742   5.102  13.632  0.1071 -0.0275  0.3948
16368TIP3    H170519   1.693   5.168  13.582 -1.6925 -1.9455 -0.4070
16368TIP3    H270520   1.711   5.113  13.722 -1.1050 -0.6070  0.0508
16369TIP3   OH270521   0.705   3.317   3.985 -0.1243 -0.2642  0.1435
16369TIP3    H170522   0.647   3.259   3.936  0.6878 -1.4108  0.5279
16369TIP3    H270523   0.792   3.299   3.951 -0.1222  2.5070 -1.4648
16370TIP3   OH270524   4.648   0.984   0.047  0.2665 -0.1278  0.4803
16370TIP3    H170525   4.694   0.901   0.035  0.1220 -0.2345  0.6674
16370TIP3    H270526   4.570   0.962   0.097  0.2897  0.1429  0.6413
16371TIP3   OH270527   3.059   0.141   4.531  0.3766  0.7884  0.0132
16371TIP3    H170528   3.078   0.219   4.583 -0.5858  1.0936 -0.0732
16371TIP3    H270529   3.070   0.169   4.441  2.9555  0.0118  0.0440
16372TIP3   OH270530   4.061   5.489  10.583  0.1910 -0.4504  0.7897
16372TIP3    H170531   4.072   5.479  10.677  2.2796 -2.5819  0.3686
16372TIP3    H270532   4.011   5.412  10.556  1.9276 -1.2753 -0.1825
16373TIP3   OH270533   0.725   0.169  12.369 -0.6479  0.7964 -0.0063
16373TIP3    H170534   0.721   0.076  12.394  2.0288  0.9886  1.2901
16373TIP3    H270535   0.690   0.215  12.445  0.5889  0.9715  0.4730
16374TIP3   OH270536   2.044   1.892  15.620 -0.6196 -0.9119 -0.8627
16374TIP3    H170537   2.055   1.798  15.609 -2.9946 -1.1931 -1.0696
16374TIP3    H270538   2.042   1.905  15.715 -0.8301 -1.1388 -0.8373
16375TIP3   OH270539   0.351   3.398   3.580 -0.2620 -0.0542 -0.3863
16375TIP3    H170540   0.373   3.381   3.672  0.5954  0.2641 -0.5311
16375TIP3    H270541   0.273   3.452   3.584  0.0210  0.3177  0.1698
16376TIP3   OH270542   4.153   4.057  13.311  0.2501  0.0761 -0.0724
16376TIP3    H170543   4.164   3.962  13.318  0.4470  0.2471  2.0070
16376TIP3    H270544   4.059   4.069  13.295 -0.0940 -0.3719  1.6045
16377TIP3   OH270545   4.134   5.723   1.018 -0.5725 -0.0882  0.1267
16377TIP3    H170546   4.099   5.812   1.009 -0.4341 -0.2320 -2.0314
16377TIP3    H270547   4.214   5.733   1.068 -0.4703  1.0308 -0.2590
16378TIP3   OH270548   5.863   3.658   2.855  0.3930 -0.7358  0.3705
16378TIP3    H170549   5.768   3.651   2.868  0.4578 -1.3555  0.5443
16378TIP3    H270550   5.894   3.706   2.932  0.3182 -1.2223  0.7070
16379TIP3   OH270551   5.460   2.322  11.490  0.0830  0.0443 -0.6302
16379TIP3    H170552   5.524   2.377  11.536  0.2852 -0.0073 -0.8488
16379TIP3    H270553   5.386   2.316  11.551 -0.4157  1.5043 -1.0498
16380TIP3   OH270554   0.403   0.231   3.835  0.2767  0.1814 -0.4158
16380TIP3    H170555   0.332   0.173   3.811 -1.7828  2.1153  0.8170
16380TIP3    H270556   0.373   0.319   3.811  0.6484  1.4677  3.3783
16381TIP3   OH270557   0.981   2.887  14.076  0.1691 -0.1172 -0.0025
16381TIP3    H170558   0.969   2.950  14.005 -0.5445 -0.2797 -0.0315
16381TIP3    H270559   1.052   2.923  14.129  0.0314  0.5088 -0.2419
16382TIP3   OH270560   2.401   2.873  16.133  0.1754  0.0570  0.2071
16382TIP3    H170561   2.344   2.801  16.104  0.1067  0.1660  0.0765
16382TIP3    H270562   2.472   2.829  16.181  0.3409 -0.1268 -0.2076
16383TIP3   OH270563   5.952   6.544   4.688  0.0010  0.2807 -0.1222
16383TIP3    H170564   6.000   6.575   4.765 -1.6623 -0.7544  1.3781
16383TIP3    H270565   5.865   6.521   4.722 -1.5312  1.9755 -2.7259
16384TIP3   OH270566   6.342   3.944   1.834 -0.1201 -0.3411  0.0166
16384TIP3    H170567   6.307   3.857   1.816 -0.0514  0.1330 -2.6310
16384TIP3    H270568   6.317   3.996   1.758  0.5127  1.7608  1.2059
16385TIP3   OH270569   6.466   6.784   1.831 -0.3866 -0.1300  0.1616
16385TIP3    H170570   6.506   6.831   1.758 -0.5597 -1.6506 -0.9379
16385TIP3    H270571   6.540   6.764   1.890 -0.2459  1.0771  0.4170
16386TIP3   OH270572   1.446   3.194  10.822 -0.2802  0.1386 -0.5936
16386TIP3    H170573   1.446   3.250  10.745 -1.3207  2.0963  0.7886
16386TIP3    H270574   1.393   3.119  10.797 -2.6872  1.9195 -0.9932
16387TIP3   OH270575   0.506   3.707  11.138 -0.1459  0.5061  0.5552
16387TIP3    H170576   0.478   3.641  11.074  1.4075  0.9992 -0.6919
16387TIP3    H270577   0.426   3.733  11.183 -1.3592  0.4148 -1.4737
16388TIP3   OH270578   6.116   2.210  13.825  0.1592 -0.0752 -0.3024
16388TIP3    H170579   6.197   2.260  13.817 -1.4084  2.3366 -1.9552
16388TIP3    H270580   6.137   2.123  13.792  2.0210  0.5861 -0.8770
16389TIP3   OH270581   1.561   0.223  16.495  0.5407  0.1371 -0.2639
16389TIP3    H170582   1.507   0.302  16.488  0.9061  0.7187  2.9437
16389TIP3    H270583   1.645   0.254  16.529  0.6350 -1.6539  1.1884
16390TIP3   OH270584   5.112   3.770  16.084 -0.2579 -0.0511  0.4616
16390TIP3    H170585   5.047   3.740  16.147  0.0516 -0.8388  0.4042
16390TIP3    H270586   5.093   3.863  16.073 -0.2752  0.1162  1.7700
16391TIP3   OH270587   6.660   6.633   4.388  0.1386  0.2140  0.4272
16391TIP3    H170588   6.740   6.685   4.396 -1.9712  3.4274  1.4957
16391TIP3    H270589   6.626   6.654   4.301  0.1907 -0.7924  0.1541
16392TIP3   OH270590   0.673   3.081   4.807 -0.0985  0.7787 -0.6715
16392TIP3    H170591   0.634   2.996   4.792 -0.8144  1.0289 -0.2489
16392TIP3    H270592   0.601   3.143   4.794  0.1682  1.2425  0.0557
16393TIP3   OH270593   3.838   1.282  15.648 -0.2625  0.0353  0.0814
16393TIP3    H170594   3.920   1.324  15.672 -1.3394  2.6087 -0.5671
16393TIP3    H270595   3.783   1.291  15.726 -0.2277 -0.9302  0.2254
16394TIP3   OH270596   0.603   6.535   4.462  0.1856  0.4181  0.6322
16394TIP3    H170597   0.614   6.443   4.440  2.7678  0.6016  0.9439
16394TIP3    H270598   0.565   6.575   4.384  0.2354 -0.6920  0.0410
16395TIP3   OH270599   4.123   0.589   0.439  0.4130 -0.2218 -0.0656
16395TIP3    H170600   4.203   0.573   0.388 -0.1149 -1.0177 -0.6546
16395TIP3    H270601   4.064   0.631   0.377  0.3485  0.3072  0.3547
16396TIP3   OH270602   2.393   5.466  13.540 -0.1412  0.1059 -0.2361
16396TIP3    H170603   2.332   5.506  13.602 -0.2341  1.4302 -1.1567
16396TIP3    H270604   2.348   5.388  13.508 -1.3078  1.0096 -0.8177
16397TIP3   OH270605   2.599   0.558   3.337  1.2116 -0.4370  0.2570
16397TIP3    H170606   2.556   0.493   3.283  0.6110  0.1619  0.0079
16397TIP3    H270607   2.540   0.570   3.412  0.2147  1.4470 -0.8040
16398TIP3   OH270608   6.143   0.268  11.538  0.6588 -0.3171 -0.0603
16398TIP3    H170609   6.217   0.328  11.531 -0.7833  1.4775 -0.3820
16398TIP3    H270610   6.070   0.323  11.568 -0.0505 -2.4501  2.2743
16399TIP3   OH270611   4.859   2.029  15.735  0.1984 -0.2006 -0.5815
16399TIP3    H170612   4.893   2.116  15.714 -3.7988  1.1930 -1.8640
16399TIP3    H270613   4.850   2.030  15.831  2.3214 -0.1249 -0.3568
16400TIP3   OH270614   4.101   2.085   5.957  0.6028  0.4388  0.2605
16400TIP3    H170615   4.101   1.989   5.957  0.2840  0.4409  0.8400
16400TIP3    H270616   4.096   2.109   6.049 -2.3026  1.0105 -0.0173
16401TIP3   OH270617   1.469   6.342  17.098  0.4556  0.6134 -0.2186
16401TIP3    H170618   1.424   6.288  17.033  1.4381  0.4411 -0.7736
16401TIP3    H270619   1.547   6.374  17.052  1.2545  0.3482  0.9341
16402TIP3   OH270620   4.805   0.690  14.085  0.1213 -0.0203 -0.3407
16402TIP3    H170621   4.817   0.618  14.023  0.9361  1.2249 -1.6622
16402TIP3    H270622   4.879   0.683  14.145  0.0834 -0.4201 -0.3428
16403TIP3   OH270623   4.695   6.038  12.255 -0.5797  0.0653  0.1300
16403TIP3    H170624   4.737   6.019  12.171  0.8584 -0.9283  1.0447
16403TIP3    H270625   4.768   6.044  12.317 -1.5759  1.4728  1.1880
16404TIP3   OH270626   0.463   1.104  14.308 -0.4402  0.4828  0.2079
16404TIP3    H170627   0.540   1.107  14.366 -0.7572 -1.9948  0.8138
16404TIP3    H270628   0.497   1.073  14.225 -0.4420  1.4822 -0.1756
16405TIP3   OH270629   1.870   2.880   6.263 -0.5200  0.0288  0.2277
16405TIP3    H170630   1.813   2.956   6.249 -0.6777 -0.1224  0.0607
16405TIP3    H270631   1.813   2.812   6.296 -0.6423 -0.4779 -1.0124
16406TIP3   OH270632   2.980   1.895   2.307  0.2599  0.5462  0.3016
16406TIP3    H170633   2.991   1.903   2.212  2.0915 -2.3980  0.2184
16406TIP3    H270634   3.068   1.911   2.342  0.3093 -1.6668  1.2425
16407TIP3   OH270635   0.604   0.204  10.897 -0.4532  0.2234 -0.1216
16407TIP3    H170636   0.582   0.148  10.971  1.0653 -0.9700 -0.5312
16407TIP3    H270637   0.696   0.226  10.910  0.5417 -1.9562 -2.8041
16408TIP3   OH270638   4.318   5.084  12.687  0.8493 -0.0084 -0.0829
16408TIP3    H170639   4.222   5.092  12.692  0.5555 -1.8767 -2.0246
16408TIP3    H270640   4.344   5.152  12.626  0.5382 -0.6114 -0.9090
16409TIP3   OH270641   4.288   4.519  13.373 -0.1504  0.5702 -0.1882
16409TIP3    H170642   4.371   4.516  13.324 -0.6508 -3.0811 -0.9522
16409TIP3    H270643   4.313   4.493  13.462 -0.1779  1.4863  0.0936
16410TIP3   OH270644   1.881   6.102   2.078  0.3650  0.1040  0.0658
16410TIP3    H170645   1.873   6.072   1.988 -0.5812  3.9772 -1.2297
16410TIP3    H270646   1.974   6.091   2.098  0.0982 -3.4536 -0.3101
16411TIP3   OH270647   1.761   0.733   0.803 -0.2010  0.3891 -0.7863
16411TIP3    H170648   1.733   0.752   0.893  0.0408 -2.3403 -0.0945
16411TIP3    H270649   1.855   0.749   0.804 -0.3234  1.1437 -0.7836
16412TIP3   OH270650   0.362   2.238   4.051 -0.4109  0.6427 -0.5311
16412TIP3    H170651   0.403   2.323   4.061 -0.2555  0.5591 -0.4527
16412TIP3    H270652   0.386   2.209   3.963 -0.7758  0.8469 -0.6955
16413TIP3   OH270653   3.887   1.162  17.072 -0.2438  0.0700 -0.1973
16413TIP3    H170654   3.912   1.076  17.106 -0.0283  0.5506  0.8870
16413TIP3    H270655   3.856   1.210  17.149 -0.2159  1.0162 -0.7689
16414TIP3   OH270656   0.950   2.463   5.513  0.2554  0.1228 -0.3217
16414TIP3    H170657   1.013   2.533   5.532  1.3023 -1.2789  1.5220
16414TIP3    H270658   0.906   2.492   5.433  1.5899  2.2537 -0.3356
16415TIP3   OH270659   5.262   3.012   0.358 -0.0937  0.4718 -0.2278
16415TIP3    H170660   5.281   3.106   0.366 -0.8629  0.5433  0.9255
16415TIP3    H270661   5.167   3.006   0.367 -0.0094 -0.4603  0.0750
16416TIP3   OH270662   6.379   0.550  11.213 -0.4843 -0.8717 -0.0198
16416TIP3    H170663   6.406   0.639  11.190  1.0788 -1.0428  1.0650
16416TIP3    H270664   6.293   0.560  11.253  0.8116  0.4759  2.5308
16417TIP3   OH270665   2.774   6.520  14.811 -0.1649  0.1365  0.0091
16417TIP3    H170666   2.741   6.449  14.755  1.0059  0.3641 -1.0100
16417TIP3    H270667   2.829   6.475  14.876 -0.3173  0.0035  0.0450
16418TIP3   OH270668   1.324   0.268   3.939  0.2864 -0.6599 -0.4750
16418TIP3    H170669   1.305   0.242   3.849  0.5233 -1.8075 -0.2101
16418TIP3    H270670   1.300   0.191   3.992 -1.0297  0.4419  0.5757
16419TIP3   OH270671   6.261   2.125   4.723 -0.8831 -0.4857  0.8704
16419TIP3    H170672   6.294   2.209   4.691  1.8516 -1.7953  0.0996
16419TIP3    H270673   6.218   2.145   4.806 -0.4110  1.6708  0.6137
16420TIP3   OH270674   1.204   5.003  17.210  0.1976 -0.6338  0.0086
16420TIP3    H170675   1.183   4.938  17.277  0.5293 -1.5478 -0.7611
16420TIP3    H270676   1.295   4.985  17.186  0.5197  0.5662  0.2820
16421TIP3   OH270677   5.647   2.088   0.960  0.0633 -0.4729 -0.5932
16421TIP3    H170678   5.668   2.066   0.870  1.0549  0.7764 -0.6875
16421TIP3    H270679   5.621   2.180   0.957 -0.6444 -0.6390  0.2752
16422TIP3   OH270680   1.412   1.245   5.406  0.3222 -0.3979  0.8871
16422TIP3    H170681   1.472   1.171   5.395  0.3500 -0.2743  0.2049
16422TIP3    H270682   1.327   1.205   5.421  0.1825 -0.5663 -0.3386
16423TIP3   OH270683   2.492   1.744   1.839  0.2984 -0.2742 -0.7610
16423TIP3    H170684   2.438   1.713   1.911  1.3669  0.1540  0.2621
16423TIP3    H270685   2.433   1.753   1.765 -0.8792 -0.4533  0.1560
16424TIP3   OH270686   1.538   2.416   3.360 -0.3323 -0.3350 -0.1234
16424TIP3    H170687   1.539   2.329   3.401 -4.1859  0.0000  0.8254
16424TIP3    H270688   1.561   2.476   3.431 -1.4115 -0.2566  0.1643
16425TIP3   OH270689   5.380   5.146   0.170 -0.3211  0.1180  0.0449
16425TIP3    H170690   5.318   5.218   0.177 -1.5014 -0.9628  0.8536
16425TIP3    H270691   5.335   5.081   0.116  0.6572 -0.1122 -0.5165
16426TIP3   OH270692   3.904   6.253  15.054 -0.0914  0.6488 -0.0224
16426TIP3    H170693   3.967   6.181  15.042  1.1902  1.9423 -1.2936
16426TIP3    H270694   3.828   6.212  15.095  1.7283 -0.9068  1.9137
16427TIP3   OH270695   4.083   4.257  16.343 -0.3465 -0.3445 -0.3578
16427TIP3    H170696   4.083   4.249  16.439 -0.0863 -0.8863 -0.3989
16427TIP3    H270697   4.160   4.206  16.316 -1.6340 -1.9744 -1.0098
16428TIP3   OH270698   4.140   5.682  15.786 -0.1113 -0.2420  0.4675
16428TIP3    H170699   4.147   5.587  15.780  1.3956 -0.0779 -0.7025
16428TIP3    H270700   4.048   5.698  15.809 -0.2442 -1.9906  1.2108
16429TIP3   OH270701   4.210   4.089  16.947 -0.0291  0.4140 -0.2643
16429TIP3    H170702   4.301   4.117  16.957 -0.2408  0.7179  0.9369
16429TIP3    H270703   4.161   4.171  16.935 -0.3395  0.3955  0.7741
16430TIP3   OH270704   3.481   3.467   1.866 -0.1500  0.0878 -0.2849
16430TIP3    H170705   3.406   3.436   1.815 -1.3661 -1.3013  2.2724
16430TIP3    H270706   3.552   3.407   1.844 -0.9624 -1.1623  0.4244
16431TIP3   OH270707   0.651   6.010   3.124 -0.6902 -0.4147 -0.4104
16431TIP3    H170708   0.712   5.942   3.094  0.3555 -0.8815  2.6000
16431TIP3    H270709   0.644   5.996   3.219 -2.1200  2.3599 -0.0582
16432TIP3   OH270710   2.710   1.289   0.285 -0.2929 -0.5835 -0.3451
16432TIP3    H170711   2.770   1.283   0.210 -0.4357  1.6493 -0.6541
16432TIP3    H270712   2.673   1.377   0.280 -1.8097 -1.0941  1.2318
16433TIP3   OH270713   3.155   3.160  12.243  0.7295  0.4246 -0.1807
16433TIP3    H170714   3.064   3.167  12.272  0.9945  0.4979  0.6541
16433TIP3    H270715   3.174   3.066  12.250  0.7576  0.4273 -0.2251
16434TIP3   OH270716   3.339   2.152   1.569  0.3229 -0.1877 -0.1387
16434TIP3    H170717   3.265   2.154   1.508  1.1704 -1.6744 -1.2507
16434TIP3    H270718   3.329   2.231   1.622 -0.8889  0.7067 -1.6609
16435TIP3   OH270719   3.048   5.598   1.628  0.1897  0.0084 -0.1889
16435TIP3    H170720   3.107   5.577   1.555  2.5078 -0.0189  1.6434
16435TIP3    H270721   3.070   5.534   1.695 -1.2521  0.6556  0.9155
16436TIP3   OH270722   4.628   2.989  15.453 -0.1817 -0.5932 -0.4371
16436TIP3    H170723   4.706   3.041  15.473  0.3358 -0.9045 -1.5743
16436TIP3    H270724   4.570   3.050  15.408 -1.4875  0.2000  2.2390
16437TIP3   OH270725   3.395   3.012   3.437  0.7345  0.2724  0.2789
16437TIP3    H170726   3.305   2.986   3.412  1.4031 -0.7714 -1.1833
16437TIP3    H270727   3.391   3.027   3.531 -1.1798  1.0909  0.0905
16438TIP3   OH270728   1.283   4.791  15.766 -0.4656 -0.0190 -0.0557
16438TIP3    H170729   1.333   4.872  15.768 -0.5164 -0.0189  2.6535
16438TIP3    H270730   1.196   4.816  15.797 -0.5247 -1.0719  0.6477
16439TIP3   OH270731   3.825   1.848   4.221  0.1521  0.0931  0.1274
16439TIP3    H170732   3.748   1.856   4.165  1.0846 -0.7961 -1.3043
16439TIP3    H270733   3.836   1.935   4.260 -1.6925  0.1622  0.5175
16440TIP3   OH270734   0.345   0.463  16.744 -0.3373  0.0599 -0.1997
16440TIP3    H170735   0.299   0.423  16.671  1.6847 -2.1628 -0.3336
16440TIP3    H270736   0.434   0.479  16.710  0.1430  0.5464  1.2392
16441TIP3   OH270737   3.174   5.945  11.209 -0.6889 -0.1747  0.2770
16441TIP3    H170738   3.261   5.913  11.233  0.2342  0.9921 -1.4235
16441TIP3    H270739   3.144   5.883  11.142 -0.2734  0.6138 -0.6500
16442TIP3   OH270740   6.525   0.800   6.024  0.1967 -0.6999 -0.1646
16442TIP3    H170741   6.519   0.814   6.119 -0.0792 -1.8932 -0.0020
16442TIP3    H270742   6.490   0.713   6.010  0.0428 -0.4509 -1.4026
16443TIP3   OH270743   6.515   2.609   3.743  0.2758  0.5576 -0.0710
16443TIP3    H170744   6.424   2.583   3.753  0.9076 -1.7292  0.0201
16443TIP3    H270745   6.535   2.660   3.821 -0.1963 -1.0617  1.1077
16444TIP3   OH270746   1.880   4.037   2.510  0.3654  0.7777  0.4618
16444TIP3    H170747   1.856   3.949   2.481 -1.6132  0.9575  1.4786
16444TIP3    H270748   1.958   4.024   2.564  0.5630 -0.2507 -0.0548
16445TIP3   OH270749   5.535   6.695  11.977 -0.7129 -0.0023  0.1574
16445TIP3    H170750   5.456   6.747  11.967 -0.8861 -0.1383  0.7831
16445TIP3    H270751   5.606   6.759  11.984 -0.4773  0.0833 -2.7250
16446TIP3   OH270752   4.771   3.679  11.100 -0.0295 -0.5175 -0.3775
16446TIP3    H170753   4.696   3.653  11.046  0.1639  0.4516 -1.1304
16446TIP3    H270754   4.764   3.775  11.105  1.1458 -0.4192 -0.4407
16447TIP3   OH270755   4.109   3.906   0.151 -0.3674 -0.1107 -0.4493
16447TIP3    H170756   4.015   3.925   0.146 -0.8882 -0.8061  4.5652
16447TIP3    H270757   4.115   3.811   0.139 -0.2338  0.0061 -1.3275
16448TIP3   OH270758   3.380   3.044   1.937 -0.3694 -0.4700  0.5213
16448TIP3    H170759   3.358   2.994   1.859 -1.0198  0.9710 -0.2266
16448TIP3    H270760   3.443   3.110   1.907  0.9832 -1.2172  1.6203
16449TIP3   OH270761   2.999   1.761   5.726 -0.4561 -0.4602  0.2368
16449TIP3    H170762   2.954   1.677   5.714 -1.1193 -0.0822  0.0789
16449TIP3    H270763   3.069   1.759   5.661 -2.2367  0.3244 -1.7737
16450TIP3   OH270764   2.557   3.320   2.009  0.1245 -0.1432  0.0358
16450TIP3    H170765   2.589   3.355   2.092  0.0874  0.9491 -0.4064
16450TIP3    H270766   2.627   3.338   1.946 -0.3076  0.0206 -0.4042
16451TIP3   OH270767   2.829   0.979  13.562  0.0379 -0.7102 -0.3824
16451TIP3    H170768   2.815   1.009  13.652 -1.6543 -1.8356 -0.2326
16451TIP3    H270769   2.799   0.888  13.562 -1.7827 -0.1723 -2.5059
16452TIP3   OH270770   3.542   6.605  11.057  0.2304  0.1485 -0.2150
16452TIP3    H170771   3.482   6.531  11.063  1.5908 -0.9751 -0.3326
16452TIP3    H270772   3.536   6.648  11.142 -0.9727  0.2387 -0.3319
16453TIP3   OH270773   3.967   5.235  10.564  0.1779  0.2276  0.1433
16453TIP3    H170774   3.984   5.186  10.484  1.2801  0.7004  0.0772
16453TIP3    H270775   3.891   5.192  10.603 -0.5205  0.1358 -1.2713
16454TIP3   OH270776   4.090   5.591  12.584  0.2431  0.6963 -0.1316
16454TIP3    H170777   4.174   5.583  12.538  0.0496  0.7440 -0.4980
16454TIP3    H270778   4.114   5.597  12.677  0.4988 -1.9692 -0.0080
16455TIP3   OH270779   0.582   5.256  13.825 -0.4412  0.8707  0.7262
16455TIP3    H170780   0.631   5.175  13.813 -0.0093  0.8162  2.6305
16455TIP3    H270781   0.493   5.226  13.845 -0.3552  0.8742  1.1136
16456TIP3   OH270782   0.435   4.232   4.730  0.2352 -0.0258 -0.8018
16456TIP3    H170783   0.477   4.218   4.815 -1.2924  0.7184  0.1028
16456TIP3    H270784   0.444   4.326   4.714 -1.1988  0.1826 -0.5018
16457TIP3   OH270785   5.153   5.100  10.977 -0.1892  0.1727  0.1616
16457TIP3    H170786   5.189   5.092  10.889 -1.4008 -2.3372 -0.1261
16457TIP3    H270787   5.187   5.184  11.009  1.0324  0.6555 -2.3180
16458TIP3   OH270788   1.726   4.326  13.273 -0.5167  0.6791  0.3191
16458TIP3    H170789   1.682   4.404  13.307 -0.7284  1.0420 -0.7743
16458TIP3    H270790   1.766   4.354  13.191  2.2816  0.5155  1.5489
16459TIP3   OH270791   6.177   4.760   3.601 -0.1521 -0.0181  0.3951
16459TIP3    H170792   6.088   4.777   3.629  0.9899  0.5019  3.9307
16459TIP3    H270793   6.212   4.846   3.578  0.3589  0.1834  1.9074
16460TIP3   OH270794   5.957   2.580   2.614 -0.2794  0.4526  0.5750
16460TIP3    H170795   5.948   2.624   2.698 -0.3722  0.1796  0.7116
16460TIP3    H270796   5.925   2.491   2.631  1.0443 -0.0333  0.6275
16461TIP3   OH270797   2.538   4.491  15.277 -0.3725  0.0771  0.6531
16461TIP3    H170798   2.459   4.541  15.296  1.0394  1.8881  1.9279
16461TIP3    H270799   2.520   4.449  15.193 -1.8263  2.2986 -0.2009
16462TIP3   OH270800   1.056   1.152   5.856  0.2508 -0.3818 -0.1815
16462TIP3    H170801   1.018   1.185   5.938  2.5728  1.8060  0.0632
16462TIP3    H270802   1.021   1.209   5.788  0.5622 -0.3853 -0.3489
16463TIP3   OH270803   3.904   4.761  12.940 -0.0471  0.3760  0.1481
16463TIP3    H170804   3.963   4.703  12.891 -0.3297  0.7726 -0.6675
16463TIP3    H270805   3.938   4.849  12.926 -0.8778  0.6167 -0.4021
16464TIP3   OH270806   1.224   1.595   2.026  0.0176  0.4105  0.0421
16464TIP3    H170807   1.132   1.581   2.005  0.1373 -0.0513 -0.1824
16464TIP3    H270808   1.264   1.508   2.020  0.5923  0.7062 -0.4991
16465TIP3   OH270809   4.951   0.601   5.416 -0.2337 -0.4451 -0.2420
16465TIP3    H170810   5.005   0.614   5.338 -0.8762 -1.9198 -0.9636
16465TIP3    H270811   4.949   0.506   5.428 -1.6028 -0.3299  0.5213
16466TIP3   OH270812   6.537   6.378  14.025 -0.2617  0.0404 -0.1969
16466TIP3    H170813   6.569   6.344  13.942  2.0522  2.1985 -0.2476
16466TIP3    H270814   6.550   6.473  14.019  1.0168  0.1376  3.0247
16467TIP3   OH270815   4.772   3.754  16.555 -0.5527 -0.2856 -0.3214
16467TIP3    H170816   4.855   3.761  16.602 -0.8425 -0.9772  0.2975
16467TIP3    H270817   4.706   3.773  16.621 -0.8890  0.2523 -0.8126
16468TIP3   OH270818   0.833   0.424   5.201  0.3437 -0.4203 -0.7283
16468TIP3    H170819   0.825   0.338   5.160  0.4895 -0.5814 -0.4178
16468TIP3    H270820   0.776   0.481   5.149  0.3381 -0.6789 -1.0043
16469TIP3   OH270821   5.380   1.888   4.658 -0.1530 -0.3464  0.7716
16469TIP3    H170822   5.396   1.877   4.752 -2.3673 -1.6750  1.0269
16469TIP3    H270823   5.360   1.981   4.648  1.8125  0.1517  1.3278
16470TIP3   OH270824   2.979   3.350  16.658 -0.3297  0.9324 -0.4054
16470TIP3    H170825   2.927   3.269  16.658  0.6020  0.3280  0.2579
16470TIP3    H270826   3.069   3.320  16.667  0.2118  1.9413 -2.3148
16471TIP3   OH270827   2.022   3.362  12.114 -0.3229 -0.4196  0.0961
16471TIP3    H170828   2.115   3.377  12.132  0.0593 -1.9567 -0.5135
16471TIP3    H270829   2.015   3.268  12.100 -1.5941 -0.0341 -2.0888
16472TIP3   OH270830   3.621   4.422  17.024 -0.5910  0.5821  0.1696
16472TIP3    H170831   3.643   4.515  17.026  1.0363  0.1694  1.9034
16472TIP3    H270832   3.662   4.385  17.102 -0.0689 -1.8599 -1.2158
16473TIP3   OH270833   5.125   3.440   4.533  0.1107 -0.6489 -0.0790
16473TIP3    H170834   5.087   3.380   4.597  1.0860 -0.7770  0.3838
16473TIP3    H270835   5.220   3.431   4.544  0.2813 -0.2405 -1.1366
16474TIP3   OH270836   3.365   2.745   6.447 -0.2929  0.4254  0.0048
16474TIP3    H170837   3.371   2.822   6.504  1.3127 -1.3080  2.2503
16474TIP3    H270838   3.345   2.672   6.506  1.7325 -1.4900 -1.5991
16475TIP3   OH270839   4.051   6.553  15.372 -0.8107  0.2862 -0.1875
16475TIP3    H170840   3.973   6.609  15.380 -1.2487 -0.4410  0.7288
16475TIP3    H270841   4.118   6.612  15.338 -1.7246  0.9533 -0.8914
16476TIP3   OH270842   2.118   0.729  10.582 -0.4018  0.6088 -0.0073
16476TIP3    H170843   2.153   0.742  10.494  0.7701  0.0009  0.3554
16476TIP3    H270844   2.194   0.736  10.640 -1.1611  0.9982  0.9565
16477TIP3   OH270845   5.118   0.678   1.395  0.2579  0.3457 -0.2683
16477TIP3    H170846   5.057   0.733   1.345 -1.3479 -1.5241 -0.4193
16477TIP3    H270847   5.064   0.640   1.465  1.3236 -1.1020 -0.2083
16478TIP3   OH270848   0.926   3.540  11.336 -0.1129 -0.1437 -0.2033
16478TIP3    H170849   0.995   3.604  11.354 -1.5335  0.9135  1.5202
16478TIP3    H270850   0.919   3.488  11.416 -0.6844 -0.8548 -0.7091
16479TIP3   OH270851   2.050   5.351   4.030  0.3538 -0.4407 -0.0633
16479TIP3    H170852   2.089   5.418   3.974  2.7629 -1.0082  0.8743
16479TIP3    H270853   2.121   5.326   4.090 -1.2343 -2.0910  1.1626
16480TIP3   OH270854   0.972   5.539  15.333 -0.5160 -0.0160  0.4036
16480TIP3    H170855   1.038   5.493  15.281 -0.6754  0.8918 -0.6249
16480TIP3    H270856   0.889   5.500  15.308 -0.8893  2.2528 -2.1060
16481TIP3   OH270857   6.765   6.310  13.465 -0.3211 -0.6598  0.3861
16481TIP3    H170858   6.756   6.219  13.436  0.8195 -0.7498  0.3219
16481TIP3    H270859   6.676   6.335  13.491 -1.0751 -1.1182 -1.5953
16482TIP3   OH270860   6.250   0.809  16.298 -0.3141  0.1666 -0.0302
16482TIP3    H170861   6.197   0.771  16.228  1.1935  0.3262 -1.2811
16482TIP3    H270862   6.243   0.904  16.285  0.4426  0.1840 -0.3362
16483TIP3   OH270863   6.462   0.708   4.694  1.0951  0.4721 -0.4812
16483TIP3    H170864   6.498   0.676   4.777 -1.2895  2.4563  1.3761
16483TIP3    H270865   6.510   0.788   4.676  1.1649  0.3820 -0.7005
16484TIP3   OH270866   6.687   5.189   2.163 -0.0245  0.2135  0.0117
16484TIP3    H170867   6.714   5.249   2.233 -0.1714 -1.3339  1.4285
16484TIP3    H270868   6.769   5.152   2.130 -0.0650 -0.5858  0.7786
16485TIP3   OH270869   5.972   3.037   2.362  0.7560  0.0582  0.2383
16485TIP3    H170870   5.940   2.995   2.442  1.2514  0.4396  0.6409
16485TIP3    H270871   5.968   2.969   2.295 -3.0144  0.6776 -0.2571
16486TIP3   OH270872   2.720   4.959  16.791  0.4872  0.6739 -0.3041
16486TIP3    H170873   2.664   5.002  16.726  0.0431 -0.2032 -0.4975
16486TIP3    H270874   2.775   4.901  16.740  0.1086 -0.0496  0.1066
16487TIP3   OH270875   1.204   5.699  15.564 -0.5240  0.2114  0.0326
16487TIP3    H170876   1.187   5.681  15.471 -0.6412 -0.5275  0.1897
16487TIP3    H270877   1.117   5.697  15.604 -0.5214  0.9954  0.0855
16488TIP3   OH270878   3.337   2.890   6.113  0.5810  0.2548 -0.0364
16488TIP3    H170879   3.290   2.807   6.116 -1.6618  1.5026  0.2243
16488TIP3    H270880   3.377   2.899   6.199  0.8394 -0.5434 -0.0686
16489TIP3   OH270881   2.645   5.273   4.062 -0.6204 -0.4331  0.0080
16489TIP3    H170882   2.652   5.187   4.103  0.8288 -0.3170  0.0049
16489TIP3    H270883   2.659   5.335   4.133 -2.0156 -0.1753  0.0802
16490TIP3   OH270884   1.428   6.184  16.028  0.6961 -0.9220  0.2879
16490TIP3    H170885   1.358   6.163  15.965  0.5367 -1.3847  0.6181
16490TIP3    H270886   1.508   6.178  15.976  0.6103 -1.8148  0.2344
16491TIP3   OH270887   2.407   2.301  16.871  0.3050  0.7529  0.2386
16491TIP3    H170888   2.375   2.385  16.839 -0.5582 -0.7014 -2.8226
16491TIP3    H270889   2.501   2.303  16.853  0.2718  0.9926  0.0886
16492TIP3   OH270890   4.073   4.592  12.831 -0.2321  0.3070  0.1756
16492TIP3    H170891   4.139   4.599  12.900  0.7658 -1.2989 -0.5769
16492TIP3    H270892   4.123   4.601  12.749 -1.2120  0.8952 -0.3683
16493TIP3   OH270893   1.015   6.440   4.229  0.1701 -0.3267  0.5792
16493TIP3    H170894   0.985   6.350   4.217  0.8843 -0.1790 -2.5744
16493TIP3    H270895   1.095   6.431   4.281  0.8241 -1.5950 -0.6217
16494TIP3   OH270896   0.846   4.074   1.691 -0.0587 -0.1771 -0.0523
16494TIP3    H170897   0.880   4.147   1.639  0.1838 -0.3542 -0.1391
16494TIP3    H270898   0.819   4.115   1.773 -1.7508  0.3512 -0.8338
16495TIP3   OH270899   4.297   3.079  11.190 -0.2469 -0.1774  0.4206
16495TIP3    H170900   4.252   3.140  11.131 -0.8039  2.0044  2.9963
16495TIP3    H270901   4.389   3.084  11.165 -0.4734  0.7685 -0.2426
16496TIP3   OH270902   6.366   2.675  15.123  0.3631 -0.4096 -0.1721
16496TIP3    H170903   6.448   2.708  15.162 -1.1942  1.1805  1.9080
16496TIP3    H270904   6.366   2.582  15.143  0.8493 -0.0934  1.4219
16497TIP3   OH270905   4.378   3.159  16.680 -0.1103 -0.1901 -0.1093
16497TIP3    H170906   4.347   3.072  16.655 -0.3349  0.0821 -0.7939
16497TIP3    H270907   4.364   3.213  16.603  1.0165  0.2148 -0.0466
16498TIP3   OH270908   6.505   0.174  12.264  0.6259  0.1279 -0.2431
16498TIP3    H170909   6.432   0.166  12.326  1.4029 -0.3162  0.6347
16498TIP3    H270910   6.510   0.267  12.244  0.1576  0.2335  0.1273
16499TIP3   OH270911   0.995   5.944   3.488 -0.4261 -0.2078  0.2652
16499TIP3    H170912   1.029   5.954   3.400  0.1946  0.1879  0.5467
16499TIP3    H270913   0.911   5.991   3.487 -0.8760 -1.0327 -0.3772
16500TIP3   OH270914   5.906   2.217   0.848  0.4507  0.0313  0.4057
16500TIP3    H170915   5.968   2.243   0.780 -0.6168 -0.4316 -0.7868
16500TIP3    H270916   5.959   2.178   0.917  1.5999  0.9453  0.0470
16501TIP3   OH270917   0.812   4.508   3.869 -0.2927 -0.2197  0.1848
16501TIP3    H170918   0.872   4.561   3.921 -0.5363 -0.6605  0.9197
16501TIP3    H270919   0.751   4.572   3.831  0.9099  0.2826 -0.9571
16502TIP3   OH270920   5.636   5.845   0.201  0.2436 -0.0878  0.0818
16502TIP3    H170921   5.607   5.824   0.113 -2.3157 -0.7717  1.0360
16502TIP3    H270922   5.705   5.782   0.220  3.0377  2.0418 -2.5127
16503TIP3   OH270923   5.719   4.340   0.007 -0.5602 -0.0649 -0.2081
16503TIP3    H170924   5.649   4.281  -0.020 -1.1653  0.5691 -0.0445
16503TIP3    H270925   5.681   4.391   0.079  0.0385  0.3442 -0.1750
16504TIP3   OH270926   2.151   3.560   4.656 -0.4238 -0.0816 -0.4095
16504TIP3    H170927   2.133   3.544   4.748  0.5820 -1.2637 -0.4095
16504TIP3    H270928   2.244   3.579   4.653 -0.6068  0.7364 -1.0869
16505TIP3   OH270929   2.323   4.640   2.197 -0.3178  0.1745  0.1368
16505TIP3    H170930   2.229   4.627   2.185 -0.4519  1.3255 -0.0464
16505TIP3    H270931   2.330   4.698   2.273  0.2238  0.8020 -0.3913
16506TIP3   OH270932   2.495   1.771   2.327 -0.2493  0.0900 -0.2475
16506TIP3    H170933   2.525   1.766   2.236  1.1468  0.2238  0.1899
16506TIP3    H270934   2.449   1.855   2.332 -2.0609 -0.7865 -1.3031
16507TIP3   OH270935   3.759   1.872   4.758  0.0427  0.2586 -0.4948
16507TIP3    H170936   3.740   1.965   4.746 -0.8302  0.0045 -1.1106
16507TIP3    H270937   3.846   1.861   4.720  1.6809  1.5007  2.7119
16508TIP3   OH270938   5.667   1.892  11.043  0.5413 -0.3806  0.3398
16508TIP3    H170939   5.701   1.975  11.074 -0.3721 -1.0376  3.2947
16508TIP3    H270940   5.579   1.913  11.010  0.7095 -0.0134  0.1231
16509TIP3   OH270941   3.257   4.911   3.997 -0.1037  0.0764 -0.5414
16509TIP3    H170942   3.281   4.823   3.967 -0.4415  0.6785 -2.6457
16509TIP3    H270943   3.338   4.947   4.033 -0.0165 -1.1689  0.5611
16510TIP3   OH270944   0.914   3.422   1.331 -0.0617 -1.0246  0.0272
16510TIP3    H170945   0.895   3.514   1.349 -0.3121 -1.5405  2.6042
16510TIP3    H270946   0.998   3.407   1.374  0.4299 -1.7735 -1.1808
16511TIP3   OH270947   2.614   1.024  13.372  0.8793 -0.1929 -1.0588
16511TIP3    H170948   2.638   1.012  13.280  2.0068 -1.2061 -0.6469
16511TIP3    H270949   2.697   1.019  13.419  0.4923  1.9281 -0.1257
16512TIP3   OH270950   5.495   1.992  12.459 -0.1564 -0.2579 -0.3446
16512TIP3    H170951   5.466   2.082  12.469 -1.5109 -0.8319  1.1341
16512TIP3    H270952   5.426   1.940  12.500  1.5062 -1.8450  0.5429
16513TIP3   OH270953   2.642   3.960   5.995  1.0166  0.2852  0.0357
16513TIP3    H170954   2.612   3.933   6.082  3.1612 -0.6183  0.5021
16513TIP3    H270955   2.589   3.909   5.934 -0.4511  0.8705  0.7925
16514TIP3   OH270956   0.973   0.315  14.597 -0.2208 -0.6918 -0.2955
16514TIP3    H170957   0.926   0.272  14.526  1.5683 -3.6308  0.2430
16514TIP3    H270958   1.062   0.325  14.564 -0.1132  0.7430  0.3886
16515TIP3   OH270959   2.118   0.533   0.644  0.0778  0.3337  0.0767
16515TIP3    H170960   2.183   0.489   0.699 -1.1115 -0.0153  1.2488
16515TIP3    H270961   2.118   0.483   0.562 -0.6596 -1.3795  1.0809
16516TIP3   OH270962   4.915   5.080  16.918  0.0170  0.3057  0.0718
16516TIP3    H170963   4.854   5.133  16.868  0.5587 -0.4310 -1.3956
16516TIP3    H270964   4.998   5.127  16.913  0.1179  0.1340  0.1173
16517TIP3   OH270965   0.053   5.150  11.630 -0.3223  0.1497 -0.2751
16517TIP3    H170966   0.060   5.121  11.540 -2.0237 -0.1321 -0.3406
16517TIP3    H270967   0.013   5.076  11.676 -2.7629  1.5522 -0.0336
16518TIP3   OH270968   1.271   2.615   3.875 -0.3423 -0.3931 -0.4365
16518TIP3    H170969   1.280   2.709   3.890 -0.6213 -0.5735  0.8543
16518TIP3    H270970   1.267   2.576   3.962 -0.0255 -1.6294 -0.9552
16519TIP3   OH270971   1.333   6.353  15.035 -0.3203  0.1377 -0.4488
16519TIP3    H170972   1.290   6.402  15.105 -0.5464  0.8226 -1.0555
16519TIP3    H270973   1.287   6.270  15.031 -1.6389  0.8836 -1.1229
16520TIP3   OH270974   1.738   6.215  12.154 -0.5971 -0.1058  0.9231
16520TIP3    H170975   1.711   6.304  12.174  0.1501  0.1907  0.6334
16520TIP3    H270976   1.832   6.214  12.170 -0.2964 -0.3664 -0.7626
16521TIP3   OH270977   5.267   4.887  11.300 -0.3073  0.9007 -0.1415
16521TIP3    H170978   5.228   4.853  11.220 -2.0691  0.6352  0.8091
16521TIP3    H270979   5.359   4.860  11.295 -0.6383 -0.0273 -1.5606
16522TIP3   OH270980   0.968   4.182  15.727 -0.3145 -0.6337  0.6433
16522TIP3    H170981   1.009   4.216  15.647 -0.8697 -0.9715  0.2068
16522TIP3    H270982   0.956   4.259  15.783 -2.1864  0.0160 -0.6130
16523TIP3   OH270983   0.791   3.750  15.107 -0.1386  0.4629 -0.2773
16523TIP3    H170984   0.742   3.736  15.026  1.4675  0.0201 -1.1835
16523TIP3    H270985   0.783   3.667  15.155  2.0989 -0.6223 -1.7246
16524TIP3   OH270986   0.896   0.679   1.550 -0.2749  0.0214 -0.0593
16524TIP3    H170987   0.958   0.692   1.621  0.4700  0.6556 -0.8153
16524TIP3    H270988   0.943   0.625   1.486 -1.6087 -2.2032  0.7898
16525TIP3   OH270989   1.400   5.920  14.264 -0.2469 -0.0132  0.2234
16525TIP3    H170990   1.387   6.007  14.227  1.7572  0.1660 -0.1024
16525TIP3    H270991   1.318   5.902  14.311 -1.8010  0.8307 -2.0883
16526TIP3   OH270992   4.748   2.324  17.211  0.3147 -0.2923  0.6755
16526TIP3    H170993   4.683   2.385  17.246 -0.6615 -1.5455  1.0589
16526TIP3    H270994   4.699   2.244  17.192  1.3339 -0.5490 -1.0365
16527TIP3   OH270995   6.026   3.135  13.752  0.0577 -0.2888 -0.5652
16527TIP3    H170996   6.034   3.224  13.718 -0.0872 -0.0080  0.1277
16527TIP3    H270997   5.970   3.144  13.830  0.5992 -0.8799 -0.1032
16528TIP3   OH270998   2.817   2.481   0.939  0.2601 -0.4244 -0.7196
16528TIP3    H170999   2.745   2.479   1.003  1.7320  1.0306  1.0145
16528TIP3    H271000   2.773   2.494   0.855 -1.5931 -0.6912  0.1704
16529TIP3   OH271001   6.786   2.343   3.129  0.2900 -0.2130  0.2962
16529TIP3    H171002   6.833   2.426   3.123  0.7129 -0.2721  2.4657
16529TIP3    H271003   6.802   2.313   3.219  0.4122 -2.7938 -0.5447
16530TIP3   OH271004   5.443   2.788   0.354 -0.1536  0.1630 -0.6444
16530TIP3    H171005   5.487   2.806   0.271  0.8872  1.5633  0.1933
16530TIP3    H271006   5.375   2.855   0.361  1.3764  1.6098  0.7807
16531TIP3   OH271007   4.103   2.935   1.418 -0.4423  0.6832  0.2189
16531TIP3    H171008   4.032   2.945   1.355  0.4849  1.3766 -0.7456
16531TIP3    H271009   4.066   2.883   1.489 -1.4742 -0.1892 -0.9448
16532TIP3   OH271010   0.801   4.843  10.422 -0.2325  0.1454  0.2114
16532TIP3    H171011   0.717   4.887  10.434 -0.0904  0.2801  0.7096
16532TIP3    H271012   0.860   4.912  10.390 -0.3666  0.0011 -0.3517
16533TIP3   OH271013   2.922   5.479   5.068  0.2014  0.2117  0.1791
16533TIP3    H171014   3.012   5.473   5.098  0.6486  0.3464 -1.0765
16533TIP3    H271015   2.930   5.499   4.974 -1.1204  1.4497  0.3081
16534TIP3   OH271016   4.552   3.446   5.126 -0.0092 -0.7267  0.5142
16534TIP3    H171017   4.498   3.379   5.084  1.2370 -0.9239 -0.7846
16534TIP3    H271018   4.618   3.397   5.175 -0.1572 -0.4631  0.9874
16535TIP3   OH271019   3.327   0.310  14.913 -0.7803 -0.1396 -0.4677
16535TIP3    H171020   3.423   0.314  14.920 -0.6919  4.2572 -2.4634
16535TIP3    H271021   3.310   0.279  14.824 -1.1580  0.8179 -0.7371
16536TIP3   OH271022   5.427   1.713  12.204  0.5698  0.1079  0.8873
16536TIP3    H171023   5.379   1.640  12.164 -1.1232  0.6459  1.9047
16536TIP3    H271024   5.422   1.783  12.139 -0.0499  0.1668  0.9945
16537TIP3   OH271025   6.681   1.629   4.325  0.1856  0.0283  0.0038
16537TIP3    H171026   6.691   1.724   4.312 -0.8036  0.1732  0.2591
16537TIP3    H271027   6.711   1.614   4.414  1.5078 -0.0976 -0.4403
16538TIP3   OH271028   1.939   5.294  12.408 -0.2969  0.1852  0.1368
16538TIP3    H171029   2.021   5.306  12.456 -0.5142  2.1452  0.0428
16538TIP3    H271030   1.962   5.311  12.316 -0.6798  0.1293  0.0298
16539TIP3   OH271031   4.178   0.678  16.327 -0.1305  0.0291  0.7316
16539TIP3    H171032   4.124   0.662  16.249  1.0007 -2.6109  0.4410
16539TIP3    H271033   4.140   0.621  16.394 -1.2658  2.4986  2.2168
16540TIP3   OH271034   5.207   4.705   0.246  0.0783  0.0463 -0.4267
16540TIP3    H171035   5.301   4.708   0.259 -0.0607  0.0954  0.6161
16540TIP3    H271036   5.188   4.778   0.187  0.3840  1.5877  1.3612
16541TIP3   OH271037   1.500   6.004   5.231 -0.5910  0.2096 -0.2927
16541TIP3    H171038   1.438   5.971   5.165 -1.6009  0.5648  0.4519
16541TIP3    H271039   1.454   6.078   5.270 -0.2424 -0.3601  1.2040
16542TIP3   OH271040   5.723   3.059   3.509  0.4912  0.2518 -0.1696
16542TIP3    H171041   5.778   3.137   3.503  0.2968  0.4547  0.6548
16542TIP3    H271042   5.722   3.038   3.602 -0.3431 -0.0933 -0.2569
16543TIP3   OH271043   1.658   3.060   3.423 -0.3858  0.0515  0.4245
16543TIP3    H171044   1.669   2.970   3.451  0.9128  0.4711  1.3083
16543TIP3    H271045   1.649   3.055   3.328  1.8492 -0.8580  0.2258
16544TIP3   OH271046   4.369   2.597   0.894 -0.1745 -0.2708 -0.0435
16544TIP3    H171047   4.345   2.668   0.953 -0.2419 -0.7504  0.5149
16544TIP3    H271048   4.292   2.585   0.838 -1.0552 -1.4310  1.3721
16545TIP3   OH271049   2.369   5.127  12.615  0.0406 -0.2105 -0.5878
16545TIP3    H171050   2.402   5.047  12.655 -1.1112  0.0949  1.0490
16545TIP3    H271051   2.427   5.196  12.648 -0.9859  0.0588  0.7293
16546TIP3   OH271052   3.938   4.517   0.481  0.4793  0.3272  0.0902
16546TIP3    H171053   3.925   4.423   0.471  0.3877  0.4032 -0.5666
16546TIP3    H271054   4.033   4.528   0.487  0.4044  0.0210  2.1227
16547TIP3   OH271055   2.008   3.411   0.291  0.6966  0.5486  0.1899
16547TIP3    H171056   1.982   3.388   0.380  1.6175 -0.8488  0.1101
16547TIP3    H271057   2.104   3.408   0.293  0.7525  1.5178 -0.5939
16548TIP3   OH271058   3.982   5.115  16.643 -0.1840 -0.7470  0.5726
16548TIP3    H171059   4.042   5.078  16.578  0.4373 -0.1182  0.7842
16548TIP3    H271060   4.035   5.180  16.690 -1.4612  0.9271 -0.2548
16549TIP3   OH271061   3.424   1.212  15.602 -0.0062 -0.1404 -0.2781
16549TIP3    H171062   3.445   1.303  15.580 -0.1962  0.0382  0.2859
16549TIP3    H271063   3.352   1.189  15.544 -0.2720  0.2182 -0.0889
16550TIP3   OH271064   3.166   0.346   4.685 -1.0537 -0.0632 -0.5677
16550TIP3    H171065   3.173   0.441   4.676  1.4972 -0.1409  0.2855
16550TIP3    H271066   3.103   0.333   4.756 -0.9841  1.0028 -0.3095
16551TIP3   OH271067   3.893   3.531  11.442 -0.1799 -0.4593  0.5135
16551TIP3    H171068   3.977   3.503  11.405 -1.2789 -0.9760 -1.6874
16551TIP3    H271069   3.845   3.449  11.455 -1.0350 -0.0452  0.0005
16552TIP3   OH271070   6.345   1.987  15.686  0.5090  0.4282 -0.0714
16552TIP3    H171071   6.272   1.926  15.697  0.7576 -0.2071 -1.8481
16552TIP3    H271072   6.399   1.947  15.618  1.6969  1.6813  0.1196
16553TIP3   OH271073   5.553   0.375  16.000  0.1287 -0.2599  0.0513
16553TIP3    H171074   5.607   0.299  15.977 -1.7364 -1.3766 -0.6680
16553TIP3    H271075   5.471   0.338  16.032 -0.2527  1.4373  1.1060
16554TIP3   OH271076   4.221   6.204  14.848 -0.0723 -0.1936 -0.3217
16554TIP3    H171077   4.212   6.259  14.926  0.2570  0.6446 -0.8737
16554TIP3    H271078   4.163   6.243  14.783 -0.7632 -1.2082 -0.3406
16555TIP3   OH271079   6.717   5.171   3.279  0.2157  0.1725  0.2713
16555TIP3    H171080   6.746   5.165   3.188  0.6265 -0.5710  0.4445
16555TIP3    H271081   6.649   5.104   3.287  1.4816 -1.0757  0.9829
16556TIP3   OH271082   1.285   1.428  16.723 -0.0363  0.3989 -0.3569
16556TIP3    H171083   1.228   1.375  16.668  0.3319 -0.1211 -0.2394
16556TIP3    H271084   1.363   1.373  16.738  0.4221  1.0325 -0.3844
16557TIP3   OH271085   4.941   6.042   2.828 -0.6805  0.0938 -0.0432
16557TIP3    H171086   5.011   6.066   2.889 -1.5543  2.9892 -0.1122
16557TIP3    H271087   4.967   5.956   2.795  1.3693 -0.1597  2.0779
16558TIP3   OH271088   0.252   6.329   2.731 -0.0415  0.9957  0.1711
16558TIP3    H171089   0.220   6.316   2.642 -0.3850 -0.7238  0.5302
16558TIP3    H271090   0.229   6.248   2.777  0.8676  1.5327  1.6037
16559TIP3   OH271091   1.411   1.224   4.325 -0.5829 -0.4637  0.4454
16559TIP3    H171092   1.459   1.210   4.244 -1.2161  1.2785 -0.2543
16559TIP3    H271093   1.425   1.144   4.375  2.3592 -0.3150 -0.0752
16560TIP3   OH271094   3.265   0.564  15.954  0.2609  0.3961  0.0729
16560TIP3    H171095   3.292   0.479  15.989 -0.1117  1.3333  2.8086
16560TIP3    H271096   3.230   0.545  15.867 -0.6263 -2.3643  0.9833
16561TIP3   OH271097   1.330   4.344  16.472 -0.6439 -0.6776  0.0242
16561TIP3    H171098   1.250   4.326  16.522 -2.1279  0.5115 -1.8020
16561TIP3    H271099   1.312   4.428  16.429  0.6859 -1.4863 -2.2059
16562TIP3   OH271100   0.232   3.924  15.469  0.1991  0.3549 -0.4206
16562TIP3    H171101   0.218   3.884  15.555  0.1256 -1.2212 -1.1349
16562TIP3    H271102   0.145   3.947  15.439  0.2497  1.1556  0.0364
16563TIP3   OH271103   5.011   3.511  16.371  0.3640 -0.0316 -0.0871
16563TIP3    H171104   4.971   3.451  16.308 -1.3395  1.1458 -0.1301
16563TIP3    H271105   4.995   3.471  16.456 -0.7680  0.3463 -0.1172
16564TIP3   OH271106   0.860   5.117   4.012 -0.0772 -0.4152 -0.0302
16564TIP3    H171107   0.765   5.111   4.020 -0.1536 -1.4537 -1.5913
16564TIP3    H271108   0.875   5.206   3.981 -0.5981 -0.5613 -0.7000
16565TIP3   OH271109   5.298   3.348   6.231 -0.2348 -0.0842  0.4202
16565TIP3    H171110   5.277   3.370   6.322  0.3584 -0.6423  0.7018
16565TIP3    H271111   5.334   3.259   6.236  0.2392  0.0635 -0.2997
16566TIP3   OH271112   0.093   0.617   1.021  0.0763 -0.4458 -0.3305
16566TIP3    H171113   0.159   0.667   1.069 -0.9918  1.0079 -0.3249
16566TIP3    H271114   0.117   0.627   0.929 -0.9697  1.3633 -0.4330
16567TIP3   OH271115   5.327   2.751  17.184  0.0422 -0.5273  0.4578
16567TIP3    H171116   5.283   2.768  17.268  0.7334  0.5558  0.6122
16567TIP3    H271117   5.269   2.789  17.118  0.3828  0.2462  0.6003
16568TIP3   OH271118   3.301   4.936  14.175  0.3589 -0.0080  0.0496
16568TIP3    H171119   3.231   4.985  14.218 -1.3390 -0.4509 -2.1141
16568TIP3    H271120   3.305   4.972  14.087 -0.6727 -3.4644 -1.4913
16569TIP3   OH271121   0.044   4.657   2.997 -0.5317  0.0757  0.1439
16569TIP3    H171122   0.057   4.574   2.952  1.3291  1.3120 -1.7019
16569TIP3    H271123   0.056   4.636   3.090  0.8182 -1.5481 -0.3641
16570TIP3   OH271124   2.423   5.407  16.830  0.4274 -0.7058  0.4861
16570TIP3    H171125   2.467   5.327  16.860  0.4865 -0.6385  0.5793
16570TIP3    H271126   2.456   5.475  16.889  2.0838 -0.1962 -0.9828
16571TIP3   OH271127   4.952   4.943  11.971 -0.4156  0.5222  0.0643
16571TIP3    H171128   4.902   5.009  12.019 -0.1660  0.4774  0.3866
16571TIP3    H271129   4.905   4.934  11.888  0.2835  2.0573 -0.5288
16572TIP3   OH271130   0.548   6.040  15.194 -0.2991  0.4688  0.2578
16572TIP3    H171131   0.622   6.100  15.203 -0.4825  1.1432 -2.3493
16572TIP3    H271132   0.471   6.094  15.209 -0.3763  0.4427 -0.0367
16573TIP3   OH271133   4.125   1.180  15.151 -0.3483 -0.0811  0.4999
16573TIP3    H171134   4.071   1.148  15.223 -0.0042 -1.9149 -0.0398
16573TIP3    H271135   4.144   1.102  15.098  2.2551  0.6337  0.3080
16574TIP3   OH271136   6.095   2.691   4.972 -0.7631 -0.2888  0.0002
16574TIP3    H171137   6.133   2.774   4.943 -0.5483  0.0242  1.1595
16574TIP3    H271138   6.047   2.658   4.895  0.7559 -0.0536 -1.0578
16575TIP3   OH271139   6.342   6.577   1.006 -0.0063 -0.6879 -0.0553
16575TIP3    H171140   6.270   6.618   0.958 -0.7801 -1.9833 -0.0219
16575TIP3    H271141   6.316   6.585   1.098 -0.2454 -1.4101 -0.0601
16576TIP3   OH271142   4.447   4.204  13.658 -0.0314  0.1130 -0.1152
16576TIP3    H171143   4.442   4.283  13.713 -0.1978  0.0510 -0.0394
16576TIP3    H271144   4.399   4.227  13.579 -2.1047 -0.6994  0.8639
16577TIP3   OH271145   3.499   3.020   0.066 -0.1585 -0.2889 -0.3259
16577TIP3    H171146   3.497   3.097   0.010 -0.1883 -1.2956 -1.7450
16577TIP3    H271147   3.552   3.046   0.141 -0.2420  1.1295 -0.7443
16578TIP3   OH271148   5.696   0.156   2.839 -0.3672 -0.3020 -0.0402
16578TIP3    H171149   5.763   0.131   2.903  1.7411  0.8178 -1.7333
16578TIP3    H271150   5.649   0.075   2.821  0.4111 -1.0772  1.3378
16579TIP3   OH271151   2.271   0.400  13.246 -1.1658  0.1518 -0.2346
16579TIP3    H171152   2.356   0.438  13.270 -1.7404  1.7005 -0.6067
16579TIP3    H271153   2.228   0.383  13.330 -0.5794 -0.4524 -0.0482
16580TIP3   OH271154   3.970   5.683  14.767 -0.1218 -0.2155 -0.0867
16580TIP3    H171155   3.992   5.698  14.675  2.1928  0.2179  0.5020
16580TIP3    H271156   3.938   5.768  14.798  1.4834  0.3352  0.1222
16581TIP3   OH271157   6.414   2.172   2.589 -0.6593 -0.4046 -0.6953
16581TIP3    H171158   6.432   2.249   2.535  1.1026 -0.7291 -0.6212
16581TIP3    H271159   6.448   2.098   2.537 -1.8871 -1.0758 -0.5569
16582TIP3   OH271160   3.719   2.109  10.986  0.0167 -0.5886  0.0741
16582TIP3    H171161   3.787   2.056  10.944  0.2814  0.7840 -1.2378
16582TIP3    H271162   3.643   2.103  10.928 -1.3761 -2.9188  2.0146
16583TIP3   OH271163   6.786   1.637   4.571  0.4118  0.1729  0.4535
16583TIP3    H171164   6.783   1.659   4.664  1.2593  0.1617  0.4934
16583TIP3    H271165   6.858   1.690   4.536  0.4756 -0.2562 -0.0762
16584TIP3   OH271166   6.580   0.564  12.549  0.3793  0.1060 -0.1987
16584TIP3    H171167   6.569   0.592  12.640 -0.5689  0.0208 -0.2767
16584TIP3    H271168   6.504   0.509  12.532  1.6704 -1.6712 -0.3763
16585TIP3   OH271169   0.257   1.676  12.247  0.1254  0.3743 -0.3173
16585TIP3    H171170   0.163   1.679  12.231 -0.2787 -0.8241  1.6559
16585TIP3    H271171   0.288   1.764  12.227 -1.2087  0.4945 -2.0404
16586TIP3   OH271172   4.129   3.979  11.851  0.4046  0.0156  0.5982
16586TIP3    H171173   4.083   3.976  11.767  0.8905  1.4410  0.2692
16586TIP3    H271174   4.083   4.046  11.901 -0.1713 -1.1468  1.6727
16587TIP3   OH271175   6.473   0.690  12.767 -0.0059  0.4380 -0.2365
16587TIP3    H171176   6.550   0.747  12.758 -0.0278  0.7443  1.4392
16587TIP3    H271177   6.401   0.750  12.785 -0.2698 -0.0246  0.2513
16588TIP3   OH271178   3.553   3.824  13.081 -0.2882 -0.8430  0.0871
16588TIP3    H171179   3.623   3.777  13.127  0.2386  0.2822  0.4410
16588TIP3    H271180   3.533   3.899  13.136  0.2700  0.4507 -1.4430
16589TIP3   OH271181   3.584   0.528  16.620 -0.2495  0.7625 -0.0369
16589TIP3    H171182   3.610   0.598  16.681 -1.1238 -0.5298  1.8928
16589TIP3    H271183   3.489   0.533  16.618 -0.3962 -1.0190  0.9753
16590TIP3   OH271184   1.910   5.668   1.315 -0.5664  0.1022  0.0625
16590TIP3    H171185   1.857   5.720   1.255  0.0665  2.3424  1.3929
16590TIP3    H271186   2.000   5.691   1.294 -0.3399  1.3081  2.1534
16591TIP3   OH271187   5.454   1.978   2.891  0.3516 -0.2426 -0.6358
16591TIP3    H171188   5.383   1.951   2.950  0.5615 -0.4447 -0.4781
16591TIP3    H271189   5.526   1.918   2.910  0.8254  0.4333 -0.2612
16592TIP3   OH271190   6.256   2.207   2.815 -0.2452 -0.3487  0.3935
16592TIP3    H171191   6.183   2.168   2.767 -0.6297  0.1040  0.6116
16592TIP3    H271192   6.329   2.205   2.752 -0.5286 -0.5039  0.0659
16593TIP3   OH271193   4.376   0.836   0.840 -0.3228  0.1766  0.1271
16593TIP3    H171194   4.452   0.781   0.860 -0.9939 -0.5118  0.8283
16593TIP3    H271195   4.338   0.796   0.762 -0.7264 -0.2749  0.5518
16594TIP3   OH271196   3.062   5.478   0.589  0.2344 -0.3322  0.2497
16594TIP3    H171197   3.004   5.476   0.666 -1.6220  0.8786 -1.0818
16594TIP3    H271198   3.066   5.571   0.565  1.4138 -0.6139 -0.6686
16595TIP3   OH271199   4.426   1.777   3.742 -0.2723  0.5621  0.4421
16595TIP3    H171200   4.413   1.749   3.833 -2.0287 -0.6868 -0.1607
16595TIP3    H271201   4.518   1.761   3.725 -0.3798 -1.1686  1.3819
16596TIP3   OH271202   2.050   4.838   3.433  0.7170  0.3517 -0.3056
16596TIP3    H171203   1.954   4.836   3.435  0.6937  1.0702 -0.5775
16596TIP3    H271204   2.075   4.749   3.410  0.1407 -0.0614  0.6011
16597TIP3   OH271205   1.679   0.304   4.938 -0.0144  0.5706  0.0543
16597TIP3    H171206   1.716   0.294   4.850  0.4807 -0.0104  0.3222
16597TIP3    H271207   1.710   0.389   4.968  0.8311  0.2349  0.1409
16598TIP3   OH271208   2.368   3.334  14.139 -0.4207 -0.3314 -0.1552
16598TIP3    H171209   2.339   3.382  14.216  0.7605 -1.1435  0.8058
16598TIP3    H271210   2.345   3.391  14.065 -1.4374  0.5009  0.7942
16599TIP3   OH271211   3.858   5.819   2.285 -0.1456 -0.0572  0.2023
16599TIP3    H171212   3.895   5.880   2.348  1.5497 -1.5605  0.7142
16599TIP3    H271213   3.890   5.850   2.200 -0.5128  0.6200  0.3119
16600TIP3   OH271214   3.762   1.290   4.652 -0.4653  0.3723  0.5674
16600TIP3    H171215   3.709   1.279   4.731 -1.3885 -0.3918 -0.1424
16600TIP3    H271216   3.698   1.300   4.581  0.3517  1.4230 -0.0378
16601TIP3   OH271217   5.677   1.484   1.870 -0.5795  0.4166  0.1033
16601TIP3    H171218   5.632   1.471   1.953 -0.5639  1.8121  0.3461
16601TIP3    H271219   5.647   1.570   1.840 -1.0943 -0.3561 -1.6577
16602TIP3   OH271220   1.776   6.666   2.958  0.3899 -0.0142  0.0515
16602TIP3    H171221   1.799   6.682   2.866  2.0260 -1.8560  0.1197
16602TIP3    H271222   1.823   6.734   3.007  1.3913 -0.4568 -0.2831
16603TIP3   OH271223   4.483   6.554  15.540 -0.1968 -0.4182  0.1426
16603TIP3    H171224   4.524   6.639  15.528 -3.7734  1.8238  2.9591
16603TIP3    H271225   4.553   6.499  15.577  2.3865  0.9456 -2.5390
16604TIP3   OH271226   3.401   5.490  13.826 -0.0992 -0.4755 -0.5214
16604TIP3    H171227   3.346   5.456  13.756 -2.3202  1.0015  0.4188
16604TIP3    H271228   3.438   5.571  13.790  0.2995 -0.7203 -0.6593
16605TIP3   OH271229   1.292   0.205   0.203 -0.3203 -0.3276  0.0363
16605TIP3    H171230   1.347   0.157   0.141  0.5914 -1.9801  2.0635
16605TIP3    H271231   1.354   0.243   0.266 -1.1729  1.9470 -0.4450
16606TIP3   OH271232   3.813   1.918  16.821  0.2168  0.0206 -0.1554
16606TIP3    H171233   3.735   1.901  16.873  0.1738 -1.5205 -0.6976
16606TIP3    H271234   3.821   1.842  16.763  1.5286  0.6431 -0.8274
16607TIP3   OH271235   1.049   6.149  14.870  0.4347  0.1024 -0.2746
16607TIP3    H171236   1.007   6.072  14.910  0.5512  0.2804  0.1931
16607TIP3    H271237   1.096   6.114  14.795 -1.0568 -0.0240 -1.1831
16608TIP3   OH271238   3.242   4.061  15.796  0.2272  0.3043  0.1528
16608TIP3    H171239   3.189   4.094  15.869 -0.4081  1.7990 -0.9553
16608TIP3    H271240   3.333   4.072  15.826  0.0123  2.3314  0.1493
16609TIP3   OH271241   4.158   0.671   4.685  0.0409  0.3027  0.6070
16609TIP3    H171242   4.071   0.693   4.652  0.3103 -0.9735 -0.9830
16609TIP3    H271243   4.196   0.616   4.617  1.3568 -0.7506  2.1683
16610TIP3   OH271244   2.259   0.027  12.702 -0.0321  0.1848  0.3934
16610TIP3    H171245   2.319  -0.047  12.707  0.0485  0.0038 -2.5454
16610TIP3    H271246   2.172  -0.012  12.704  0.0074  0.0347 -0.8989
16611TIP3   OH271247   3.605   6.329  11.123 -0.2663  0.3202  0.1959
16611TIP3    H171248   3.678   6.356  11.179  0.1546 -1.4683  0.5419
16611TIP3    H271249   3.645   6.271  11.058 -1.1222  0.6129 -0.5981
16612TIP3   OH271250   4.352   1.104  13.742  0.1704 -0.3157  0.2830
16612TIP3    H171251   4.383   1.014  13.729 -0.5513 -0.7601  1.5829
16612TIP3    H271252   4.284   1.116  13.675 -1.8096 -1.7688  1.9464
16613TIP3   OH271253   0.655   5.481   3.106 -0.4029 -0.2310  0.2774
16613TIP3    H171254   0.608   5.524   3.177  0.4758 -0.1282  0.8006
16613TIP3    H271255   0.615   5.515   3.026 -2.1422 -1.1548  0.7101
16614TIP3   OH271256   4.554   6.227  16.751 -0.0851  0.3410  0.0752
16614TIP3    H171257   4.517   6.315  16.758 -1.3224 -0.1098 -0.6426
16614TIP3    H271258   4.539   6.202  16.660  1.0243 -0.2852  0.0585
16615TIP3   OH271259   1.651   3.280  12.442  0.2903 -0.1979 -0.1011
16615TIP3    H171260   1.598   3.329  12.505 -1.2581 -0.1618 -1.3850
16615TIP3    H271261   1.699   3.347  12.394  0.0265 -0.0924 -0.2198
16616TIP3   OH271262   6.120   0.722  15.906 -0.1635 -0.6238 -0.1311
16616TIP3    H171263   6.172   0.643  15.921 -0.5079 -1.0888 -1.3886
16616TIP3    H271264   6.058   0.724  15.979  1.1346 -0.4515  0.9846
16617TIP3   OH271265   3.654   1.445  13.277  0.0175  0.4588 -0.2917
16617TIP3    H171266   3.740   1.416  13.306  0.5940  1.6128 -0.8066
16617TIP3    H271267   3.594   1.418  13.347  0.7426 -0.6030 -0.0645
16618TIP3   OH271268   0.316   1.546   1.073  0.2439  0.2151  0.6290
16618TIP3    H171269   0.402   1.561   1.112  1.4653  2.5878 -2.7776
16618TIP3    H271270   0.256   1.599   1.125  1.1065 -0.1163  1.9728
16619TIP3   OH271271   6.599   3.959   4.448  0.5069  0.4153 -0.2195
16619TIP3    H171272   6.676   3.966   4.505  0.2126  0.5334  0.1614
16619TIP3    H271273   6.545   3.892   4.488 -0.0549  1.0316  0.0534
16620TIP3   OH271274   5.184   2.778   0.168 -0.1909 -0.4912 -0.6291
16620TIP3    H171275   5.116   2.809   0.108  0.2300  1.3387 -0.1929
16620TIP3    H271276   5.174   2.832   0.246  0.7963 -1.2198  0.0177
16621TIP3   OH271277   6.735   2.132   6.589  0.3921  0.1395 -0.1174
16621TIP3    H171278   6.775   2.219   6.586  0.8126  0.0164  1.3260
16621TIP3    H271279   6.809   2.071   6.576  0.4706 -0.0519  1.1608
16622TIP3   OH271280   2.612   4.105   0.384 -0.2049  0.3261  0.1081
16622TIP3    H171281   2.591   4.190   0.424 -1.3646  1.0661 -1.9561
16622TIP3    H271282   2.659   4.129   0.304  2.7564 -1.1314  1.3480
16623TIP3   OH271283   6.036   1.492   2.645  0.3516 -0.7264 -0.5421
16623TIP3    H171284   5.993   1.454   2.721  1.6315 -0.2965  0.4003
16623TIP3    H271285   6.062   1.580   2.672 -1.4057  0.3884 -2.2839
16624TIP3   OH271286   0.273   2.985  14.407  0.4195 -0.0716  0.3122
16624TIP3    H171287   0.203   3.040  14.441  0.8622  0.1459  0.8697
16624TIP3    H271288   0.267   2.904  14.458 -0.6328 -0.8065 -0.9263
16625TIP3   OH271289   4.158   1.741  13.801 -0.2006 -0.6591  0.2424
16625TIP3    H171290   4.245   1.772  13.777  0.6882 -3.2480 -0.0601
16625TIP3    H271291   4.112   1.733  13.717 -0.5773  0.2289  0.3581
16626TIP3   OH271292   5.464   5.551   1.881  0.0605  0.5469 -0.3993
16626TIP3    H171293   5.554   5.579   1.867  0.8172 -0.5325  2.0758
16626TIP3    H271294   5.417   5.631   1.906  0.2295  1.1583 -1.9472
16627TIP3   OH271295   5.680   6.777   5.298  0.5764  0.0679  0.4771
16627TIP3    H171296   5.733   6.800   5.222 -0.9698 -0.9987 -0.9649
16627TIP3    H271297   5.732   6.711   5.344  1.3150  0.3867  0.1046
16628TIP3   OH271298   5.873   2.235   6.935 -0.0931 -0.1254  0.1319
16628TIP3    H171299   5.797   2.220   6.878 -0.2292 -0.6763  0.4435
16628TIP3    H271300   5.942   2.265   6.877 -0.2230 -0.7070 -0.3239
16629TIP3   OH271301   3.143   3.543  12.205  0.0873  0.0112 -0.3589
16629TIP3    H171302   3.213   3.480  12.184  0.5521 -0.6963  3.0584
16629TIP3    H271303   3.062   3.496  12.185  0.4772 -1.0489  0.4978
16630TIP3   OH271304   0.886   4.799   4.672  0.3792  0.0370  0.2842
16630TIP3    H171305   0.796   4.770   4.684  0.1819  1.1685  1.6425
16630TIP3    H271306   0.939   4.737   4.722  0.4333 -1.0624 -1.1150
16631TIP3   OH271307   3.179   5.354  11.805 -0.0421 -0.1570 -0.1503
16631TIP3    H171308   3.083   5.351  11.800 -0.3286  1.0347  3.2911
16631TIP3    H271309   3.201   5.446  11.796  0.5585 -0.0881  1.8661
16632TIP3   OH271310   6.394   4.990   4.936  0.2669  0.0668  0.2531
16632TIP3    H171311   6.319   5.009   4.879  0.7459  1.2056 -0.0215
16632TIP3    H271312   6.365   5.018   5.023  1.0461  2.3844 -0.1866
16633TIP3   OH271313   6.152   5.748  13.222 -0.3475  0.0187 -0.7745
16633TIP3    H171314   6.103   5.688  13.278  1.0544 -0.4868 -0.0665
16633TIP3    H271315   6.088   5.781  13.160 -1.1173 -2.3364 -1.2812
16634TIP3   OH271316   5.380   5.911  16.597 -0.5412 -0.2945  0.3303
16634TIP3    H171317   5.445   5.869  16.541 -1.3731  0.7477 -1.4980
16634TIP3    H271318   5.338   5.976  16.540 -1.8551  0.3783  2.0075
16635TIP3   OH271319   4.411   3.541   3.108  0.5001  0.1168  0.1137
16635TIP3    H171320   4.407   3.476   3.038  1.3015 -0.1135  0.2826
16635TIP3    H271321   4.490   3.519   3.157 -0.6144 -0.3563  1.7210
16636TIP3   OH271322   4.487   1.415   4.494 -0.1223 -0.4526 -0.3545
16636TIP3    H171323   4.567   1.460   4.524 -0.6798  0.5621 -0.3532
16636TIP3    H271324   4.460   1.464   4.416 -0.7078 -0.8343 -0.3936
16637TIP3   OH271325   4.882   2.177   0.859  0.5157 -0.6850 -0.2412
16637TIP3    H171326   4.945   2.205   0.793 -1.1660  1.0804 -1.1470
16637TIP3    H271327   4.824   2.252   0.870 -0.9023 -1.9543  1.2136
16638TIP3   OH271328   4.522   2.027  14.394  0.3099  0.2812 -0.1819
16638TIP3    H171329   4.442   2.064  14.355 -0.4231 -0.0840  0.9475
16638TIP3    H271330   4.491   1.973  14.466  1.5697 -0.1180  0.0778
16639TIP3   OH271331   1.318   2.259  15.192  0.0680  0.0411  0.1203
16639TIP3    H171332   1.239   2.267  15.139  0.1949 -0.7890 -0.2097
16639TIP3    H271333   1.294   2.294  15.278 -1.0080 -1.2487  0.3621
16640TIP3   OH271334   1.606   0.380  11.915 -0.1183 -0.2469 -0.5624
16640TIP3    H171335   1.516   0.348  11.921 -0.5388  0.9802 -0.0717
16640TIP3    H271336   1.607   0.459  11.969  0.8775  0.5926 -1.7717
16641TIP3   OH271337   3.334   1.028  12.050 -0.1662 -0.6359 -0.0810
16641TIP3    H171338   3.358   1.052  11.961  0.4205 -1.8056 -0.2420
16641TIP3    H271339   3.381   1.091  12.105 -2.4260  1.6326 -0.6693
16642TIP3   OH271340   1.095   0.116   1.998 -0.3622  0.1600  0.1913
16642TIP3    H171341   1.188   0.123   2.016 -0.2641  1.7723 -0.8090
16642TIP3    H271342   1.090   0.091   1.906 -0.9225 -0.9892  0.5193
16643TIP3   OH271343   1.503   3.365   5.433  0.1713 -0.1220 -0.4282
16643TIP3    H171344   1.442   3.368   5.359  0.1074 -0.3766 -0.3853
16643TIP3    H271345   1.504   3.455   5.466 -1.5410 -0.4694  0.6707
16644TIP3   OH271346   2.683   4.108  11.293  0.4171 -0.0130 -0.3943
16644TIP3    H171347   2.725   4.067  11.217 -2.2895 -3.6923 -0.0133
16644TIP3    H271348   2.608   4.155  11.257 -0.3329 -0.9934 -0.1393
16645TIP3   OH271349   5.310   0.778   5.485  0.6979  0.4687 -0.1430
16645TIP3    H171350   5.278   0.832   5.558 -0.1486 -0.5104  0.2313
16645TIP3    H271351   5.308   0.836   5.409 -2.3003  0.3850 -0.1872
16646TIP3   OH271352   6.605   4.200  14.697  0.2503 -0.8021  0.4746
16646TIP3    H171353   6.648   4.146  14.630  0.3001 -0.4150  0.1913
16646TIP3    H271354   6.674   4.257  14.729  0.3715 -1.4099  1.2991
16647TIP3   OH271355   0.118   4.185   2.664  0.2645 -0.0016 -0.0182
16647TIP3    H171356   0.205   4.155   2.690  1.2202  1.6631 -1.2171
16647TIP3    H271357   0.076   4.108   2.625  1.0551 -0.8892  0.8487
16648TIP3   OH271358   4.123   5.143   4.869 -0.5916 -0.3049 -0.1054
16648TIP3    H171359   4.218   5.139   4.859 -0.3785 -0.1631  1.6731
16648TIP3    H271360   4.090   5.063   4.828  0.3500 -0.7133 -0.0687
16649TIP3   OH271361   5.465   4.109  13.506  0.1640  0.3605  0.1939
16649TIP3    H171362   5.405   4.038  13.531  0.0990  0.8954  1.5710
16649TIP3    H271363   5.538   4.065  13.462  0.0586 -0.5415  0.9225
16650TIP3   OH271364   6.561   2.840   2.540  0.3660  0.2779  0.4013
16650TIP3    H171365   6.487   2.886   2.578  0.7285  0.4486  0.9151
16650TIP3    H271366   6.635   2.900   2.553  0.9150 -0.6053  1.4189
16651TIP3   OH271367   2.582   2.965   5.186 -0.0851 -0.1909  0.7412
16651TIP3    H171368   2.637   2.943   5.261  0.6763  0.6864  0.4553
16651TIP3    H271369   2.616   2.911   5.115  1.1463  1.1344  0.2877
16652TIP3   OH271370   2.620   0.803   0.356  0.2345 -0.1456  0.2960
16652TIP3    H171371   2.601   0.896   0.338  0.9775 -0.1526 -0.5720
16652TIP3    H271372   2.630   0.799   0.451  2.4960  1.1278  0.1560
16653TIP3   OH271373   1.233   2.183  12.680  0.1194  0.3202  0.1936
16653TIP3    H171374   1.205   2.273  12.660  0.2609  0.0692 -1.2456
16653TIP3    H271375   1.208   2.133  12.602 -0.0840 -0.9243  1.0402
16654TIP3   OH271376   0.744   1.768  10.632 -0.6605  0.3912  0.0640
16654TIP3    H171377   0.693   1.724  10.700 -2.0213  0.5274 -0.8424
16654TIP3    H271378   0.834   1.767  10.665 -1.3578  0.8388  2.0533
16655TIP3   OH271379   4.927   4.377  17.009  0.3410 -0.1182 -1.0037
16655TIP3    H171380   5.008   4.340  17.045 -0.9376 -1.5896  0.4272
16655TIP3    H271381   4.924   4.466  17.043  0.4032 -0.6894  0.5396
16656TIP3   OH271382   3.137   2.487   6.555  0.0423  0.3930  0.4286
16656TIP3    H171383   3.136   2.513   6.647  0.3824 -1.0213  0.8463
16656TIP3    H271384   3.050   2.508   6.522  0.1503  1.5623  0.8814
16657TIP3   OH271385   1.363   6.786  12.289 -0.5316 -0.1899  0.0710
16657TIP3    H171386   1.293   6.849  12.272 -0.7778 -0.2437  0.8716
16657TIP3    H271387   1.413   6.783  12.208 -0.9013  0.5556 -0.1840
16658TIP3   OH271388   5.571   6.697   0.480  0.1140  0.6215  0.2488
16658TIP3    H171389   5.502   6.637   0.451  0.9395 -0.0131 -0.4372
16658TIP3    H271390   5.526   6.781   0.491 -0.5014  0.5485 -1.5374
16659TIP3   OH271391   1.666   2.987   1.851 -0.1719 -0.3008  0.3361
16659TIP3    H171392   1.662   2.951   1.939  0.8010  1.7007  1.2250
16659TIP3    H271393   1.734   3.054   1.855 -1.2555  0.9610 -1.5048
16660TIP3   OH271394   5.537   1.758  11.799 -0.2573 -0.5560 -0.2245
16660TIP3    H171395   5.585   1.692  11.749 -1.2301 -0.5547 -1.1682
16660TIP3    H271396   5.505   1.819  11.733  0.8383  0.9993  0.6752
16661TIP3   OH271397   4.336   0.775   5.091  0.0520  0.1728  0.0554
16661TIP3    H171398   4.275   0.770   5.165  0.4329 -1.3215  0.2751
16661TIP3    H271399   4.306   0.708   5.030 -0.6454  1.8262 -1.4736
16662TIP3   OH271400   0.142   2.142  16.431 -0.4248 -0.9272  0.5995
16662TIP3    H171401   0.123   2.193  16.510 -2.3364 -0.9463  0.1983
16662TIP3    H271402   0.130   2.205  16.359  0.7618 -1.0497  0.2927
16663TIP3   OH271403   0.149   1.003  15.060  0.5697  0.2417 -0.2802
16663TIP3    H171404   0.113   1.032  15.144 -1.2550  0.6331 -1.1899
16663TIP3    H271405   0.228   1.056  15.049  2.7552 -2.1434  2.7685
16664TIP3   OH271406   2.476   3.883   4.228  0.2626 -0.0468  0.2529
16664TIP3    H171407   2.465   3.866   4.134  0.1221  1.1155  0.0585
16664TIP3    H271408   2.493   3.977   4.233 -0.0957 -0.0504  1.4299
16665TIP3   OH271409   1.917   3.970   1.809 -0.2659 -0.5016 -0.0381
16665TIP3    H171410   2.011   3.952   1.803 -0.5127 -1.9527  0.1784
16665TIP3    H271411   1.908   4.028   1.884  0.4063 -0.8569  0.3229
16666TIP3   OH271412   3.077   1.519  13.153  0.2312  0.6681 -0.1595
16666TIP3    H171413   3.160   1.494  13.194 -0.6681 -1.8185  0.2210
16666TIP3    H271414   3.095   1.604  13.111  2.7138  0.5458  0.6073
16667TIP3   OH271415   1.321   4.083   0.953  0.5041 -0.5410 -0.3834
16667TIP3    H171416   1.272   4.002   0.937 -0.4175  0.0720 -0.6952
16667TIP3    H271417   1.292   4.111   1.040 -0.0474  0.0620 -0.7565
16668TIP3   OH271418   1.325   5.514  14.976  0.1967 -0.1313  0.4912
16668TIP3    H171419   1.332   5.504  14.881 -1.1322 -1.7223  0.5406
16668TIP3    H271420   1.415   5.505  15.007  0.5218 -0.5162 -0.5286
16669TIP3   OH271421   2.428   3.334  16.348  0.7835 -0.2435  0.2416
16669TIP3    H171422   2.481   3.361  16.274 -0.7434  1.4517 -0.2779
16669TIP3    H271423   2.445   3.400  16.415 -0.0141 -0.1570  0.3636
16670TIP3   OH271424   0.197   2.763  13.405  0.8320 -0.3163 -0.2480
16670TIP3    H171425   0.160   2.850  13.416  0.0700 -0.6878  0.1370
16670TIP3    H271426   0.286   2.770  13.441  1.1081  0.5433 -1.0791
16671TIP3   OH271427   0.707   1.464  16.659 -0.0685 -0.1264 -0.1286
16671TIP3    H171428   0.798   1.477  16.686 -0.2589  0.3917  0.2887
16671TIP3    H271429   0.680   1.550  16.626 -0.0528 -0.5856 -1.3314
16672TIP3   OH271430   4.464   6.696  13.954 -0.7119  0.0309 -0.3226
16672TIP3    H171431   4.532   6.654  13.901 -0.7273  1.6246 -1.6728
16672TIP3    H271432   4.394   6.631  13.960 -0.1179 -0.6920 -1.0701
16673TIP3   OH271433   3.972   1.945  15.790  0.8828 -0.4220 -0.7069
16673TIP3    H171434   3.993   1.951  15.883  1.5564  0.0302 -0.8820
16673TIP3    H271435   3.997   1.856  15.765 -4.1025 -2.3947  0.6932
16674TIP3   OH271436   5.024   5.459  10.887  0.5602 -0.4267  0.4265
16674TIP3    H171437   5.025   5.412  10.804 -0.4806  1.8352 -0.9335
16674TIP3    H271438   4.973   5.404  10.946 -2.7143  0.0528 -1.8207
16675TIP3   OH271439   1.243   1.007  14.502  0.0882  0.9610  0.0911
16675TIP3    H171440   1.264   0.915  14.515 -0.6659  1.0410  2.0978
16675TIP3    H271441   1.319   1.055  14.535  0.1391  1.0780 -0.1914
16676TIP3   OH271442   5.191   2.138  11.274  0.3218 -0.0634  0.3080
16676TIP3    H171443   5.280   2.119  11.302  0.4828 -1.1335 -0.8689
16676TIP3    H271444   5.143   2.056  11.288 -0.6620  0.7312  1.6528
16677TIP3   OH271445   6.043   6.450   1.103 -0.1512  0.3620 -0.1437
16677TIP3    H171446   6.047   6.431   1.010 -0.3888  0.2605 -0.1340
16677TIP3    H271447   5.986   6.382   1.139 -0.3586  0.6170  0.0153
16678TIP3   OH271448   5.074   4.031  14.699  0.4187  0.1211 -0.0718
16678TIP3    H171449   5.070   4.126  14.709  1.5913  0.1684  0.0724
16678TIP3    H271450   4.984   4.004  14.682  0.0082  1.2095  0.3556
16679TIP3   OH271451   0.761   3.699   4.212  0.3269  0.4828  0.4346
16679TIP3    H171452   0.750   3.604   4.217 -0.4376  0.6492  2.0206
16679TIP3    H271453   0.783   3.726   4.301 -3.9874  2.3301  1.0882
16680TIP3   OH271454   2.311   1.794   2.827  0.5169 -0.0635  0.0419
16680TIP3    H171455   2.335   1.767   2.739  1.4112  1.3888 -0.1559
16680TIP3    H271456   2.291   1.711   2.872 -2.5850 -0.6526 -2.2408
16681TIP3   OH271457   1.075   4.063   2.013 -0.4843  0.6241  0.7516
16681TIP3    H171458   1.026   4.137   2.049  0.9569  1.6786  0.5942
16681TIP3    H271459   1.007   4.000   1.986 -1.7010  1.5572  1.5674
16682TIP3   OH271460   5.539   2.999  14.514  0.1606 -0.0203 -0.0585
16682TIP3    H171461   5.615   3.052  14.491  0.3568  0.3842  1.4236
16682TIP3    H271462   5.469   3.062  14.531  0.3463 -0.2226  1.5458
16683TIP3   OH271463   4.641   0.859  16.701 -0.1085 -0.3340  0.2685
16683TIP3    H171464   4.651   0.918  16.626 -0.7281 -0.7766 -0.1683
16683TIP3    H271465   4.711   0.885  16.762  0.4730 -0.0530 -0.5125
16684TIP3   OH271466   5.665   2.516  11.999  0.1601  0.3324 -0.3450
16684TIP3    H171467   5.644   2.518  12.092  0.8341 -1.7024 -0.1364
16684TIP3    H271468   5.614   2.443  11.964  0.6151  0.5103 -1.4106
16685TIP3   OH271469   2.546   4.836  10.881 -0.0555 -0.7119 -1.0356
16685TIP3    H171470   2.639   4.843  10.857 -0.4265 -0.7001 -2.5100
16685TIP3    H271471   2.500   4.827  10.798 -1.4581 -0.0182 -0.3551
16686TIP3   OH271472   3.465   1.835  12.008  0.2719  0.3648  0.1153
16686TIP3    H171473   3.456   1.745  11.976  3.5532  0.3097 -0.8170
16686TIP3    H271474   3.530   1.875  11.950  1.2871  2.3289  2.5091
16687TIP3   OH271475   0.617   2.441   0.066  0.5276  0.3682 -0.7252
16687TIP3    H171476   0.632   2.403   0.153 -1.2226  1.7716  0.2426
16687TIP3    H271477   0.704   2.456   0.030  1.3119  1.2469  1.4711
16688TIP3   OH271478   3.613   3.850  12.804  0.0551  0.3916 -0.1607
16688TIP3    H171479   3.579   3.872  12.891 -0.9327  0.0010 -0.4463
16688TIP3    H271480   3.688   3.908  12.793  2.5021 -2.0778  2.5114
16689TIP3   OH271481   3.012   6.404  13.155  0.0011 -0.6849 -0.2227
16689TIP3    H171482   3.007   6.481  13.099  0.5694 -0.7273 -0.3382
16689TIP3    H271483   2.927   6.399  13.198 -0.5906 -0.8827 -1.3974
16690TIP3   OH271484   4.397   0.992  12.961 -0.2758 -0.2277 -0.1553
16690TIP3    H171485   4.330   1.048  13.001  1.2243 -0.0191  2.1724
16690TIP3    H271486   4.347   0.933  12.904 -2.1238  1.8635 -0.8155
16691TIP3   OH271487   1.568   4.106  15.589  0.3487  0.4046 -0.1785
16691TIP3    H171488   1.487   4.115  15.539 -0.4412  2.8063  1.4463
16691TIP3    H271489   1.604   4.021  15.562 -1.1414  0.6621 -3.1605
16692TIP3   OH271490   2.634   6.568   5.668 -0.0754 -0.0868 -0.2484
16692TIP3    H171491   2.645   6.601   5.579  0.1906  0.8639  0.1401
16692TIP3    H271492   2.651   6.474   5.660 -2.5451 -0.4700 -1.6657
16693TIP3   OH271493   0.122   0.312  11.912 -0.2904 -0.1938  0.5208
16693TIP3    H171494   0.120   0.388  11.971 -1.6755  0.0935  0.1368
16693TIP3    H271495   0.033   0.309  11.876  0.5932 -0.2621 -1.6879
16694TIP3   OH271496   2.695   1.752  13.431 -0.2228  0.1004 -0.4772
16694TIP3    H171497   2.699   1.785  13.521 -1.1596 -0.5609 -0.1949
16694TIP3    H271498   2.710   1.830  13.377 -0.5265  0.6576  0.2276
16695TIP3   OH271499   6.704   1.770   2.835  0.1525  0.3002  0.3393
16695TIP3    H171500   6.699   1.846   2.777 -0.9723  0.5479  0.7426
16695TIP3    H271501   6.646   1.705   2.794  1.3147 -0.4428 -0.1440
16696TIP3   OH271502   2.456   5.891  14.932 -0.2720 -0.7258  0.5717
16696TIP3    H171503   2.452   5.873  15.026 -0.6853 -0.2994  0.6374
16696TIP3    H271504   2.365   5.904  14.906 -0.0820  0.1431  0.3164
16697TIP3   OH271505   3.236   1.500   4.759  0.1304  0.4226  0.0797
16697TIP3    H171506   3.218   1.541   4.844  2.0752  0.5934  0.4346
16697TIP3    H271507   3.278   1.417   4.781  2.1624  1.2030 -0.6939
16698TIP3   OH271508   0.376   5.170  10.040 -0.4413 -0.2819  0.0191
16698TIP3    H171509   0.323   5.220  10.102 -0.6564 -0.4167 -0.0504
16698TIP3    H271510   0.356   5.208   9.955  0.5540  0.5005  0.1319
16699TIP3   OH271511   5.176   3.317  14.788 -0.0425 -0.0464  0.1119
16699TIP3    H171512   5.246   3.374  14.818  0.9127 -1.8045  1.3553
16699TIP3    H271513   5.156   3.347  14.699 -0.5601  3.0657  1.2436
16700TIP3   OH271514   0.394   0.754  16.879  0.0424  0.4847  0.5624
16700TIP3    H171515   0.300   0.757  16.892 -0.1421  0.3147 -0.6330
16700TIP3    H271516   0.414   0.661  16.868  0.2391  0.5766  0.1034
16701TIP3   OH271517   1.592   6.472  12.477  0.0023 -0.2562  0.0429
16701TIP3    H171518   1.581   6.553  12.427  0.7527  0.0002  0.2873
16701TIP3    H271519   1.506   6.431  12.476 -0.4696  0.7168  0.2080
16702TIP3   OH271520   2.808   3.448  11.995 -0.4574  0.2011  0.3701
16702TIP3    H171521   2.751   3.398  11.936 -0.6238  0.4494  0.3179
16702TIP3    H271522   2.808   3.398  12.077 -1.2716  0.5355  0.5787
16703TIP3   OH271523   5.315   0.332   2.080  0.4654  0.2016  0.3048
16703TIP3    H171524   5.254   0.358   2.010  1.7200 -0.0652 -0.8963
16703TIP3    H271525   5.369   0.264   2.041  1.6841  0.5783  1.3150
16704TIP3   OH271526   4.072   3.396   0.456 -0.6151  0.1767 -0.3936
16704TIP3    H171527   4.011   3.438   0.395 -1.3154 -0.1148  0.1101
16704TIP3    H271528   4.129   3.343   0.399  0.4002  1.9359 -1.0549
16705TIP3   OH271529   6.132   5.623   1.543 -0.7361  0.2025  0.8295
16705TIP3    H171530   6.053   5.599   1.496 -1.2973  1.0457  1.3319
16705TIP3    H271531   6.198   5.633   1.474 -1.6236  1.7346  0.1688
16706TIP3   OH271532   6.558   5.200  16.914 -0.6921  0.2562 -0.0889
16706TIP3    H171533   6.557   5.284  16.961  1.0704  0.5034 -0.4820
16706TIP3    H271534   6.565   5.224  16.822  0.3552 -0.3291 -0.1680
16707TIP3   OH271535   6.718   1.630   4.820 -0.0254 -0.0714 -0.1683
16707TIP3    H171536   6.668   1.661   4.896 -0.8046  0.4764 -0.8911
16707TIP3    H271537   6.682   1.543   4.802 -0.6577  0.2720 -0.6111
16708TIP3   OH271538   6.764   5.885   2.393 -0.1454 -0.1432  0.0725
16708TIP3    H171539   6.852   5.865   2.427 -0.2129  0.8811  0.8894
16708TIP3    H271540   6.757   5.980   2.401 -0.9578 -0.1156 -0.9273
16709TIP3   OH271541   5.367   5.918  14.799 -0.6438 -0.7789 -0.0187
16709TIP3    H171542   5.420   5.858  14.748 -0.0381  0.5435 -0.9742
16709TIP3    H271543   5.282   5.874  14.808  0.3091 -2.4941  0.7450
16710TIP3   OH271544   5.121   2.075   1.410 -0.1033  0.6010  0.1299
16710TIP3    H171545   5.179   2.106   1.341 -1.1632  2.1531 -0.0814
16710TIP3    H271546   5.177   2.074   1.488  0.3223  1.7010 -0.1477
16711TIP3   OH271547   2.547   1.842  13.667 -0.6000 -0.6825  0.0500
16711TIP3    H171548   2.573   1.926  13.629 -0.5409 -0.9007 -0.3921
16711TIP3    H271549   2.458   1.857  13.699 -0.7369 -0.5676 -0.3837
16712TIP3   OH271550   5.675   5.278  13.545 -0.1849  0.3297 -0.3206
16712TIP3    H171551   5.633   5.360  13.569 -1.7753 -0.9082  1.2389
16712TIP3    H271552   5.677   5.279  13.449  0.8241  2.6453 -0.2994
16713TIP3   OH271553   6.271   0.228   2.186 -0.2243 -0.1801  0.2959
16713TIP3    H171554   6.294   0.284   2.111  1.1456 -0.2165  0.6896
16713TIP3    H271555   6.350   0.224   2.239 -0.1907 -2.8213  0.0978
16714TIP3   OH271556   4.579   5.681  15.317  0.0602 -0.4674 -0.0527
16714TIP3    H171557   4.526   5.602  15.316  0.2482 -0.6098  0.8012
16714TIP3    H271558   4.670   5.649  15.314  0.1659 -0.3306  1.2689
16715TIP3   OH271559   0.689   0.881  16.968 -0.0177 -0.1739 -0.1561
16715TIP3    H171560   0.617   0.944  16.959  0.1824 -0.1678 -2.0519
16715TIP3    H271561   0.649   0.797  16.943 -0.1394 -0.7225  1.8119
16716TIP3   OH271562   2.869   2.651   1.621  0.4522 -0.1539  0.0332
16716TIP3    H171563   2.860   2.723   1.558  0.8876 -1.2867 -1.3674
16716TIP3    H271564   2.796   2.663   1.682 -0.3076  0.6758 -1.0050
16717TIP3   OH271565   5.524   1.230   2.470  0.6547  0.0844  0.1522
16717TIP3    H171566   5.443   1.190   2.439  0.0278  0.8542  0.8120
16717TIP3    H271567   5.593   1.185   2.419  0.0027 -2.0915  1.1229
16718TIP3   OH271568   2.621   3.171   2.741  0.0421  0.1421  0.3093
16718TIP3    H171569   2.562   3.104   2.708 -0.4649  1.6145 -1.8514
16718TIP3    H271570   2.701   3.123   2.765  0.1622 -1.0938 -2.4122
16719TIP3   OH271571   6.615   5.213  12.070 -0.1213 -0.1747  0.6994
16719TIP3    H171572   6.530   5.244  12.041 -0.3351 -1.8826 -0.6164
16719TIP3    H271573   6.605   5.199  12.164 -1.7602 -1.7278  0.3330
16720TIP3   OH271574   4.992   4.173   3.693 -0.1950  1.0773  0.4255
16720TIP3    H171575   4.948   4.208   3.616  1.6323  1.0930 -0.6517
16720TIP3    H271576   5.066   4.232   3.707  0.6608 -0.0975  0.9376
16721TIP3   OH271577   4.613   3.096   0.007  0.1061  0.4842 -0.6439
16721TIP3    H171578   4.640   3.107   0.098  0.3587  2.3652 -0.9182
16721TIP3    H271579   4.687   3.130  -0.044 -0.6362  0.8292 -1.5066
16722TIP3   OH271580   3.461   4.874   1.207 -0.2278 -0.1647 -0.1984
16722TIP3    H171581   3.542   4.883   1.257 -0.0566  1.5917 -0.7520
16722TIP3    H271582   3.442   4.780   1.208  0.5801 -0.3256  1.8758
16723TIP3   OH271583   1.305   3.519   5.607 -0.5009  0.1658  0.2316
16723TIP3    H171584   1.212   3.499   5.621  0.1808 -2.9883  0.6263
16723TIP3    H271585   1.339   3.534   5.695 -0.0637 -1.4521  0.3446
16724TIP3   OH271586   5.796   5.594   0.594 -0.0863 -0.3729 -0.7856
16724TIP3    H171587   5.868   5.554   0.642  0.7490  0.6341 -1.1749
16724TIP3    H271588   5.806   5.562   0.504 -0.5426 -0.7822 -0.6931
16725TIP3   OH271589   0.567   2.684  13.109  0.2388  0.1798  0.3895
16725TIP3    H171590   0.597   2.775  13.110 -1.2408  0.6744  1.5646
16725TIP3    H271591   0.577   2.655  13.199  0.9773 -0.9167 -0.0490
16726TIP3   OH271592   1.564   2.799  14.630  0.0957 -0.2853  0.4717
16726TIP3    H171593   1.586   2.746  14.553 -0.0730  0.1391  0.1257
16726TIP3    H271594   1.649   2.828  14.663  0.2718 -1.8534  1.4551
16727TIP3   OH271595   6.502   2.120  14.397  0.1896  0.5149 -0.2779
16727TIP3    H171596   6.439   2.192  14.402  2.3719  2.4718  0.0713
16727TIP3    H271597   6.479   2.063  14.469 -0.2120  2.0461  0.8338
16728TIP3   OH271598   3.278   1.966  12.661 -0.1802 -0.1454 -0.7387
16728TIP3    H171599   3.230   2.042  12.695 -1.3286 -0.7055 -1.0663
16728TIP3    H271600   3.223   1.891  12.684  0.7209 -0.8394 -0.8175
16729TIP3   OH271601   2.589   3.063  14.975  0.3340  0.0688  0.4392
16729TIP3    H171602   2.574   2.970  14.960  0.4403  0.3511 -1.5529
16729TIP3    H271603   2.518   3.090  15.034  0.3032 -1.2469  1.0252
16730TIP3   OH271604   3.287   4.732  11.143  0.3908  0.7512 -0.1009
16730TIP3    H171605   3.253   4.669  11.207 -0.5117  0.7098 -0.6202
16730TIP3    H271606   3.366   4.690  11.109  0.5243  0.4892  0.5189
16731TIP3   OH271607   2.790   0.908   1.708 -0.6580 -0.4317  0.5537
16731TIP3    H171608   2.716   0.969   1.716  0.0124  0.4460  0.1567
16731TIP3    H271609   2.827   0.927   1.622 -1.5754 -2.6945 -0.3785
16732TIP3   OH271610   6.682   2.826   0.475 -0.1850 -0.0940 -0.1784
16732TIP3    H171611   6.690   2.847   0.568 -0.4964  0.5264 -0.2931
16732TIP3    H271612   6.652   2.907   0.434 -2.8370 -1.1362 -0.3981
16733TIP3   OH271613   2.656   2.082   0.984 -0.1948 -0.5742  0.0361
16733TIP3    H171614   2.690   1.998   1.014  2.9344  0.3864 -0.6928
16733TIP3    H271615   2.687   2.145   1.049  0.7680  0.5464 -1.4765
16734TIP3   OH271616   5.267   2.459   1.595  0.3226 -0.4710 -0.4326
16734TIP3    H171617   5.176   2.438   1.616 -0.1221  1.0892 -0.7557
16734TIP3    H271618   5.306   2.375   1.572 -1.5503 -0.8905 -2.2241
16735TIP3   OH271619   1.762   4.471   4.107  0.0961 -0.1174  0.1439
16735TIP3    H171620   1.710   4.463   4.027  0.5681  0.4681 -0.2273
16735TIP3    H271621   1.826   4.540   4.088  0.5797 -0.3631  0.8282
16736TIP3   OH271622   4.194   1.683   5.031  0.6505  0.6502 -0.1029
16736TIP3    H171623   4.148   1.749   5.084  0.7764  0.2033  0.5640
16736TIP3    H271624   4.171   1.705   4.941 -1.9923 -0.4129  0.2969
16737TIP3   OH271625   2.934   0.398   2.782 -0.5728 -0.5214 -0.4649
16737TIP3    H171626   3.007   0.420   2.839 -0.2402 -2.6640 -0.0301
16737TIP3    H271627   2.958   0.314   2.744 -2.1878 -0.5713 -1.4092
16738TIP3   OH271628   5.791   2.467   0.727  0.0187 -0.0458  0.4901
16738TIP3    H171629   5.827   2.379   0.734 -0.3311 -0.2162  0.1720
16738TIP3    H271630   5.836   2.517   0.796  0.5031 -0.3722  0.4147
16739TIP3   OH271631   6.693   2.711  12.312  0.7005 -0.6168  0.3329
16739TIP3    H171632   6.683   2.701  12.217  1.4088  0.2556  0.1575
16739TIP3    H271633   6.750   2.639  12.337 -1.0021 -1.9725  0.3946
16740TIP3   OH271634   5.635   1.631   5.361  0.1864  0.9419  0.0622
16740TIP3    H171635   5.622   1.642   5.455 -1.1585 -1.8356  0.2274
16740TIP3    H271636   5.700   1.561   5.354 -1.7394 -0.7508 -1.0920
16741TIP3   OH271637   4.125   3.769  15.252  0.1907 -0.1688  0.3653
16741TIP3    H171638   4.118   3.839  15.186  0.6755 -0.8261 -0.3922
16741TIP3    H271639   4.212   3.781  15.290 -0.2178  0.4156  1.1260
16742TIP3   OH271640   0.568   6.218  16.576  0.4686  0.2073  0.0634
16742TIP3    H171641   0.632   6.267  16.524  0.5716  0.5989  0.5523
16742TIP3    H271642   0.517   6.169  16.512  1.8371 -0.7953 -0.2834
16743TIP3   OH271643   5.981   1.586   3.291 -0.2986 -0.1105 -0.0490
16743TIP3    H171644   5.978   1.623   3.380  0.7812 -0.6081  0.1952
16743TIP3    H271645   6.029   1.504   3.300  1.1010  0.5467 -1.3534
16744TIP3   OH271646   2.025   3.685   2.583  0.3030  0.1848 -0.1337
16744TIP3    H171647   1.956   3.692   2.517  1.2416 -0.4578 -1.2238
16744TIP3    H271648   2.104   3.663   2.532  1.2204  0.5173  1.1212
16745TIP3   OH271649   4.719   6.088   1.899 -0.6243 -0.2658 -0.5577
16745TIP3    H171650   4.760   6.152   1.841 -0.5054  0.2954  0.1438
16745TIP3    H271651   4.785   6.018   1.908  0.0552  0.4784  0.3067
16746TIP3   OH271652   4.996   1.435  12.681  0.2996 -0.5056  0.1913
16746TIP3    H171653   4.908   1.407  12.657  0.6389  0.2088 -1.9692
16746TIP3    H271654   5.032   1.475  12.601  1.9027  0.8956  1.5682
16747TIP3   OH271655   3.583   0.223  14.892  0.1410 -0.1346 -0.5870
16747TIP3    H171656   3.554   0.132  14.895 -0.4051  0.0379 -0.7446
16747TIP3    H271657   3.674   0.219  14.924 -0.3800 -0.5194  0.8932
16748TIP3   OH271658   3.091   3.664   1.146 -0.1699  0.0174  0.4350
16748TIP3    H171659   3.057   3.752   1.127  1.9046  0.7022 -0.2411
16748TIP3    H271660   3.020   3.605   1.121 -1.0208  1.4125 -0.5484
16749TIP3   OH271661   6.378   2.822  13.213  0.1702 -0.2202  0.2750
16749TIP3    H171662   6.367   2.901  13.160  1.9499 -1.5111 -2.1505
16749TIP3    H271663   6.404   2.853  13.299 -0.2286  1.8564 -0.3290
16750TIP3   OH271664   5.167   0.991  15.356  1.0154  0.0534 -0.0729
16750TIP3    H171665   5.155   0.970  15.263  0.8249 -0.0726 -0.0209
16750TIP3    H271666   5.258   1.020  15.363  0.8444  0.6797 -0.4180
16751TIP3   OH271667   5.435   2.305  15.164 -0.0817 -0.0511 -0.1547
16751TIP3    H171668   5.360   2.353  15.198  0.8131  1.4705 -0.2751
16751TIP3    H271669   5.511   2.359  15.187  0.7750 -0.4052 -2.0575
16752TIP3   OH271670   3.899   3.518   1.495 -0.0303  0.0053  1.1464
16752TIP3    H171671   3.912   3.611   1.514  2.1365  0.2987 -1.4387
16752TIP3    H271672   3.977   3.475   1.532  1.0461 -0.2032 -1.2691
16753TIP3   OH271673   6.149   2.194  15.665 -0.4277  0.1638  0.8011
16753TIP3    H171674   6.201   2.117  15.690  0.3702  0.0333 -1.1301
16753TIP3    H271675   6.204   2.240  15.602 -0.8848  2.3683  1.9646
16754TIP3   OH271676   3.316   6.144   1.443  0.0378  0.3149 -0.4020
16754TIP3    H171677   3.344   6.156   1.533  1.6109 -0.9058 -0.7046
16754TIP3    H271678   3.261   6.221   1.424 -1.0040  0.1401  1.8341
16755TIP3   OH271679   5.805   1.598  13.393  0.1414  0.0743 -0.1695
16755TIP3    H171680   5.718   1.557  13.396 -0.0974  0.5396 -0.6052
16755TIP3    H271681   5.858   1.536  13.343  0.3325 -0.6921  0.9511
16756TIP3   OH271682   0.980   1.420  12.841 -1.0324 -0.7083  0.6893
16756TIP3    H171683   1.030   1.498  12.819 -2.1399 -0.1032  0.2855
16756TIP3    H271684   0.936   1.395  12.759 -1.4362 -1.1955  1.0441
16757TIP3   OH271685   3.358   3.884   5.870  0.3405  0.2295  0.1945
16757TIP3    H171686   3.446   3.849   5.884  0.7332  0.1742 -2.1767
16757TIP3    H271687   3.372   3.974   5.841 -0.4158  0.4476  0.4906
16758TIP3   OH271688   1.866   4.650  15.465 -0.2636  0.1411  0.1992
16758TIP3    H171689   1.865   4.745  15.456  2.1643  0.1070 -0.9260
16758TIP3    H271690   1.827   4.618  15.383 -1.0329  0.1626  0.5546
16759TIP3   OH271691   4.728   3.233  13.777 -0.5592 -0.2467 -0.0258
16759TIP3    H171692   4.652   3.191  13.736 -0.7135 -0.9780  0.9869
16759TIP3    H271693   4.690   3.303  13.830 -0.3031  1.1778 -1.6998
16760TIP3   OH271694   6.780   2.820  10.692 -0.4943 -0.4631  0.2717
16760TIP3    H171695   6.874   2.816  10.675 -0.3913 -1.9578  1.1548
16760TIP3    H271696   6.739   2.806  10.607  0.0757 -0.1682 -0.0552
16761TIP3   OH271697   6.522   5.087   4.503  0.0955 -0.0933  0.5760
16761TIP3    H171698   6.581   5.065   4.431 -0.9340 -1.2960  0.0816
16761TIP3    H271699   6.557   5.039   4.578  1.1109  1.0826  0.8801
16762TIP3   OH271700   6.422   0.104  15.458  0.1199 -0.4152 -0.2782
16762TIP3    H171701   6.488   0.108  15.389 -0.2700  0.9880 -0.5931
16762TIP3    H271702   6.374   0.023  15.440 -0.0882  0.0258 -1.7762
16763TIP3   OH271703   6.714   2.857   3.107 -0.5013  0.3183 -0.3977
16763TIP3    H171704   6.742   2.913   3.179  0.6204 -0.3494 -0.3087
16763TIP3    H271705   6.780   2.869   3.039 -0.1850 -0.9704 -0.3406
16764TIP3   OH271706   3.592   1.454  11.524 -0.3417 -0.0181  0.0641
16764TIP3    H171707   3.658   1.421  11.463  0.3084  0.4612  0.5076
16764TIP3    H271708   3.628   1.434  11.611 -1.3823 -0.9420  0.3001
16765TIP3   OH271709   6.688   0.493  12.912 -0.0172 -0.2272 -0.0755
16765TIP3    H171710   6.733   0.554  12.970 -0.5960 -0.8000  0.9693
16765TIP3    H271711   6.752   0.475  12.843  1.0081 -0.3012  0.8829
16766TIP3   OH271712   1.640   4.089   1.036 -0.0611 -0.4096  0.0046
16766TIP3    H171713   1.672   4.082   0.945  2.5704 -1.4954  0.9589
16766TIP3    H271714   1.644   4.000   1.070 -1.4183 -0.0636  1.0717
16767TIP3   OH271715   5.097   1.407   3.997 -0.3661  0.2293  0.0895
16767TIP3    H171716   5.155   1.340   4.033 -1.5234 -0.0887  1.4160
16767TIP3    H271717   5.130   1.490   4.033 -1.6693 -0.1091  2.1955
16768TIP3   OH271718   4.532   6.568  12.833 -0.1236  0.2832  0.6808
16768TIP3    H171719   4.454   6.586  12.780  0.2438 -2.7808 -0.9924
16768TIP3    H271720   4.589   6.644  12.819 -1.5702  1.2116 -0.3802
16769TIP3   OH271721   4.840   2.684   2.024 -0.2564  0.1340 -0.5384
16769TIP3    H171722   4.802   2.759   2.069  0.9931 -0.9111  2.4682
16769TIP3    H271723   4.776   2.614   2.037  0.4232 -0.3521  0.2967
16770TIP3   OH271724   2.668   2.535  15.013 -0.2073  0.5634 -0.0556
16770TIP3    H171725   2.749   2.582  14.998 -0.8508  2.4619  2.2252
16770TIP3    H271726   2.695   2.444  15.027  1.4088  1.0003 -0.3124
16771TIP3   OH271727   5.202   6.353  11.520  0.4012 -0.6038  0.0779
16771TIP3    H171728   5.227   6.445  11.508 -1.2473 -0.3375 -1.5542
16771TIP3    H271729   5.270   6.303  11.474  1.0089 -0.2018  0.5209
16772TIP3   OH271730   3.470   0.240  11.074 -0.4091 -0.2746 -0.5335
16772TIP3    H171731   3.560   0.215  11.053 -0.0818  0.0711  0.4371
16772TIP3    H271732   3.416   0.183  11.019  0.3473 -2.3508  0.7805
16773TIP3   OH271733   3.010   2.402   2.668  0.0683  0.8220  0.2551
16773TIP3    H171734   2.918   2.407   2.642 -0.6525 -0.9174  2.2765
16773TIP3    H271735   3.044   2.328   2.619  0.0260  0.6383  0.5005
16774TIP3   OH271736   5.535   0.519  15.192  0.4381  0.9060 -0.4616
16774TIP3    H171737   5.614   0.552  15.149  0.1036  0.3981 -1.4736
16774TIP3    H271738   5.469   0.519  15.123  0.4276 -1.9213 -0.5127
16775TIP3   OH271739   2.456   6.349   1.760 -0.3642 -0.5538  0.8719
16775TIP3    H171740   2.473   6.291   1.686  0.2597 -1.0002  1.3667
16775TIP3    H271741   2.373   6.392   1.738 -1.0301 -1.9179  0.6968
16776TIP3   OH271742   1.172   3.674  12.965  0.5625 -1.0065  0.8015
16776TIP3    H171743   1.254   3.627  12.947  1.2358  0.1290  0.8122
16776TIP3    H271744   1.113   3.648  12.894  1.0076 -1.6847  0.6801
16777TIP3   OH271745   2.335   2.048   1.385 -0.6519  0.5929 -0.3245
16777TIP3    H171746   2.412   2.106   1.385  0.0197 -0.1940  2.3294
16777TIP3    H271747   2.370   1.961   1.366 -1.3265  0.6725 -1.9906
16778TIP3   OH271748   6.554   3.665  12.921 -0.0600 -0.5538  0.1599
16778TIP3    H171749   6.538   3.678  13.015  0.9501 -1.0418  0.4032
16778TIP3    H271750   6.649   3.659  12.913 -0.0132  1.3878 -1.1501
16779TIP3   OH271751   6.136   1.602   5.658 -0.0022 -0.2255 -0.2247
16779TIP3    H171752   6.084   1.682   5.664  0.3544 -0.1367  1.9603
16779TIP3    H271753   6.211   1.626   5.603 -1.9590 -0.2211 -2.9630
16780TIP3   OH271754   5.088   2.829   6.203  0.0809 -0.7324  0.6914
16780TIP3    H171755   5.080   2.922   6.224  0.8132 -0.7221  0.9237
16780TIP3    H271756   5.148   2.794   6.268  1.9873 -0.7980 -1.0684
16781TIP3   OH271757   1.002   3.006   4.122 -0.1177  0.1535 -0.1881
16781TIP3    H171758   0.986   3.074   4.187  0.2445 -0.2298  0.3015
16781TIP3    H271759   0.915   2.969   4.104 -0.0472 -0.6406  1.0608
16782TIP3   OH271760   4.543   1.240  12.412  0.0104  0.5872  0.2308
16782TIP3    H171761   4.513   1.212  12.498 -2.9822  2.7424 -0.0126
16782TIP3    H271762   4.636   1.256  12.423 -0.2037  0.2414  2.9287
16783TIP3   OH271763   5.061   1.664   1.559 -0.6487  0.1429 -0.4088
16783TIP3    H171764   5.121   1.703   1.497  0.0987  0.2223  0.3537
16783TIP3    H271765   5.057   1.726   1.632 -1.6344  0.1300 -0.4406
16784TIP3   OH271766   3.929   5.046   6.232  0.5582 -0.0355 -0.1508
16784TIP3    H171767   3.887   5.002   6.306  1.0456  1.5810  1.1343
16784TIP3    H271768   3.979   4.977   6.188 -0.2982 -1.1683  0.6231
16785TIP3   OH271769   2.517   2.231  16.297 -0.1218 -0.1257  0.4142
16785TIP3    H171770   2.546   2.312  16.254  2.8377 -0.5114  1.5618
16785TIP3    H271771   2.596   2.198  16.341 -1.3119 -3.5942  0.0424
16786TIP3   OH271772   0.180   0.078  12.912 -0.0253 -0.2490  0.3111
16786TIP3    H171773   0.120   0.107  12.844  0.9763 -0.9057 -0.8679
16786TIP3    H271774   0.257   0.134  12.903  0.0597 -0.2526  0.9788
16787TIP3   OH271775   4.574   1.830  16.232  0.4062 -0.0480 -0.3660
16787TIP3    H171776   4.531   1.913  16.253 -0.0408 -0.0335 -1.2969
16787TIP3    H271777   4.658   1.834  16.277 -0.2337  0.2724  0.8174
16788TIP3   OH271778   3.333   0.209  15.746  0.4901  0.2647  0.8382
16788TIP3    H171779   3.307   0.158  15.670  2.3925 -2.2248  1.7617
16788TIP3    H271780   3.283   0.290  15.740 -1.7933 -1.2395 -1.3118
16789TIP3   OH271781   2.532   1.537  16.630 -0.2544  0.1754 -0.1652
16789TIP3    H171782   2.462   1.534  16.564 -1.4091  1.6906  0.9720
16789TIP3    H271783   2.526   1.452  16.674 -1.3549  0.2846 -0.0938
16790TIP3   OH271784   1.342   1.222   6.099 -0.5662 -0.0329  0.0503
16790TIP3    H171785   1.277   1.160   6.133 -1.5421  0.8178 -0.2341
16790TIP3    H271786   1.317   1.236   6.008 -0.8974  1.4467  0.3505
16791TIP3   OH271787   3.112   4.593   3.687 -0.2730 -0.1555  0.1667
16791TIP3    H171788   3.145   4.522   3.743 -1.1043 -0.1382  0.6881
16791TIP3    H271789   3.036   4.628   3.735 -0.0139  0.9327 -0.1911
16792TIP3   OH271790   5.830   3.191  15.088 -0.4558 -0.2232  0.0466
16792TIP3    H171791   5.916   3.227  15.067 -0.9831  0.5401 -0.8236
16792TIP3    H271792   5.848   3.102  15.120  0.6466 -0.0899 -0.2016
16793TIP3   OH271793   1.990   6.559  16.494 -0.3729 -0.2150 -0.0849
16793TIP3    H171794   2.040   6.612  16.432  1.6961 -1.1261  0.7350
16793TIP3    H271795   1.964   6.621  16.563 -1.8172  0.5946 -1.3318
16794TIP3   OH271796   2.509   2.403   3.563  0.5017 -0.6840 -0.9467
16794TIP3    H171797   2.558   2.484   3.573 -0.7386 -0.2849  2.4819
16794TIP3    H271798   2.417   2.428   3.572  0.1626 -2.5899  1.5410
16795TIP3   OH271799   5.306   0.331  10.417  0.8843  0.2096  0.3677
16795TIP3    H171800   5.313   0.243  10.454 -0.2565  0.1595  0.4949
16795TIP3    H271801   5.369   0.383  10.467  1.1255 -0.3986  0.7073
16796TIP3   OH271802   2.918   0.243   3.891 -0.7819 -0.0815  0.5594
16796TIP3    H171803   2.920   0.254   3.796  0.1948 -0.1686  0.5585
16796TIP3    H271804   2.831   0.209   3.910 -0.3486 -1.9045 -0.5216
16797TIP3   OH271805   4.827   3.356  14.638  0.3572  0.1927 -0.2319
16797TIP3    H171806   4.826   3.306  14.720  2.6544  0.4334 -0.0129
16797TIP3    H271807   4.793   3.442  14.662  0.9615  0.2404  0.4795
16798TIP3   OH271808   5.489   6.645  10.913 -0.5480 -0.5439 -0.1715
16798TIP3    H171809   5.424   6.692  10.862 -0.8774 -0.2856  0.4781
16798TIP3    H271810   5.523   6.579  10.853  1.1812  1.6233 -1.6639
16799TIP3   OH271811   2.936   0.638   4.477 -0.2148 -0.3164  0.7556
16799TIP3    H171812   2.853   0.671   4.443  0.2817 -0.2234 -0.3873
16799TIP3    H271813   3.000   0.705   4.453  0.5403 -1.3776 -0.2717
16800TIP3   OH271814   4.096   2.785  11.411 -0.5567 -0.2397 -0.0688
16800TIP3    H171815   4.060   2.861  11.457 -0.0881 -0.2000  0.2328
16800TIP3    H271816   4.020   2.730  11.392 -0.6855 -0.5142  1.2321
16801TIP3   OH271817   1.056   5.707   1.204  0.0041  0.0896  0.2050
16801TIP3    H171818   1.094   5.671   1.284  1.3414 -0.6557 -0.7155
16801TIP3    H271819   0.994   5.773   1.233  0.0185 -0.5956  1.8607
16802TIP3   OH271820   4.967   5.636   2.525  0.7901  0.0691 -0.3788
16802TIP3    H171821   4.951   5.703   2.591 -0.4932  2.3923 -2.9505
16802TIP3    H271822   4.901   5.569   2.544  1.3087  0.0425  1.4895
16803TIP3   OH271823   4.692   4.913   2.063  0.0841  0.0221  0.2134
16803TIP3    H171824   4.730   4.906   2.151  0.9167 -1.2999 -0.2343
16803TIP3    H271825   4.753   4.970   2.016 -0.1581  0.4170  0.3705
16804TIP3   OH271826   1.736   0.991   5.965 -0.3906  0.1523  0.1004
16804TIP3    H171827   1.763   1.010   6.055 -1.6006 -1.9970  0.9660
16804TIP3    H271828   1.672   1.059   5.944 -0.7273  0.1838  1.1788
16805TIP3   OH271829   6.255   4.378  13.060 -0.0956  0.3973 -0.0351
16805TIP3    H171830   6.239   4.315  13.130 -0.0419  0.1289 -0.2645
16805TIP3    H271831   6.192   4.354  12.991  0.3252  0.2274 -0.3600
16806TIP3   OH271832   0.269   1.489   1.795 -0.1639  0.3217  0.0742
16806TIP3    H171833   0.177   1.490   1.769 -0.4019  2.3657  0.8644
16806TIP3    H271834   0.312   1.553   1.738  1.0394 -1.5038 -1.1271
16807TIP3   OH271835   6.693   2.484   5.175 -0.4190  0.3791 -0.5108
16807TIP3    H171836   6.762   2.424   5.145  0.9789  2.3321 -1.2762
16807TIP3    H271837   6.649   2.436   5.245  0.5246 -1.6365 -1.2516
16808TIP3   OH271838   0.271   5.656   4.755  0.2503 -0.6891  0.4448
16808TIP3    H171839   0.276   5.717   4.829 -2.4157 -0.7935  0.7281
16808TIP3    H271840   0.346   5.597   4.768  1.1052  0.6671  1.8075
16809TIP3   OH271841   2.015   6.353   2.526  0.2264  0.1003  0.2225
16809TIP3    H171842   2.106   6.325   2.525  0.8263  1.9171  1.4562
16809TIP3    H271843   1.981   6.319   2.609 -0.4243 -1.1316 -0.5282
16810TIP3   OH271844   5.057   5.025   2.511  0.2188  0.1035 -0.0092
16810TIP3    H171845   5.103   5.101   2.545  0.2166 -0.9867  2.5235
16810TIP3    H271846   5.067   4.958   2.578 -1.2131 -1.6144 -1.4275
16811TIP3   OH271847   1.486   3.446  10.642  0.0546 -0.2967 -0.2228
16811TIP3    H171848   1.423   3.505  10.600 -3.1419 -2.5816  1.1324
16811TIP3    H271849   1.525   3.397  10.569 -0.1170  0.7981 -1.0603
16812TIP3   OH271850   0.753   3.155  14.764  0.2665  0.1085  0.1069
16812TIP3    H171851   0.693   3.209  14.714  1.7268 -0.3994 -2.3307
16812TIP3    H271852   0.697   3.103  14.822 -1.5452  0.4761 -1.2617
16813TIP3   OH271853   5.236   5.503   1.191  0.2611  0.0655  0.3758
16813TIP3    H171854   5.283   5.457   1.260  0.1262 -0.5861  0.0326
16813TIP3    H271855   5.275   5.591   1.190  0.8460 -0.1900  0.7025
16814TIP3   OH271856   0.694   4.868   5.551 -0.2765  0.1032  0.0218
16814TIP3    H171857   0.701   4.879   5.646 -0.0005  0.1901 -0.0085
16814TIP3    H271858   0.608   4.906   5.529 -1.5823 -2.3942  0.5958
16815TIP3   OH271859   6.487   5.675   5.599  0.4915  0.1944 -0.0556
16815TIP3    H171860   6.483   5.739   5.670 -1.5521 -0.3030  0.3292
16815TIP3    H271861   6.441   5.598   5.634 -0.4559 -0.0958 -1.8661
16816TIP3   OH271862   3.348   6.039   3.633  0.2551 -0.3703  0.0930
16816TIP3    H171863   3.271   6.054   3.689  0.4693  0.8605  0.0836
16816TIP3    H271864   3.355   6.119   3.581  1.9222 -0.2108  0.5489
16817TIP3   OH271865   3.229   5.919   2.917 -0.1641  0.1882 -0.5601
16817TIP3    H171866   3.302   5.911   2.856 -1.0274  2.3084 -1.9012
16817TIP3    H271867   3.151   5.920   2.861 -1.3204 -2.6991  0.8865
16818TIP3   OH271868   1.923   1.582   0.701  0.0531 -0.0469  0.3227
16818TIP3    H171869   1.894   1.516   0.763  0.2809  1.4385  2.0252
16818TIP3    H271870   1.885   1.555   0.617  0.8682 -2.8137  0.8023
16819TIP3   OH271871   3.042   3.417   5.769  0.2498 -0.2461  0.1787
16819TIP3    H171872   3.029   3.358   5.694  0.5657  1.0305 -0.8976
16819TIP3    H271873   3.134   3.444   5.762 -0.1132  1.0329  0.1524
16820TIP3   OH271874   0.155   4.163   5.364  0.0945  0.6748  0.0741
16820TIP3    H171875   0.217   4.099   5.398 -0.5808  0.7809  1.5429
16820TIP3    H271876   0.206   4.216   5.302  0.9625 -0.4749 -0.1953
16821TIP3   OH271877   4.766   3.570  14.815 -0.8205  0.2040 -0.1217
16821TIP3    H171878   4.787   3.545  14.905 -1.5328  0.2089  0.0511
16821TIP3    H271879   4.696   3.634  14.824  1.8712  3.3169 -0.4932
16822TIP3   OH271880   4.480   0.731  13.082  0.2768  0.1997 -0.0465
16822TIP3    H171881   4.411   0.676  13.117  0.4738 -0.1030 -0.1361
16822TIP3    H271882   4.441   0.819  13.078 -0.3860 -0.1369 -0.9295
16823TIP3   OH271883   0.916   0.140  13.182 -0.3449 -0.3204  0.2406
16823TIP3    H171884   1.003   0.142  13.142 -0.5409  0.3148 -0.1710
16823TIP3    H271885   0.931   0.163  13.274  0.0106 -0.9545  0.3357
16824TIP3   OH271886   0.965   0.743  14.355  0.1029  0.4680 -0.0186
16824TIP3    H171887   1.041   0.757  14.298  1.5179  2.3444  2.2644
16824TIP3    H271888   0.898   0.802  14.322  0.2798  0.1956 -0.8677
16825TIP3   OH271889   4.041   6.384  16.232 -0.3583  0.1522  0.8150
16825TIP3    H171890   4.005   6.352  16.149  1.5992 -1.2988  0.4934
16825TIP3    H271891   4.060   6.305  16.282  0.4244  0.9543  1.8164
16826TIP3   OH271892   2.294   0.890  13.105  0.3050  0.2194  0.4618
16826TIP3    H171893   2.294   0.894  13.201  0.1554  0.2556  0.4604
16826TIP3    H271894   2.323   0.800  13.086  2.2024  0.7911  0.5123
16827TIP3   OH271895   4.276   5.850  16.712  0.4465 -0.0608  0.0271
16827TIP3    H171896   4.237   5.804  16.638 -0.7902  1.2646 -0.1512
16827TIP3    H271897   4.365   5.869  16.684  0.2290 -0.2532 -0.8149
16828TIP3   OH271898   4.106   0.026   4.822 -0.4683  0.1239  0.1681
16828TIP3    H171899   4.133   0.008   4.732 -1.5099 -0.8557  0.0380
16828TIP3    H271900   4.187   0.052   4.866  0.6388 -2.3139 -0.3124
16829TIP3   OH271901   3.722   6.183  11.994 -0.1039  0.0874 -0.7043
16829TIP3    H171902   3.741   6.208  12.084 -1.1225  0.6052 -0.6291
16829TIP3    H271903   3.781   6.110  11.977 -0.6877 -0.7659  0.7662
16830TIP3   OH271904   2.368   0.259   0.312 -0.2423 -0.1519 -0.1105
16830TIP3    H171905   2.389   0.329   0.374  0.0611  0.0489 -0.4430
16830TIP3    H271906   2.442   0.258   0.251 -0.5940 -0.2753 -0.5340
16831TIP3   OH271907   0.418   3.783   0.669 -0.0684  0.0111  0.1121
16831TIP3    H171908   0.491   3.721   0.669 -0.2956 -0.2929  2.3070
16831TIP3    H271909   0.441   3.848   0.603  0.8080 -1.6815 -1.2753
16832TIP3   OH271910   1.688   4.768   2.976  0.3405  0.2876  0.0687
16832TIP3    H171911   1.666   4.778   3.068  0.3273  0.3784  0.0557
16832TIP3    H271912   1.621   4.819   2.929  0.5663  0.5503  0.0296
16833TIP3   OH271913   5.144   4.348  14.120 -0.4025  0.0040 -0.4198
16833TIP3    H171914   5.166   4.304  14.202 -0.2353  0.4304 -0.2349
16833TIP3    H271915   5.095   4.283  14.070  0.7039 -0.7362 -0.5584
16834TIP3   OH271916   6.538   4.045   0.644  0.2762 -0.0017 -0.2993
16834TIP3    H171917   6.559   4.079   0.731  3.6440  1.0070 -1.4327
16834TIP3    H271918   6.521   4.122   0.591  0.0198 -0.5077 -0.9618
16835TIP3   OH271919   3.400   5.993  11.667  0.3053 -0.1300  0.2129
16835TIP3    H171920   3.471   6.002  11.730  0.8560 -2.3522 -0.0297
16835TIP3    H271921   3.392   5.898  11.654 -0.7333  0.2275 -1.9862
16836TIP3   OH271922   5.105   3.542   4.285  0.3053  0.3377 -0.1165
16836TIP3    H171923   5.117   3.511   4.374  2.7657 -0.2980 -0.6371
16836TIP3    H271924   5.194   3.551   4.250 -0.5927  1.1179 -2.3188
16837TIP3   OH271925   4.307   1.648  14.761 -0.8131  0.0698  0.1396
16837TIP3    H171926   4.322   1.566  14.714  1.3104 -0.7905  2.1961
16837TIP3    H271927   4.233   1.630  14.818 -1.4520  0.1429 -0.6630
16838TIP3   OH271928   2.517   5.188   5.188  0.0102  0.2509 -0.3812
16838TIP3    H171929   2.484   5.105   5.152 -1.2734  0.1616  0.9570
16838TIP3    H271930   2.445   5.222   5.241  1.6261  0.6561  1.6289
16839TIP3   OH271931   3.130   1.723   5.359 -0.0689 -0.0730 -0.0419
16839TIP3    H171932   3.105   1.812   5.385 -0.4520 -0.3524  0.5648
16839TIP3    H271933   3.054   1.689   5.312 -0.4757 -0.5780  0.9593
16840TIP3   OH271934   2.844   5.914   5.759 -0.2473 -0.2055  0.2753
16840TIP3    H171935   2.885   5.867   5.686 -0.0007 -1.1567  1.0257
16840TIP3    H271936   2.765   5.864   5.779 -0.7727  0.5448  0.0963
16841TIP3   OH271937   0.634   2.728   2.145 -0.1202  0.0891 -0.8288
16841TIP3    H171938   0.558   2.670   2.150 -0.1002  0.1384  0.2234
16841TIP3    H271939   0.617   2.796   2.210  0.7354  0.2040 -0.7126
16842TIP3   OH271940   0.843   6.330  16.755  0.3283 -0.0808  0.1080
16842TIP3    H171941   0.823   6.237  16.744  2.4351 -0.4978 -0.5686
16842TIP3    H271942   0.882   6.335  16.842  0.0146  0.2087  0.2328
16843TIP3   OH271943   5.690   4.065   0.494  0.3528  0.1146 -0.1972
16843TIP3    H171944   5.738   3.989   0.527  1.2453  0.6702 -0.2111
16843TIP3    H271945   5.715   4.070   0.401 -0.8406 -0.4390 -0.5586
16844TIP3   OH271946   1.800   2.310  15.132 -0.0464 -0.0700 -0.0899
16844TIP3    H171947   1.866   2.247  15.102  1.4111  1.5886 -0.4981
16844TIP3    H271948   1.719   2.283  15.089  1.2496  0.2003 -2.8430
16845TIP3   OH271949   3.184   4.953   5.450 -0.4292  0.1673  0.2069
16845TIP3    H171950   3.204   4.978   5.541 -2.1978  0.2807  0.5770
16845TIP3    H271951   3.247   4.883   5.431  0.8310  1.0374  1.0647
16846TIP3   OH271952   5.341   4.725   5.351 -0.0428 -0.2653  0.3178
16846TIP3    H171953   5.253   4.740   5.316  0.1042 -1.9816 -0.8775
16846TIP3    H271954   5.334   4.644   5.400  0.2699  1.0137  2.5149
16847TIP3   OH271955   2.599   0.040   1.476 -0.1035 -0.0543  0.3044
16847TIP3    H171956   2.670   0.103   1.490 -0.2410 -0.3331  2.3866
16847TIP3    H271957   2.628  -0.040   1.520 -1.0777 -0.6267 -0.0692
16848TIP3   OH271958   3.162   4.282  15.141 -0.2026 -0.5414  0.4596
16848TIP3    H171959   3.140   4.368  15.103  3.0462 -0.0216 -0.4225
16848TIP3    H271960   3.145   4.292  15.235 -0.1945  0.9686  0.3132
16849TIP3   OH271961   3.325   2.592  14.660 -0.3813  0.3079 -0.3061
16849TIP3    H171962   3.372   2.643  14.726  0.5759 -0.2937 -0.5081
16849TIP3    H271963   3.241   2.571  14.700  0.6023 -0.9532  1.1388
16850TIP3   OH271964   4.051   6.579   5.611  0.4158 -0.0790  0.0712
16850TIP3    H171965   4.078   6.619   5.694 -1.0741 -0.1560  0.6222
16850TIP3    H271966   3.986   6.640   5.576  0.6968 -0.2848 -0.8121
16851TIP3   OH271967   6.179   6.367   4.416  0.0686 -0.3412 -0.0086
16851TIP3    H171968   6.231   6.425   4.471 -0.1113  1.1217 -1.3744
16851TIP3    H271969   6.240   6.299   4.388  0.5030 -0.3049  0.8171
16852TIP3   OH271970   3.728   4.653   5.404  0.1662  0.2441 -0.7908
16852TIP3    H171971   3.728   4.721   5.471 -2.7022 -0.7439  0.3121
16852TIP3    H271972   3.684   4.692   5.329 -0.2379  0.0661 -0.6492
16853TIP3   OH271973   0.397   1.390   3.417  0.2009  0.7994  0.0304
16853TIP3    H171974   0.448   1.340   3.479  0.8879  2.2794  0.6691
16853TIP3    H271975   0.385   1.476   3.458 -0.5311  1.3332 -1.2522
16854TIP3   OH271976   0.677   4.266  13.041 -0.7162 -0.2785  1.0808
16854TIP3    H171977   0.581   4.266  13.046 -0.8584 -2.1275 -0.8865
16854TIP3    H271978   0.698   4.314  12.961  0.0509  0.6719  1.8375
16855TIP3   OH271979   3.585   0.937   1.835  0.1959  0.9153  0.1778
16855TIP3    H171980   3.573   0.889   1.917 -0.4435 -2.3701 -1.7324
16855TIP3    H271981   3.526   1.013   1.843 -1.0749 -0.2199  2.0905
16856TIP3   OH271982   3.987   2.595  12.726 -0.3372  0.2611 -0.1122
16856TIP3    H171983   4.011   2.642  12.645 -0.9720  0.7565 -0.0151
16856TIP3    H271984   3.984   2.503  12.700  2.2412  0.0995 -0.0020
16857TIP3   OH271985   5.024   3.222  15.551  0.2171 -0.0546  0.4610
16857TIP3    H171986   5.000   3.144  15.502  1.8913  1.1515 -2.4180
16857TIP3    H271987   5.116   3.210  15.573  0.9608  1.7997 -1.4684
16858TIP3   OH271988   5.822   3.581  12.872 -0.4109  0.5097  0.1614
16858TIP3    H171989   5.804   3.551  12.783  0.0617  0.6090  0.0309
16858TIP3    H271990   5.736   3.600  12.909 -0.6727 -0.5132  0.0734
16859TIP3   OH271991   6.168   3.918  15.676  0.3428  0.3957 -0.0127
16859TIP3    H171992   6.159   3.986  15.743 -0.4063 -2.4189  2.8876
16859TIP3    H271993   6.080   3.906  15.641  0.5001  1.0053 -0.6183
16860TIP3   OH271994   0.028   4.274  14.486  0.0111  0.9055 -0.1516
16860TIP3    H171995  -0.020   4.356  14.489  0.3881  1.1383 -0.3465
16860TIP3    H271996   0.118   4.298  14.508  0.3228  0.7090 -1.1617
16861TIP3   OH271997   2.379   4.813   2.426 -0.1582  0.1105  0.5850
16861TIP3    H171998   2.321   4.882   2.458  1.0035  0.2819  2.4014
16861TIP3    H271999   2.467   4.845   2.445  0.4518 -1.0962 -0.1769
16862TIP3   OH272000   1.780   6.007  12.378  0.6164  0.6977 -0.4678
16862TIP3    H172001   1.834   6.022  12.301  0.9494 -1.1662 -0.6275
16862TIP3    H272002   1.695   6.045  12.356  1.0023  1.0494 -1.3584
16863TIP3   OH272003   6.331   2.883   3.471 -0.5524  0.6445  0.1220
16863TIP3    H172004   6.418   2.856   3.503 -0.6755 -0.7603 -0.6645
16863TIP3    H272005   6.270   2.840   3.531 -0.7783 -1.8225 -1.7600
16864TIP3   OH272006   0.444   1.906  11.966 -0.5864 -0.6167 -0.0119
16864TIP3    H172007   0.538   1.915  11.948 -0.7106 -1.5164 -1.2120
16864TIP3    H272008   0.436   1.922  12.060  1.0235 -2.1912  0.4388
16865TIP3   OH272009   5.991   4.196  16.560  0.1095 -0.1288 -0.2419
16865TIP3    H172010   6.014   4.280  16.600 -2.1390  0.0945  0.6411
16865TIP3    H272011   6.066   4.174  16.505  1.3618  1.7190  0.7001
16866TIP3   OH272012   3.654   6.358  10.441  0.0741  0.5016  0.2351
16866TIP3    H172013   3.682   6.386  10.354 -0.1805 -2.0544 -0.7345
16866TIP3    H272014   3.698   6.417  10.502  0.8944  1.8080 -1.6061
16867TIP3   OH272015   0.462   6.189   4.894 -0.7797  0.6099 -0.3538
16867TIP3    H172016   0.369   6.208   4.878 -0.6695 -0.0032 -1.8326
16867TIP3    H272017   0.509   6.261   4.853 -0.5008 -0.8865 -2.8162
16868TIP3   OH272018   5.392   0.336  12.143  0.0792  0.0553  0.1089
16868TIP3    H172019   5.336   0.350  12.220  0.1425 -1.0763  0.3844
16868TIP3    H272020   5.474   0.380  12.164  0.4598 -1.1170  1.1462
16869TIP3   OH272021   2.532   3.837  16.626 -0.4698 -0.3261  0.4696
16869TIP3    H172022   2.566   3.926  16.641  0.1013 -0.7179  1.5161
16869TIP3    H272023   2.608   3.786  16.599 -0.7536 -0.5562  0.1080
16870TIP3   OH272024   2.791   0.269   1.268  0.7771 -0.3338  0.2872
16870TIP3    H172025   2.802   0.204   1.198 -0.7233 -0.8924  0.5407
16870TIP3    H272026   2.812   0.222   1.348  0.7459 -0.2093  0.3677
16871TIP3   OH272027   6.538   3.120   0.892  0.8456  0.0628 -0.4293
16871TIP3    H172028   6.455   3.119   0.844 -0.5155  2.7587  1.7336
16871TIP3    H272029   6.560   3.213   0.901  2.8576 -0.5168  1.1099
16872TIP3   OH272030   5.580   3.960   0.204  0.1399 -0.2345  0.4455
16872TIP3    H172031   5.579   3.969   0.108  0.2242 -0.6534  0.4042
16872TIP3    H272032   5.612   3.871   0.219 -0.4964 -0.3980  0.8463
16873TIP3   OH272033   2.666   0.536   1.330 -0.0738  0.2469 -0.8994
16873TIP3    H172034   2.649   0.545   1.424 -2.4018 -0.3831 -1.2247
16873TIP3    H272035   2.690   0.444   1.319 -0.9888  0.0171 -1.0627
16874TIP3   OH272036   2.875   0.780   6.009  0.3771 -0.3331  0.0343
16874TIP3    H172037   2.855   0.823   6.093 -1.2961 -1.2625  0.1458
16874TIP3    H272038   2.853   0.688   6.024 -0.7114 -0.3610 -1.6660
16875TIP3   OH272039   2.807   4.389   0.885  0.0909  0.4073  0.1406
16875TIP3    H172040   2.731   4.420   0.935  0.0898  0.1604  0.2966
16875TIP3    H272041   2.875   4.453   0.902 -0.0688  0.6003  0.0464
16876TIP3   OH272042   1.401   1.117  11.928 -1.1005  0.0125  0.4878
16876TIP3    H172043   1.403   1.097  11.835 -1.4502  0.5895  0.3521
16876TIP3    H272044   1.308   1.132  11.947 -0.9879  0.2735  0.8454
16877TIP3   OH272045   6.378   6.553  14.315 -0.4407 -0.4649  0.1971
16877TIP3    H172046   6.370   6.462  14.287 -3.8447 -0.0278 -0.4260
16877TIP3    H272047   6.339   6.603  14.244  1.9432  1.5920  0.2532
16878TIP3   OH272048   3.016   4.543   0.067 -0.0913 -0.1295 -0.2340
16878TIP3    H172049   3.103   4.583   0.060  1.9580 -4.1540  0.6677
16878TIP3    H272050   3.004   4.498  -0.017 -1.1598  0.1651 -0.2368
16879TIP3   OH272051   4.245   3.260  15.843 -0.8607  0.3077 -0.0240
16879TIP3    H172052   4.175   3.283  15.904  0.3338  0.2853  1.3953
16879TIP3    H272053   4.320   3.241  15.900 -0.1659 -1.2442 -1.4462
16880TIP3   OH272054   5.607   4.642  16.336 -0.2751 -0.2331 -0.5582
16880TIP3    H172055   5.580   4.625  16.246  1.0294 -0.0973 -0.9926
16880TIP3    H272056   5.568   4.572  16.387 -0.2569 -0.8406 -1.3815
16881TIP3   OH272057   0.489   4.284  14.088  0.6870  0.4039 -0.1921
16881TIP3    H172058   0.407   4.278  14.039  1.6503  1.7361 -2.0464
16881TIP3    H272059   0.525   4.195  14.085 -0.1788  0.0586 -0.3017
16882TIP3   OH272060   0.569   5.048   0.267 -0.5555 -0.2283  0.1483
16882TIP3    H172061   0.591   5.006   0.183 -0.1104  0.3049 -0.0101
16882TIP3    H272062   0.630   5.122   0.272 -1.0659  0.1591  0.6062
16883TIP3   OH272063   4.936   5.403   0.109 -0.0225 -0.1433  0.0177
16883TIP3    H172064   4.938   5.491   0.147  0.7606  0.3017 -1.0389
16883TIP3    H272065   4.876   5.410   0.035 -0.3416 -0.6232  0.2285
16884TIP3   OH272066   5.146   3.597   1.007  0.0023  0.7863 -0.1910
16884TIP3    H172067   5.092   3.630   0.935  0.2563 -0.2006 -0.8424
16884TIP3    H272068   5.083   3.579   1.077 -0.2487  1.7182 -0.1705
16885TIP3   OH272069   2.881   1.754   2.709  0.2056 -0.0062  0.4596
16885TIP3    H172070   2.862   1.772   2.617  1.3984 -1.2862 -0.0579
16885TIP3    H272071   2.947   1.819   2.732  1.9092 -1.3850 -0.3943
16886TIP3   OH272072   0.289   4.177   5.116 -0.1949  0.3594  0.3841
16886TIP3    H172073   0.317   4.242   5.051  1.1327 -0.6020 -0.0381
16886TIP3    H272074   0.205   4.145   5.083 -1.2362  2.3710  0.9869
16887TIP3   OH272075   3.889   5.408  12.511 -0.4874 -0.2018 -1.1259
16887TIP3    H172076   3.951   5.474  12.541  0.8539 -1.3680 -1.2674
16887TIP3    H272077   3.805   5.434  12.550  0.0095  1.5760 -1.1981
16888TIP3   OH272078   0.889   4.169  16.136  0.5883  0.2515  0.0667
16888TIP3    H172079   0.845   4.214  16.064  0.0262 -0.4877 -0.0520
16888TIP3    H272080   0.839   4.089  16.149  0.7580  0.3244  1.2039
16889TIP3   OH272081   3.447   3.814   0.417  0.4174  0.1188  0.0987
16889TIP3    H172082   3.360   3.850   0.430  0.5563  1.0288 -1.4315
16889TIP3    H272083   3.440   3.759   0.339  1.3593  0.7505 -0.4494
16890TIP3   OH272084   0.518   5.585   0.540  0.0042 -0.3400  0.1660
16890TIP3    H172085   0.434   5.566   0.499  0.2026 -0.5461 -0.1436
16890TIP3    H272086   0.540   5.673   0.508 -0.1046 -0.2760  0.2665
16891TIP3   OH272087   6.721   1.519  14.174 -0.2445  0.2389 -0.3657
16891TIP3    H172088   6.678   1.450  14.224  0.0024  0.3657  0.0272
16891TIP3    H272089   6.708   1.494  14.083 -2.4618  1.0840 -0.2970
16892TIP3   OH272090   5.039   6.270  13.064 -0.2747 -0.3688 -0.0945
16892TIP3    H172091   5.068   6.212  13.135  3.3452  0.3575 -0.8578
16892TIP3    H272092   5.076   6.231  12.985 -1.2902  0.7490 -1.1302
16893TIP3   OH272093   2.091   1.649   3.528  0.0136 -0.7742 -0.6671
16893TIP3    H172094   2.122   1.584   3.464 -0.8030  0.0968 -1.9716
16893TIP3    H272095   2.010   1.612   3.562  0.5739 -1.3526  0.0550
16894TIP3   OH272096   0.841   5.846  15.001 -1.1825  0.3984 -0.4511
16894TIP3    H172097   0.860   5.905  15.073 -0.9744  0.6835 -0.7356
16894TIP3    H272098   0.792   5.900  14.938  0.2814  0.6727 -1.3691
16895TIP3   OH272099   4.600   3.511   3.776  0.2323  0.4834 -0.6313
16895TIP3    H172100   4.586   3.605   3.762  0.7256  0.3827 -1.9565
16895TIP3    H272101   4.554   3.491   3.857  1.8834  2.2892  0.8087
16896TIP3   OH272102   5.714   6.308  16.017 -0.2619 -0.3461  0.5188
16896TIP3    H172103   5.622   6.332  16.013 -0.6231 -1.7046  0.4130
16896TIP3    H272104   5.721   6.252  16.095  0.6780  0.5551  1.1097
16897TIP3   OH272105   0.805   4.413   2.366 -0.5492 -1.0464  0.1531
16897TIP3    H172106   0.732   4.402   2.304 -0.8792 -1.2560  0.5750
16897TIP3    H272107   0.815   4.327   2.406  0.2317 -1.1322 -0.2274
16898TIP3   OH272108   1.004   4.351  13.691  0.8313  0.1600 -0.6552
16898TIP3    H172109   1.059   4.370  13.615  2.2564 -0.6015  0.1594
16898TIP3    H272110   1.057   4.291  13.744 -1.3593 -1.7266 -0.5341
16899TIP3   OH272111   6.152   0.796  16.965 -0.1916  0.3772 -0.9936
16899TIP3    H172112   6.064   0.759  16.969 -0.1952  0.4087 -0.7428
16899TIP3    H272113   6.200   0.740  16.904 -1.1289  1.9002 -3.2220
16900TIP3   OH272114   0.754   1.417   3.160  0.1320  0.0536  0.9540
16900TIP3    H172115   0.824   1.476   3.185  0.9599 -0.7596  0.5741
16900TIP3    H272116   0.784   1.331   3.189  0.6672 -0.7585 -1.9390
16901TIP3   OH272117   3.451   2.166  15.010 -0.3280 -0.3973 -0.5501
16901TIP3    H172118   3.462   2.252  14.970  0.1351 -0.5218 -0.6982
16901TIP3    H272119   3.502   2.170  15.091 -0.9362 -0.2799 -0.1687
16902TIP3   OH272120   4.818   5.989  16.276  0.7554 -0.1446  0.1480
16902TIP3    H172121   4.879   6.048  16.231  1.6314 -0.5564  0.7711
16902TIP3    H272122   4.837   5.902  16.241 -1.5405  0.1194 -1.8415
16903TIP3   OH272123   1.857   6.760  17.033  0.0738 -0.2434  0.2354
16903TIP3    H172124   1.824   6.753  17.123  0.6627 -0.3611  0.4469
16903TIP3    H272125   1.824   6.844  17.001 -0.3644 -0.3264  0.4705
16904TIP3   OH272126   1.975   1.000   5.653  0.3287 -0.7647 -0.4296
16904TIP3    H172127   1.920   1.041   5.587 -1.3253 -0.7787  0.8977
16904TIP3    H272128   1.936   0.913   5.666  0.0228 -0.3876  1.2553
16905TIP3   OH272129   4.314   2.418   2.995 -0.9804 -0.0216 -0.7746
16905TIP3    H172130   4.345   2.381   3.079 -1.0130  0.0331 -0.7385
16905TIP3    H272131   4.324   2.346   2.933  0.0978  0.2805 -0.9595
16906TIP3   OH272132   0.488   2.094   4.229  0.3449 -0.1373  0.3123
16906TIP3    H172133   0.524   2.079   4.142 -0.4915 -1.5856  0.2034
16906TIP3    H272134   0.393   2.100   4.214  0.2394  0.0623  1.0595
16907TIP3   OH272135   4.504   3.977  12.864  0.5748 -0.3247  0.1380
16907TIP3    H172136   4.417   3.971  12.904 -0.8191 -0.3531 -2.8092
16907TIP3    H272137   4.542   4.057  12.902 -0.5429 -0.5422  1.7722
16908TIP3   OH272138   4.992   6.006   2.207 -0.1755 -0.3106 -0.0017
16908TIP3    H172139   4.954   6.028   2.292 -0.7491  1.5474 -0.7092
16908TIP3    H272140   5.085   6.024   2.217 -0.2124 -0.2874  0.3120
16909TIP3   OH272141   3.385   4.456  13.174 -0.2672  0.4163  1.0512
16909TIP3    H172142   3.457   4.469  13.235  0.9606  0.9002 -0.4667
16909TIP3    H272143   3.352   4.544  13.158  0.2547  0.4337  0.0377
16910TIP3   OH272144   2.515   2.236  13.145 -0.4645  0.6324  0.2314
16910TIP3    H172145   2.516   2.303  13.214 -0.8895  0.1931  0.6629
16910TIP3    H272146   2.466   2.163  13.183 -0.0037  0.0749 -0.2384
16911TIP3   OH272147   4.573   2.964   2.072  0.0548 -0.1755 -0.7726
16911TIP3    H172148   4.568   3.051   2.034 -0.8117  0.4544  0.7373
16911TIP3    H272149   4.649   2.966   2.129 -0.1730 -0.2835 -0.4571
16912TIP3   OH272150   2.436   6.429  11.506 -0.1560 -0.0760  0.1395
16912TIP3    H172151   2.523   6.457  11.536  0.4092 -0.0203 -1.5171
16912TIP3    H272152   2.420   6.481  11.427 -1.3021 -0.7777 -0.0962
16913TIP3   OH272153   2.560   3.629   4.001 -0.3431  0.8020  0.0772
16913TIP3    H172154   2.492   3.563   3.987  0.1608  0.0890  0.9108
16913TIP3    H272155   2.578   3.624   4.095  1.0472  0.7913 -0.1750
16914TIP3   OH272156   2.928   0.973   0.254  0.2547  1.2190  0.0211
16914TIP3    H172157   2.890   1.044   0.202 -0.4482  1.1818  0.4721
16914TIP3    H272158   3.006   1.011   0.293  0.8482  1.2170 -1.1366
16915TIP3   OH272159   2.936   4.080   3.304  0.3195 -0.2005 -0.8008
16915TIP3    H172160   2.949   4.097   3.211  1.3805  0.4499 -0.5414
16915TIP3    H272161   2.940   3.985   3.311 -3.0813 -0.4803 -1.8802
16916TIP3   OH272162   1.386   2.365   2.747  0.2616  0.2389  0.0252
16916TIP3    H172163   1.353   2.412   2.825 -1.0713  0.3569 -0.5997
16916TIP3    H272164   1.440   2.295   2.783 -0.4281  0.2267  1.0750
16917TIP3   OH272165   2.686   0.410  13.693 -0.2763  0.2511  0.1225
16917TIP3    H172166   2.737   0.344  13.646 -0.0159  1.0277 -0.7112
16917TIP3    H272167   2.624   0.443  13.628 -1.1563  0.0333  0.8450
16918TIP3   OH272168   3.906   4.964   2.547 -0.4823  0.2226 -0.2191
16918TIP3    H172169   3.850   4.908   2.601  0.7316 -0.4559  0.3747
16918TIP3    H272170   3.930   5.037   2.605 -0.6211  0.4241 -0.4161
16919TIP3   OH272171   3.652   2.090   1.749  0.1937  0.1220  0.3975
16919TIP3    H172172   3.735   2.127   1.780 -0.4170  0.9680  1.0437
16919TIP3    H272173   3.678   2.030   1.679  1.5799 -1.6997  2.3880
16920TIP3   OH272174   0.769   3.022  16.329 -0.5640  0.0172  0.4973
16920TIP3    H172175   0.827   3.077  16.278  1.3020 -1.0258  1.4097
16920TIP3    H272176   0.818   2.940  16.341 -2.1231 -0.8050  1.5108
16921TIP3   OH272177   5.824   1.716   4.609  0.3425  0.2576  0.2364
16921TIP3    H172178   5.772   1.640   4.634  0.4613 -0.2732 -1.0677
16921TIP3    H272179   5.915   1.689   4.620  0.4031 -0.1261 -1.1356
16922TIP3   OH272180   6.518   4.366   0.811  0.4811  0.2039  0.3809
16922TIP3    H172181   6.601   4.381   0.858  0.6550 -1.6442  0.7234
16922TIP3    H272182   6.464   4.318   0.874  1.1266 -3.3169 -1.6066
16923TIP3   OH272183   0.648   6.372  11.244 -0.4706 -0.3064 -0.2020
16923TIP3    H172184   0.570   6.383  11.298  0.4103 -3.8394  2.0093
16923TIP3    H272185   0.615   6.348  11.158 -1.8505  1.0325 -0.0453
16924TIP3   OH272186   4.406   1.085  12.602  0.0608  0.1475  0.0388
16924TIP3    H172187   4.396   1.161  12.659 -1.1932 -1.2749  1.7580
16924TIP3    H272188   4.317   1.059  12.580  0.4132 -1.6518  0.6311
16925TIP3   OH272189   5.284   0.475   3.984 -0.2122 -0.6188 -0.6848
16925TIP3    H172190   5.189   0.489   3.985 -0.1419 -0.0620 -1.2184
16925TIP3    H272191   5.296   0.401   3.924 -0.2849 -0.5129 -0.8298
16926TIP3   OH272192   4.322   6.417   3.410  0.0143 -0.2555  0.7146
16926TIP3    H172193   4.237   6.380   3.386 -0.4789  0.9834  0.5411
16926TIP3    H272194   4.355   6.358   3.478 -0.5989 -1.2217  0.1902
16927TIP3   OH272195   3.227   3.755  14.504  0.3708 -0.2730  0.0618
16927TIP3    H172196   3.240   3.782  14.595 -0.6012  0.1730  0.0680
16927TIP3    H272197   3.198   3.664  14.510 -2.7227  0.6687  0.3828
16928TIP3   OH272198   1.389   4.790  16.677  0.1428 -0.5636  0.2723
16928TIP3    H172199   1.434   4.781  16.594  0.7822 -2.1258  0.7734
16928TIP3    H272200   1.432   4.864  16.720 -0.6225  0.6599 -1.0373
16929TIP3   OH272201   0.330   0.555   4.054 -0.0661 -0.1537 -0.0132
16929TIP3    H172202   0.318   0.507   4.136 -0.5537 -1.4197 -0.8096
16929TIP3    H272203   0.420   0.586   4.057 -0.7964  1.8970  2.0861
16930TIP3   OH272204   1.145   4.685  14.451 -0.0802  0.8130  0.2246
16930TIP3    H172205   1.112   4.614  14.396  2.2225 -0.1164 -0.0102
16930TIP3    H272206   1.104   4.764  14.416 -1.3616 -0.1959 -0.5837
16931TIP3   OH272207   6.498   1.526  13.665 -0.2404  0.3999 -0.5442
16931TIP3    H172208   6.586   1.555  13.687  0.2104 -1.6802  0.6320
16931TIP3    H272209   6.507   1.481  13.581 -0.0864 -0.1823 -0.2200
16932TIP3   OH272210   4.258   2.210  10.883 -0.0056  0.5120 -0.0300
16932TIP3    H172211   4.200   2.146  10.924 -0.3715  2.3590  2.4516
16932TIP3    H272212   4.346   2.179  10.904 -0.1833  0.9883  1.4631
16933TIP3   OH272213   5.833   1.161  15.878  0.3161 -0.0915 -0.2301
16933TIP3    H172214   5.906   1.212  15.843  1.2746 -1.7864 -0.7534
16933TIP3    H272215   5.812   1.203  15.962  1.3245  0.9309 -0.4846
16934TIP3   OH272216   1.301   1.342   1.738 -0.0450  0.6308  0.3251
16934TIP3    H172217   1.299   1.257   1.781 -0.5278  1.2135  1.4508
16934TIP3    H272218   1.210   1.370   1.734  0.1084  1.0925 -0.0566
16935TIP3   OH272219   1.401   3.637   6.164  0.1058 -0.1716 -0.1368
16935TIP3    H172220   1.496   3.640   6.176  0.0582  1.5397  0.0260
16935TIP3    H272221   1.381   3.717   6.115 -1.3542 -0.0828  0.5731
16936TIP3   OH272222   4.351   2.788  15.342 -0.4028  0.0776 -0.2793
16936TIP3    H172223   4.312   2.827  15.420  1.2670  1.0958  0.0657
16936TIP3    H272224   4.439   2.762  15.370 -0.1155 -0.3618 -1.5804
16937TIP3   OH272225   0.810   3.395  12.067  0.6071  0.4209 -0.2121
16937TIP3    H172226   0.791   3.488  12.084 -1.2466 -0.0279  0.2995
16937TIP3    H272227   0.834   3.360  12.153 -2.4911 -0.4104  0.3732
16938TIP3   OH272228   0.275   3.783   5.797 -0.3685 -0.6539  0.3918
16938TIP3    H172229   0.288   3.694   5.831 -1.9657 -1.2708 -0.5704
16938TIP3    H272230   0.281   3.774   5.702 -1.7478  0.0434  0.2253
16939TIP3   OH272231   6.131   1.643   2.359 -0.4629  0.5260 -0.4196
16939TIP3    H172232   6.079   1.688   2.292  0.6210  3.3498  0.5258
16939TIP3    H272233   6.100   1.680   2.441  0.4811 -0.4924  0.4011
16940TIP3   OH272234   4.867   0.462   1.454  0.3618 -0.5355 -0.3150
16940TIP3    H172235   4.867   0.474   1.359  0.4398  3.1173  0.0528
16940TIP3    H272236   4.774   0.453   1.477  0.4536 -3.1503 -0.8795
16941TIP3   OH272237   1.021   4.114  14.785  0.4903 -0.0857  0.1501
16941TIP3    H172238   0.993   4.104  14.876  0.8942  1.1111  0.4117
16941TIP3    H272239   0.940   4.123  14.735  0.3067  0.5282  0.5553
16942TIP3   OH272240   6.188   4.971  11.911 -0.2153 -0.0230  0.6008
16942TIP3    H172241   6.277   4.981  11.877  0.4910 -1.4571  1.9688
16942TIP3    H272242   6.143   4.919  11.844  0.2879 -0.2252  0.4181
16943TIP3   OH272243   5.517   0.682  12.951  0.0157  0.2508 -0.4663
16943TIP3    H172244   5.426   0.700  12.929 -0.7978 -0.6532  2.0986
16943TIP3    H272245   5.553   0.767  12.977 -0.3991  0.4088 -0.4088
16944TIP3   OH272246   0.735   0.097  14.363 -0.1903  0.5460 -0.1856
16944TIP3    H172247   0.716   0.034  14.294 -0.6996  0.6665 -0.1517
16944TIP3    H272248   0.673   0.169  14.348 -0.3093  0.5666  0.4072
16945TIP3   OH272249   1.149   5.712   2.573 -0.2361 -0.1395 -0.0297
16945TIP3    H172250   1.195   5.631   2.596 -0.0511  0.1575  0.6556
16945TIP3    H272251   1.151   5.764   2.653 -1.3293  0.0868 -0.1438
16946TIP3   OH272252   6.394   1.573  15.395 -0.4108 -0.2456  0.3447
16946TIP3    H172253   6.384   1.507  15.325  3.6980 -0.8694  0.2321
16946TIP3    H272254   6.353   1.532  15.471 -0.9010 -1.5117 -0.5636
16947TIP3   OH272255   6.421   1.965  16.316 -0.7070 -0.2492  0.2595
16947TIP3    H172256   6.401   2.048  16.272 -1.3863  0.5761  2.0993
16947TIP3    H272257   6.479   1.989  16.388  0.4022 -1.5956 -0.1690
16948TIP3   OH272258   0.007   5.485  14.110 -0.1716  0.2159  0.3995
16948TIP3    H172259   0.089   5.436  14.102 -0.5441 -0.2754 -0.5140
16948TIP3    H272260   0.031   5.575  14.088 -0.0173 -0.0692 -0.6463
16949TIP3   OH272261   3.432   2.272  11.247  0.0828  0.0875 -0.6530
16949TIP3    H172262   3.342   2.247  11.268 -0.4769 -0.2525 -3.3192
16949TIP3    H272263   3.474   2.189  11.223  0.7773  0.4298 -0.6198
16950TIP3   OH272264   2.692   0.304  11.452 -0.1003 -0.2146  0.1241
16950TIP3    H172265   2.701   0.218  11.493 -2.3493  0.2561  1.7294
16950TIP3    H272266   2.658   0.285  11.365 -0.9144 -0.9804  0.5916
16951TIP3   OH272267   6.406   5.099   1.078 -0.3707 -0.3840 -0.6621
16951TIP3    H172268   6.387   5.190   1.098  0.3509 -0.1642 -0.9643
16951TIP3    H272269   6.408   5.095   0.983 -0.6501 -0.7710 -0.6547
16952TIP3   OH272270   0.460   6.583  11.517  0.1960  0.4814  0.5865
16952TIP3    H172271   0.485   6.665  11.561 -0.8798  0.7415  0.7466
16952TIP3    H272272   0.369   6.598  11.490  0.0058 -0.6508  0.5790
16953TIP3   OH272273   4.824   6.471  14.138  0.2797  0.4562  0.3118
16953TIP3    H172274   4.847   6.381  14.117  0.3864  0.7381 -0.8060
16953TIP3    H272275   4.882   6.495  14.210  1.4506  0.1959 -0.5279
16954TIP3   OH272276   2.511   0.384  16.291  0.2025 -0.7196  0.6314
16954TIP3    H172277   2.591   0.366  16.340  0.4607  0.9642  0.8663
16954TIP3    H272278   2.443   0.331  16.334  1.1621 -2.1069  0.4597
16955TIP3   OH272279   5.272   3.574   0.549 -0.2933  0.5158 -1.0981
16955TIP3    H172280   5.363   3.547   0.553  0.8637  4.4040  0.8792
16955TIP3    H272281   5.233   3.537   0.629  0.0671  0.5960 -0.8865
16956TIP3   OH272282   2.062   6.257  12.491 -0.3717  0.1296  0.3162
16956TIP3    H172283   2.004   6.202  12.439  0.2095 -0.4807  0.3045
16956TIP3    H272284   2.129   6.287  12.430  0.1014 -0.2884  0.6214
16957TIP3   OH272285   2.108   4.263   2.036 -0.2864  0.0910 -0.0038
16957TIP3    H172286   2.202   4.267   2.054 -0.1057  0.1397 -0.9569
16957TIP3    H272287   2.082   4.175   2.061  0.1834 -0.2129 -0.5928
16958TIP3   OH272288   4.224   3.443  14.181 -0.0336  0.1275  0.0684
16958TIP3    H172289   4.285   3.371  14.197 -0.4081 -0.0871  0.5614
16958TIP3    H272290   4.138   3.407  14.205 -0.5532 -0.0367 -1.9168
16959TIP3   OH272291   2.335   4.628   4.000 -0.7290  0.3685 -0.5281
16959TIP3    H172292   2.397   4.677   3.946 -1.7670  1.2629 -0.9086
16959TIP3    H272293   2.250   4.667   3.981 -1.6075 -1.7263 -1.0166
16960TIP3   OH272294   2.163   4.460  12.812  0.5006 -0.1159  0.4043
16960TIP3    H172295   2.210   4.377  12.805 -0.0000 -0.3496 -0.1725
16960TIP3    H272296   2.099   4.458  12.741  0.0373  0.4715  0.8003
16961TIP3   OH272297   0.314   5.362  11.439  0.2609 -0.0073 -0.0181
16961TIP3    H172298   0.292   5.292  11.501  0.7454  0.9629  1.2835
16961TIP3    H272299   0.401   5.338  11.408  0.1870 -0.2915 -0.0123
16962TIP3   OH272300   2.321   5.423  14.928 -0.3837  0.1008  0.1418
16962TIP3    H172301   2.325   5.443  15.022 -4.1246 -3.0764  1.1112
16962TIP3    H272302   2.389   5.358  14.914  0.0432  0.4268  0.7118
16963TIP3   OH272303   2.962   5.455  13.395  0.0161 -0.0497 -0.4614
16963TIP3    H172304   3.056   5.442  13.407 -0.2826  0.2894  2.7339
16963TIP3    H272305   2.921   5.404  13.466 -2.1879  0.0582 -1.6070
16964TIP3   OH272306   2.720   6.205  15.922 -0.1226 -0.2981 -0.2469
16964TIP3    H172307   2.750   6.266  15.855  1.3863 -1.7540 -0.9091
16964TIP3    H272308   2.670   6.260  15.983  2.6334  1.9370  0.1107
16965TIP3   OH272309   5.584   3.822  12.556  0.4076  0.4551 -0.0553
16965TIP3    H172310   5.538   3.900  12.585 -1.1640  0.0485 -1.3463
16965TIP3    H272311   5.669   3.825  12.600 -0.2102  2.1086  1.0421
16966TIP3   OH272312   1.722   1.263   3.768  0.4587  0.5528 -0.1457
16966TIP3    H172313   1.747   1.328   3.833  1.1988 -1.5800  1.7710
16966TIP3    H272314   1.645   1.300   3.725  0.4337  2.3666  1.4155
16967TIP3   OH272315   1.800   3.963  13.145  0.3996  0.1323  0.7324
16967TIP3    H172316   1.872   4.016  13.111 -0.5362  0.9997  0.0807
16967TIP3    H272317   1.721   4.009  13.118 -0.4281 -1.2747  0.6829
16968TIP3   OH272318   3.367   3.660  11.892  0.2367  0.3200 -0.1980
16968TIP3    H172319   3.357   3.674  11.797  0.6022  1.0066 -0.1427
16968TIP3    H272320   3.283   3.689  11.929 -0.6552 -1.8338 -0.4905
16969TIP3   OH272321   1.832   4.856  16.507 -0.4465  0.6186  0.2079
16969TIP3    H172322   1.888   4.851  16.429  1.0334 -1.1996  1.3208
16969TIP3    H272323   1.786   4.772  16.509 -2.5411  1.7437 -0.1829
16970TIP3   OH272324   4.748   4.439  15.913 -0.0373  0.2256  0.4369
16970TIP3    H172325   4.812   4.452  15.983 -0.7317 -0.1541  1.1402
16970TIP3    H272326   4.726   4.527  15.883  0.3807  0.3793  0.5748
16971TIP3   OH272327   3.076   6.698  14.067 -0.6701 -0.0789 -0.2931
16971TIP3    H172328   3.110   6.726  14.153  0.1990 -1.5473 -0.1360
16971TIP3    H272329   2.985   6.675  14.084 -0.6926  0.3016  0.1065
16972TIP3   OH272330   4.875   5.140  16.620 -0.1097  0.0112 -0.5320
16972TIP3    H172331   4.831   5.221  16.647  0.7595 -0.0547  1.1374
16972TIP3    H272332   4.968   5.163  16.615  0.0497 -0.6734 -0.8416
16973TIP3   OH272333   0.632   0.604  16.849  0.1814  0.0266 -0.7004
16973TIP3    H172334   0.634   0.559  16.765  1.3806  0.5150 -0.9407
16973TIP3    H272335   0.656   0.537  16.913  0.3085 -0.0844 -0.8663
16974TIP3   OH272336   3.178   2.036  15.717  0.0962 -0.3365  0.1257
16974TIP3    H172337   3.147   2.029  15.626 -1.0288  0.5982  0.4227
16974TIP3    H272338   3.152   2.124  15.744 -0.2004 -0.8594  1.5778
16975TIP3   OH272339   4.265   6.359  15.066  0.2165 -0.0727 -0.0169
16975TIP3    H172340   4.326   6.398  15.129  0.3964  0.0695 -0.2812
16975TIP3    H272341   4.203   6.429  15.045 -1.1536 -0.7377  1.6564
16976TIP3   OH272342   1.761   0.928  16.307 -0.1145 -0.2969 -0.2609
16976TIP3    H172343   1.737   0.995  16.372  0.5857 -0.8586  0.5992
16976TIP3    H272344   1.787   0.978  16.230 -0.3936  0.4098  0.0959
16977TIP3   OH272345   1.930   0.130   5.532 -0.0926 -0.2619  0.1947
16977TIP3    H172346   1.950   0.191   5.461 -0.1207 -1.1262 -0.5663
16977TIP3    H272347   2.009   0.077   5.540 -0.9537 -1.7501 -0.8275
16978TIP3   OH272348   5.978   6.021  13.413  0.3476 -0.1051  0.0565
16978TIP3    H172349   6.010   5.935  13.384 -0.1492 -1.1048  2.4042
16978TIP3    H272350   6.053   6.060  13.458  0.9535  1.2339 -2.0401
16979TIP3   OH272351   0.162   2.757   6.253 -0.1417  0.1997 -0.1471
16979TIP3    H172352   0.187   2.837   6.207 -2.2662  1.7523  1.3093
16979TIP3    H272353   0.188   2.772   6.344  0.0209 -1.0507  0.0282
16980TIP3   OH272354   4.595   1.999  15.291 -0.1585  0.4031 -0.4506
16980TIP3    H172355   4.606   2.018  15.198 -0.7297  1.4310 -0.3081
16980TIP3    H272356   4.645   1.918  15.304 -1.6338 -0.8195 -2.0474
16981TIP3   OH272357   2.174   4.841  16.877  0.6813 -0.2684 -0.0661
16981TIP3    H172358   2.214   4.888  16.803 -1.2639  0.7487 -0.4998
16981TIP3    H272359   2.156   4.754  16.842  0.8438 -0.1592 -0.4299
16982TIP3   OH272360   3.804   3.525  13.991 -0.0139 -0.2824 -0.2672
16982TIP3    H172361   3.768   3.447  14.032  1.7225 -0.3710  1.1815
16982TIP3    H272362   3.849   3.571  14.062  2.1986  0.1121 -1.8529
16983TIP3   OH272363   6.390   4.913  13.650  0.0431 -0.2461 -0.6190
16983TIP3    H172364   6.393   5.008  13.640 -0.5217 -0.1678 -0.0532
16983TIP3    H272365   6.444   4.895  13.727 -1.0412 -0.2494  0.1456
16984TIP3   OH272366   4.429   0.536  14.365  0.4276  0.1606  0.4660
16984TIP3    H172367   4.418   0.445  14.394  1.0449 -0.3592 -0.8509
16984TIP3    H272368   4.357   0.584  14.407  0.1850 -0.9068  1.2943
16985TIP3   OH272369   2.177   5.967  11.402  0.1408 -0.9495  0.4035
16985TIP3    H172370   2.202   6.041  11.347  2.1088 -1.9634 -0.0966
16985TIP3    H272371   2.153   6.007  11.486 -0.1520  0.3539 -0.2756
16986TIP3   OH272372   6.246   4.835   1.563  0.3110  0.4412 -0.0186
16986TIP3    H172373   6.210   4.750   1.587  1.0435  0.9205  2.8745
16986TIP3    H272374   6.332   4.815   1.524 -0.4496 -0.2593 -1.3677
16987TIP3   OH272375   2.605   5.998  15.468 -0.3036  0.1417 -0.1171
16987TIP3    H172376   2.661   6.068  15.502  1.2594 -1.4024  0.5806
16987TIP3    H272377   2.633   5.920  15.516  0.7232 -1.7681 -3.6765
16988TIP3   OH272378   5.002   1.275  14.093  0.4230 -0.1277  0.3518
16988TIP3    H172379   5.052   1.208  14.139  1.6923 -0.9044 -2.0848
16988TIP3    H272380   5.068   1.335  14.057 -0.4716 -0.0012 -1.1427
16989TIP3   OH272381   0.134   4.136  15.066 -0.2397 -0.0553  0.0970
16989TIP3    H172382   0.096   4.180  14.991  0.2917  0.7216  0.2744
16989TIP3    H272383   0.183   4.205  15.112  0.1565 -0.7119  0.6674
16990TIP3   OH272384   1.047   3.188   4.877  0.4071  0.2760  0.2564
16990TIP3    H172385   1.088   3.175   4.791 -1.7796  0.6547 -0.9144
16990TIP3    H272386   1.071   3.277   4.902  1.9169 -0.2024  0.5362
16991TIP3   OH272387   3.528   2.984   4.977 -0.5884 -0.1138  0.2572
16991TIP3    H172388   3.542   2.929   4.899  0.5607 -0.5733  0.7757
16991TIP3    H272389   3.573   2.937   5.047 -0.2020  1.1356  0.8542
16992TIP3   OH272390   1.436   1.903  12.312 -0.6076  0.4636  0.0730
16992TIP3    H172391   1.462   1.987  12.351 -1.1164  0.8321 -0.3692
16992TIP3    H272392   1.518   1.856  12.299 -0.0099  2.1057 -2.4168
16993TIP3   OH272393   6.642   3.678   2.791 -0.4366 -0.1307 -0.1082
16993TIP3    H172394   6.634   3.696   2.697  0.2033 -2.2566 -0.5876
16993TIP3    H272395   6.736   3.674   2.807 -0.5301  0.7620  0.7600
16994TIP3   OH272396   2.855   1.665  15.394 -0.3520 -0.0771  0.4083
16994TIP3    H172397   2.922   1.678  15.462  0.6542  2.6514 -1.0727
16994TIP3    H272398   2.785   1.619  15.440  0.9258  0.3908  2.9533
16995TIP3   OH272399   6.740   5.646   0.445  0.2296  0.3137 -0.4170
16995TIP3    H172400   6.812   5.676   0.501  0.1641  2.9383 -1.6576
16995TIP3    H272401   6.722   5.557   0.475  1.2314  1.0835  2.6551
16996TIP3   OH272402   2.828   4.533  16.839  0.3901  0.0990 -0.4609
16996TIP3    H172403   2.856   4.477  16.766  0.6992 -0.7231  0.2895
16996TIP3    H272404   2.773   4.600  16.797 -0.1202 -0.8573 -1.3360
16997TIP3   OH272405   5.353   3.741   3.330 -0.4457  0.2433 -0.0391
16997TIP3    H172406   5.274   3.778   3.370 -1.2314 -2.3465  0.9249
16997TIP3    H272407   5.323   3.659   3.289  1.6942 -0.7396  0.2657
16998TIP3   OH272408   6.575   6.593  12.882 -0.4059  0.1353  0.5054
16998TIP3    H172409   6.596   6.686  12.870 -0.4588 -0.0291 -0.9189
16998TIP3    H272410   6.591   6.577  12.975 -0.7988  1.6739  0.8548
16999TIP3   OH272411   4.630   1.110   4.797  0.4217 -0.8048 -0.1783
16999TIP3    H172412   4.582   1.068   4.869 -0.8846  0.0233 -0.5280
16999TIP3    H272413   4.715   1.068   4.797 -0.5633 -2.8792 -0.0116
17000TIP3   OH272414   1.515   5.883   1.851 -0.1205  0.1040  0.1733
17000TIP3    H172415   1.607   5.857   1.852 -0.2079 -0.2193 -0.1063
17000TIP3    H272416   1.508   5.945   1.778 -0.3344 -0.6546 -0.4561
17001TIP3   OH272417   1.824   1.973   0.211  0.5403  0.0270 -0.5324
17001TIP3    H172418   1.759   1.923   0.260  0.2216  0.6358 -0.3187
17001TIP3    H272419   1.822   1.937   0.123  1.0856 -1.0516 -0.1098
17002TIP3   OH272420   4.830   1.240  15.195  0.4004  0.5884 -0.3381
17002TIP3    H172421   4.888   1.256  15.121  1.2002 -1.7217 -0.2721
17002TIP3    H272422   4.749   1.208  15.156  0.2323  0.9687 -0.2983
17003TIP3   OH272423   0.966   4.485   4.770  0.1138 -0.6033  0.5002
17003TIP3    H172424   0.990   4.564   4.818 -0.1510 -1.4830  2.1302
17003TIP3    H272425   0.946   4.421   4.839 -0.5767 -1.8033 -0.7980
17004TIP3   OH272426   0.566   1.732  16.613  0.0199  0.5096  0.0343
17004TIP3    H172427   0.593   1.810  16.662  0.2015  1.1870 -1.1378
17004TIP3    H272428   0.489   1.699  16.660 -0.0444  1.3822  0.5395
17005TIP3   OH272429   5.309   3.954  12.776 -0.3752 -0.5468 -0.2209
17005TIP3    H172430   5.273   3.872  12.744  0.4670 -1.6447  1.5781
17005TIP3    H272431   5.237   3.995  12.825 -0.9072 -0.0326 -1.4315
17006TIP3   OH272432   3.718   1.692  15.510 -0.1818 -0.9656  0.5690
17006TIP3    H172433   3.730   1.740  15.592  0.3960  1.3827 -0.8386
17006TIP3    H272434   3.706   1.760  15.444  0.2420 -2.7834 -1.4520
17007TIP3   OH272435   3.608   3.254  15.969 -0.0977 -0.5312 -0.2341
17007TIP3    H172436   3.699   3.231  15.949 -0.3886 -3.0691  1.1615
17007TIP3    H272437   3.562   3.246  15.885  1.2043  2.4140 -1.3203
17008TIP3   OH272438   4.712   6.738   4.740  0.1050  0.3195  0.6504
17008TIP3    H172439   4.725   6.832   4.755 -3.0899  0.7705  0.9817
17008TIP3    H272440   4.692   6.702   4.827 -0.3261 -0.3506  0.2814
17009TIP3   OH272441   6.295   2.470   2.894 -0.2611  0.6084 -0.3278
17009TIP3    H172442   6.369   2.459   2.953 -0.6423  0.4701  0.1245
17009TIP3    H272443   6.283   2.384   2.854 -0.2189  0.6124 -0.3488
17010TIP3   OH272444   5.068   0.892  11.421  0.2022  0.7132 -0.8598
17010TIP3    H172445   5.068   0.804  11.458 -2.0928  1.3111  0.6874
17010TIP3    H272446   5.063   0.877  11.326  0.0413 -0.8162 -0.6330
17011TIP3   OH272447   5.986   5.615  16.306  0.4161 -0.0934 -0.1790
17011TIP3    H172448   6.059   5.559  16.281 -0.3472 -1.2700  0.2288
17011TIP3    H272449   5.999   5.632  16.399  0.2267 -0.2196 -0.1286
17012TIP3   OH272450   4.445   6.732   5.136 -0.5340 -0.3015 -0.1297
17012TIP3    H172451   4.531   6.716   5.096 -0.9166 -2.3110 -0.2382
17012TIP3    H272452   4.464   6.760   5.225  0.2756  1.4747 -0.8470
17013TIP3   OH272453   5.349   0.661  14.357  0.0670 -0.6241 -0.3911
17013TIP3    H172454   5.265   0.705  14.374 -0.7475 -1.9383 -0.9938
17013TIP3    H272455   5.412   0.733  14.350 -0.3494  0.2374  3.6011
17014TIP3   OH272456   2.236   3.357  13.796 -0.0794  0.0250  0.3582
17014TIP3    H172457   2.204   3.397  13.715 -3.2234 -1.0510  1.0231
17014TIP3    H272458   2.257   3.267  13.773 -0.4891 -0.1395  0.6236
17015TIP3   OH272459   1.794   5.906   3.330  0.2191 -0.0366 -0.1033
17015TIP3    H172460   1.736   5.964   3.281 -1.0707 -2.7977 -1.9683
17015TIP3    H272461   1.868   5.891   3.272  1.0296  0.5033  0.7710
17016TIP3   OH272462   3.842   0.580  16.240  0.2060 -0.2551  0.3623
17016TIP3    H172463   3.818   0.672  16.251  1.7356  0.4224 -1.6872
17016TIP3    H272464   3.767   0.540  16.195 -0.2072  0.0985  0.7306
17017TIP3   OH272465   6.290   5.922  13.925 -0.4946  0.7931 -0.1735
17017TIP3    H172466   6.227   5.912  13.854 -1.8100 -0.6961  1.1544
17017TIP3    H272467   6.299   6.016  13.936 -2.1585  1.0167 -0.6720
17018TIP3   OH272468   6.486   3.827   0.865  0.2236 -0.0205 -0.5777
17018TIP3    H172469   6.460   3.908   0.910 -2.4484 -2.1951  2.0092
17018TIP3    H272470   6.522   3.772   0.934 -0.5272 -2.0733 -1.7852
17019TIP3   OH272471   1.580   4.798  12.008  0.0263 -0.3166 -0.2326
17019TIP3    H172472   1.664   4.842  11.994 -0.3310  1.1415  2.0374
17019TIP3    H272473   1.581   4.769  12.099 -1.0742 -2.2254 -0.7834
17020TIP3   OH272474   3.118   4.434  13.296 -0.1869 -0.5004  0.1021
17020TIP3    H172475   3.206   4.399  13.283  0.7511  1.2617  1.5292
17020TIP3    H272476   3.115   4.513  13.242 -1.2902 -1.1339 -0.7992
17021TIP3   OH272477   3.756   0.804   5.731  0.2470  0.5407 -0.2693
17021TIP3    H172478   3.813   0.872   5.695  1.6908  0.7297  2.2388
17021TIP3    H272479   3.749   0.825   5.824 -0.6065 -1.8273  0.2468
17022TIP3   OH272480   5.243   2.512   4.742  0.0457  0.5612 -0.1307
17022TIP3    H172481   5.219   2.505   4.834  1.0582 -0.9880  0.0469
17022TIP3    H272482   5.170   2.557   4.701 -0.5682  0.9558  1.3719
17023TIP3   OH272483   6.038   1.055   0.797  0.1594 -0.1092 -0.5607
17023TIP3    H172484   6.119   1.036   0.750 -0.1470  0.5336 -1.3538
17023TIP3    H272485   5.973   1.073   0.728 -1.3467 -3.2215 -0.0437
17024TIP3   OH272486   2.943   4.739   3.826 -0.2752  0.1399  0.2399
17024TIP3    H172487   2.971   4.830   3.833  1.6789 -0.3392 -0.9299
17024TIP3    H272488   2.933   4.709   3.916 -0.8792  1.4963  0.6267
17025TIP3   OH272489   4.047   5.126   0.212 -0.0650 -0.3308 -0.0830
17025TIP3    H172490   3.991   5.190   0.256  1.7030  0.7452  0.6279
17025TIP3    H272491   4.111   5.178   0.164  0.1788 -1.5521 -1.1363
17026TIP3   OH272492   0.698   5.252   0.148 -0.0139 -0.9613 -0.3334
17026TIP3    H172493   0.639   5.243   0.073  0.4793 -1.8107 -0.6319
17026TIP3    H272494   0.778   5.206   0.121  0.7212  0.0408  0.1260
17027TIP3   OH272495   0.479   5.009   5.385  0.0472  0.2813  0.8640
17027TIP3    H172496   0.531   5.085   5.414  0.0662  0.2731  0.8530
17027TIP3    H272497   0.482   5.014   5.290  1.6009 -0.7671  0.8266
17028TIP3   OH272498   0.323   6.023   3.295  0.2076 -0.2183 -0.0291
17028TIP3    H172499   0.305   5.983   3.210 -0.9241  1.6272 -0.6926
17028TIP3    H272500   0.396   5.972   3.331 -1.6267 -3.3102 -0.5018
17029TIP3   OH272501   0.537   2.164  12.184 -0.1833 -0.3934 -0.2752
17029TIP3    H172502   0.512   2.182  12.093 -1.4912  1.1137  0.3491
17029TIP3    H272503   0.554   2.250  12.222  0.7775 -1.0404  0.7927
17030TIP3   OH272504   3.954   3.665   0.402  0.0299  0.5407 -0.3987
17030TIP3    H172505   3.987   3.644   0.314 -2.2329 -1.6465 -0.7829
17030TIP3    H272506   3.873   3.713   0.387 -0.6269 -0.2759  0.4934
17031TIP3   OH272507   2.922   4.080   0.310  0.5040 -0.4724  0.1278
17031TIP3    H172508   2.853   4.144   0.290  1.6389  0.4781 -0.8283
17031TIP3    H272509   2.969   4.118   0.384  1.0288 -0.2888 -0.2901
17032TIP3   OH272510   2.691   0.569  15.934  0.1514  0.1232  0.2969
17032TIP3    H172511   2.718   0.606  15.850  0.1730 -1.6707 -0.5179
17032TIP3    H272512   2.769   0.571  15.989  0.5050 -0.0140 -0.2067
17033TIP3   OH272513   3.571   5.177   4.705 -0.0127  0.7159 -0.1732
17033TIP3    H172514   3.641   5.240   4.691 -0.4918  1.2914  0.0084
17033TIP3    H272515   3.538   5.157   4.618 -1.6008  2.7122 -0.0815
17034TIP3   OH272516   1.107   5.158   1.843 -0.4785 -0.4937  0.0146
17034TIP3    H172517   1.180   5.209   1.877 -0.3251  0.2774 -1.4368
17034TIP3    H272518   1.029   5.201   1.877 -0.2944 -0.9685  1.0775
17035TIP3   OH272519   4.735   6.341  12.528 -0.3886 -0.4582 -0.1139
17035TIP3    H172520   4.692   6.361  12.445  1.8664 -0.5870 -1.3863
17035TIP3    H272521   4.829   6.349  12.508  0.1575  1.0218  2.8435
17036TIP3   OH272522   1.152   6.723  11.166 -0.3069  0.2522 -0.0746
17036TIP3    H172523   1.149   6.627  11.168  2.0638  0.0548 -2.5529
17036TIP3    H272524   1.078   6.748  11.111 -1.0481 -0.1159  0.7373
17037TIP3   OH272525   3.693   2.108  12.694  0.3859 -0.4109  0.3653
17037TIP3    H172526   3.728   2.172  12.632  0.5829 -0.4526  0.4339
17037TIP3    H272527   3.629   2.157  12.746  1.5922  0.0891  1.3955
17038TIP3   OH272528   6.518   2.812  17.124  0.1205  0.1952  0.3222
17038TIP3    H172529   6.511   2.790  17.031  0.9377  0.7355  0.1240
17038TIP3    H272530   6.434   2.786  17.162 -0.3120  0.2220 -0.6190
17039TIP3   OH272531   0.554   6.120   2.789  0.0281 -0.4260 -0.9694
17039TIP3    H172532   0.506   6.125   2.871  0.9083 -1.3692 -0.3840
17039TIP3    H272533   0.595   6.206   2.780  1.6268 -0.9836  0.6501
17040TIP3   OH272534   2.778   3.836   5.716 -0.0978 -0.0895  0.2220
17040TIP3    H172535   2.685   3.811   5.720 -0.3786  0.7973 -0.4628
17040TIP3    H272536   2.822   3.775   5.775 -1.0775 -0.7166  0.3218
17041TIP3   OH272537   0.402   6.485   5.229  0.1569  0.1172 -0.3113
17041TIP3    H172538   0.334   6.551   5.221 -1.1429 -1.5003 -3.7840
17041TIP3    H272539   0.452   6.491   5.147  0.5334 -2.5944 -0.3360
17042TIP3   OH272540   0.316   3.247   1.285  0.1475 -0.0002  0.1388
17042TIP3    H172541   0.283   3.299   1.358  0.5658  0.0182  0.3117
17042TIP3    H272542   0.247   3.254   1.218  0.1865  0.7457  0.1741
17043TIP3   OH272543   1.633   6.760  14.825 -0.5637  0.0586 -0.4025
17043TIP3    H172544   1.543   6.728  14.832 -1.0052  1.4226  0.4148
17043TIP3    H272545   1.662   6.732  14.739 -2.1120  0.4259 -1.0664
17044TIP3   OH272546   3.624   1.928  13.335  0.4051 -0.0359  0.3495
17044TIP3    H172547   3.560   1.946  13.267 -0.9198 -0.9166  1.3547
17044TIP3    H272548   3.704   1.903  13.287 -0.1220  0.6409 -0.8848
17045TIP3   OH272549   5.024   5.495   0.658  0.7540 -0.7037 -0.4507
17045TIP3    H172550   5.112   5.506   0.694 -0.1012 -0.9031  1.7734
17045TIP3    H272551   4.991   5.416   0.701 -1.6986  1.1587  1.1706
17046TIP3   OH272552   1.207   3.706  14.303 -0.4155 -0.5491 -0.0881
17046TIP3    H172553   1.234   3.769  14.237 -0.6501  1.1929  1.4279
17046TIP3    H272554   1.140   3.752  14.354  1.2158 -1.0875  2.6216
17047TIP3   OH272555   0.773   6.262  12.258  0.0897  0.1893  0.0387
17047TIP3    H172556   0.797   6.170  12.249  0.7991  0.2536  1.3000
17047TIP3    H272557   0.849   6.310  12.225 -0.2778  0.3358 -0.6142
17048TIP3   OH272558   2.588   1.255  14.026  0.0361  0.2229  0.0965
17048TIP3    H172559   2.508   1.208  14.048 -1.0226  1.1593 -1.6148
17048TIP3    H272560   2.640   1.254  14.107 -2.2735  0.7730  1.6415
17049TIP3   OH272561   2.129   3.147   1.694 -0.4972 -0.1299  0.4610
17049TIP3    H172562   2.088   3.062   1.674 -1.9504  0.4366  0.9404
17049TIP3    H272563   2.205   3.151   1.636  0.1294 -2.1605  1.0986
17050TIP3   OH272564   0.909   2.541   2.392  0.3698  0.4494 -0.3288
17050TIP3    H172565   0.813   2.539   2.396  0.2930 -1.2529 -2.2075
17050TIP3    H272566   0.936   2.451   2.412  1.6029  1.0050  0.5578
17051TIP3   OH272567   3.126   5.295   0.872 -0.1890 -0.2290  0.3278
17051TIP3    H172568   3.183   5.221   0.856  3.1535  2.6600 -1.7626
17051TIP3    H272569   3.143   5.320   0.963 -1.7661 -2.2710  1.2277
17052TIP3   OH272570   1.820   5.070   4.659 -0.1678 -0.4481  0.3706
17052TIP3    H172571   1.876   5.002   4.622 -1.6327 -1.4494 -0.0698
17052TIP3    H272572   1.739   5.064   4.608 -0.5365  1.2250  0.7298
17053TIP3   OH272573   6.696   2.954  12.434 -0.1206 -0.5298  0.3815
17053TIP3    H172574   6.759   3.006  12.385 -0.1168  0.4362  1.3891
17053TIP3    H272575   6.686   2.874  12.383  0.1095  0.3266 -1.0257
17054TIP3   OH272576   6.176   1.704  11.314  0.3372  0.5784 -0.1070
17054TIP3    H172577   6.241   1.637  11.333  0.3129  0.6442  0.1984
17054TIP3    H272578   6.101   1.655  11.278  0.6086  0.5184 -0.5999
17055TIP3   OH272579   6.457   2.410   1.667  0.2473 -0.3299  0.2894
17055TIP3    H172580   6.459   2.438   1.759  1.9323  2.0287 -0.4192
17055TIP3    H272581   6.548   2.389   1.646  0.0821  0.3964 -1.2073
17056TIP3   OH272582   3.948   4.672   3.186  0.8307 -0.1405  0.1806
17056TIP3    H172583   4.013   4.726   3.231  1.7412  2.1229 -3.6112
17056TIP3    H272584   3.998   4.600   3.147  0.5156 -0.3969  0.2455
17057TIP3   OH272585   0.872   6.015  10.828  0.3044  0.0666 -0.2132
17057TIP3    H172586   0.899   5.923  10.828  0.7995  0.1982 -1.0446
17057TIP3    H272587   0.903   6.050  10.911 -0.2425 -0.6232  0.2770
17058TIP3   OH272588   5.057   2.121   2.305  0.1145 -0.2105 -0.2869
17058TIP3    H172589   5.054   2.059   2.378  0.3092  1.2949  1.0154
17058TIP3    H272590   4.969   2.160   2.303 -0.1488 -0.8333 -1.3864
17059TIP3   OH272591   4.128   2.687   2.998  0.3566 -0.5465  0.0171
17059TIP3    H172592   4.054   2.626   3.001 -0.6642  0.4274 -3.0172
17059TIP3    H272593   4.197   2.638   2.953  0.7980 -0.6821  0.8350
17060TIP3   OH272594   1.324   0.056   4.934  0.2777  0.1834  0.0904
17060TIP3    H172595   1.307   0.042   5.027 -0.1118 -4.7525 -0.6262
17060TIP3    H272596   1.420   0.055   4.927  0.3189  1.0084  0.4718
17061TIP3   OH272597   3.462   1.970  15.768  0.4088  0.8037  0.0864
17061TIP3    H172598   3.368   1.969  15.751  0.3522  0.1712  0.4284
17061TIP3    H272599   3.494   1.889  15.727  0.7175  0.7273  0.4828
17062TIP3   OH272600   3.306   1.159  10.476 -0.1603 -0.2424 -0.0812
17062TIP3    H172601   3.226   1.123  10.439  0.5850 -0.5983 -1.3989
17062TIP3    H272602   3.355   1.083  10.507  0.4480 -0.1883 -0.8884
17063TIP3   OH272603   6.754   0.249  13.550 -0.2071  0.0705  0.1113
17063TIP3    H172604   6.805   0.179  13.590 -0.0723  0.4872  0.6835
17063TIP3    H272605   6.728   0.215  13.464  1.2150 -0.0714 -0.2764
17064TIP3   OH272606   6.052   0.836   1.963  0.1201 -0.1569  0.2556
17064TIP3    H172607   5.987   0.833   2.034  0.2152  1.3566  0.4393
17064TIP3    H272608   6.026   0.767   1.903 -0.1472 -1.2630  1.6209
17065TIP3   OH272609   6.732   1.446   1.066  0.6128  0.1322  0.3076
17065TIP3    H172610   6.718   1.386   1.139  0.1223 -1.3706 -0.9970
17065TIP3    H272611   6.650   1.442   1.016 -0.0079  3.0329  0.9970
17066TIP3   OH272612   0.964   2.529  10.470  0.2209  0.0799  0.4406
17066TIP3    H172613   0.910   2.603  10.500 -0.2276  0.6502 -1.7165
17066TIP3    H272614   1.052   2.566  10.461  0.4362 -0.1891  1.4168
17067TIP3   OH272615   1.864   0.003   1.191  0.0538 -0.5895  0.5986
17067TIP3    H172616   1.787   0.059   1.191 -0.0224 -0.6930  0.5224
17067TIP3    H272617   1.891  -0.001   1.283 -1.1694 -2.0875  0.9141
17068TIP3   OH272618   1.103   5.667  12.798 -0.0611  0.5785 -0.2143
17068TIP3    H172619   1.181   5.714  12.829  0.0586  0.8184 -0.8759
17068TIP3    H272620   1.102   5.683  12.704 -1.3437  1.2027 -0.0938
17069TIP3   OH272621   5.686   1.453   4.660 -0.4542  0.5276  0.2450
17069TIP3    H172622   5.699   1.358   4.660  0.4831  0.6517  0.9458
17069TIP3    H272623   5.622   1.468   4.591 -0.4691 -0.5974  0.0011
17070TIP3   OH272624   3.466   5.821  11.261 -0.3572 -0.1018  0.3168
17070TIP3    H172625   3.495   5.906  11.227  1.2736 -0.6367  0.3197
17070TIP3    H272626   3.536   5.794  11.319 -1.7100 -0.6248  1.7375
17071TIP3   OH272627   5.958   6.625   0.247  0.0970 -1.0245 -0.3152
17071TIP3    H172628   5.989   6.661   0.164  1.7574 -0.7726  0.3925
17071TIP3    H272629   6.038   6.594   0.291 -0.6797 -0.5419  1.4735
17072TIP3   OH272630   1.551   5.795  11.352  0.0400  0.0927  0.0447
17072TIP3    H172631   1.526   5.865  11.291  1.2758 -0.5884 -1.2703
17072TIP3    H272632   1.599   5.732  11.298  2.4626  0.1842  1.9992
17073TIP3   OH272633   6.720   1.811  14.183  0.3123  0.1654  0.1703
17073TIP3    H172634   6.629   1.814  14.154  0.0681 -1.5878  0.7159
17073TIP3    H272635   6.739   1.718  14.193  2.3213  0.4882 -0.3955
17074TIP3   OH272636   6.748   1.329   2.296 -0.0974 -0.6100 -0.1022
17074TIP3    H172637   6.685   1.257   2.295  0.8916 -1.5076  0.9718
17074TIP3    H272638   6.756   1.353   2.388  2.1228 -1.4214 -0.0424
17075TIP3   OH272639   5.107   6.020   6.228 -0.2805 -0.2801 -0.1314
17075TIP3    H172640   5.072   6.066   6.304 -1.4519  0.5004 -1.1154
17075TIP3    H272641   5.163   6.085   6.185 -0.8425 -0.1914 -0.7566
17076TIP3   OH272642   5.362   4.591   3.835 -0.0865 -0.2845 -0.8023
17076TIP3    H172643   5.394   4.554   3.918 -0.6651 -0.2399 -0.5587
17076TIP3    H272644   5.426   4.658   3.812  0.2044 -0.4610 -0.5109
17077TIP3   OH272645   3.042   5.123   5.096  0.0576  0.1218  0.2120
17077TIP3    H172646   3.109   5.054   5.092  0.1823  0.2923 -0.5958
17077TIP3    H272647   2.993   5.114   5.014 -0.6763  0.2378  0.6352
17078TIP3   OH272648   2.455   1.199  13.501 -0.5444 -0.2555 -0.1133
17078TIP3    H172649   2.517   1.138  13.461  1.4362  0.9690  0.9963
17078TIP3    H272650   2.489   1.285  13.478 -2.1258  0.4370  0.1136
17079TIP3   OH272651   0.312   6.775  15.244 -0.4851 -0.1148 -0.3351
17079TIP3    H172652   0.388   6.719  15.260 -0.0422  0.3699 -0.7538
17079TIP3    H272653   0.302   6.824  15.326  0.9684  1.3877 -1.0336
17080TIP3   OH272654   0.603   6.254   1.814 -0.5567  0.3168  0.7502
17080TIP3    H172655   0.654   6.173   1.808  0.3435  0.4871  4.7729
17080TIP3    H272656   0.661   6.322   1.778 -0.9846 -0.6554 -1.8367
17081TIP3   OH272657   1.274   3.494   1.361 -0.1191  0.2516  1.1111
17081TIP3    H172658   1.260   3.447   1.443 -1.4243 -0.1480  0.6755
17081TIP3    H272659   1.232   3.579   1.374  1.8729  1.1703  1.7449
17082TIP3   OH272660   0.020   1.537   5.233  0.9055  0.2593  0.2146
17082TIP3    H172661  -0.060   1.539   5.181  1.6671  0.5153 -0.9848
17082TIP3    H272662  -0.009   1.539   5.324 -0.5461 -2.3624 -0.1342
17083TIP3   OH272663   3.265   3.257   4.752  0.2073 -0.2350  0.1684
17083TIP3    H172664   3.261   3.322   4.682  1.5822 -0.9617 -0.5980
17083TIP3    H272665   3.297   3.305   4.828 -0.5924  0.3956  0.1187
17084TIP3   OH272666   2.255   2.367  11.329 -0.2142  0.7221 -0.2680
17084TIP3    H172667   2.191   2.329  11.269  0.3152  0.2702 -0.5483
17084TIP3    H272668   2.272   2.454  11.293  0.3906  0.3087 -0.9929
17085TIP3   OH272669   4.190   4.785  13.689 -0.3841 -0.6176  0.5956
17085TIP3    H172670   4.223   4.875  13.696 -0.5131 -0.4914 -0.4350
17085TIP3    H272671   4.158   4.765  13.778  3.6263 -1.2247  1.9815
17086TIP3   OH272672   5.598   5.814   1.613  0.4661 -0.0515 -0.0206
17086TIP3    H172673   5.560   5.732   1.645 -2.2819  0.5176 -1.7117
17086TIP3    H272674   5.633   5.792   1.527 -0.0442  0.4720 -0.3639
17087TIP3   OH272675   1.845   4.653   5.587  0.3848  0.5922  0.1657
17087TIP3    H172676   1.803   4.687   5.666 -0.2189  1.0924 -0.3677
17087TIP3    H272677   1.773   4.638   5.525  0.9956  1.6286 -0.8129
17088TIP3   OH272678   3.846   4.691   6.088  0.3211 -0.0271 -1.0063
17088TIP3    H172679   3.864   4.599   6.109  1.2844  0.2997 -0.3758
17088TIP3    H272680   3.929   4.736   6.103  0.3268  0.6706 -2.9518
17089TIP3   OH272681   2.101   6.744  14.258 -0.2517  0.1655  0.2430
17089TIP3    H172682   2.162   6.704  14.197  1.7563  0.7515  1.8185
17089TIP3    H272683   2.056   6.670  14.299 -1.5706 -0.2270 -1.8511
17090TIP3   OH272684   6.294   5.971  15.500 -0.2363  0.3961  0.3501
17090TIP3    H172685   6.285   6.048  15.444 -0.3266 -0.1084 -0.3376
17090TIP3    H272686   6.385   5.944  15.488 -0.7221 -0.7473 -0.9344
17091TIP3   OH272687   0.236   3.009   6.122  0.2054  0.4987 -0.4545
17091TIP3    H172688   0.156   3.001   6.070 -0.0835  1.8101 -0.2254
17091TIP3    H272689   0.233   3.098   6.157  0.6527 -0.1882  1.3791
17092TIP3   OH272690   3.741   5.542  14.287 -0.0559 -0.1640  0.1006
17092TIP3    H172691   3.696   5.459  14.300  0.3554 -0.5708 -1.0178
17092TIP3    H272692   3.673   5.608  14.298 -0.8709 -0.7613 -1.2325
17093TIP3   OH272693   1.654   5.500   0.222  0.3510 -0.6468 -0.3990
17093TIP3    H172694   1.661   5.580   0.273  0.1653 -1.1792  0.4731
17093TIP3    H272695   1.575   5.457   0.255  0.0229 -0.8119 -1.3954
17094TIP3   OH272696   4.076   5.442  11.137  0.5693  0.8912  0.1936
17094TIP3    H172697   4.102   5.350  11.143 -1.0717  0.4570  1.2237
17094TIP3    H272698   4.123   5.484  11.209 -1.5669  0.0863  2.1368
17095TIP3   OH272699   2.143   2.119   5.433  0.2398  0.0688  0.1203
17095TIP3    H172700   2.148   2.215   5.426  1.3184 -0.0204 -0.4314
17095TIP3    H272701   2.185   2.087   5.353 -1.1216 -0.8601 -0.2342
17096TIP3   OH272702   0.969   0.961  13.540 -0.1351  0.3188  0.2599
17096TIP3    H172703   0.999   0.953  13.449 -1.1424  1.9925 -0.2586
17096TIP3    H272704   1.043   1.000  13.586  1.1196 -2.3987  0.6348
17097TIP3   OH272705   4.776   0.774   0.240 -0.5953  0.0455 -0.0974
17097TIP3    H172706   4.763   0.684   0.213 -1.4864 -0.1154  0.8455
17097TIP3    H272707   4.688   0.809   0.252 -0.2841  1.4169 -1.6471
17098TIP3   OH272708   0.839   5.726  14.738 -0.3940 -0.4602 -0.0973
17098TIP3    H172709   0.824   5.631  14.738 -2.2321 -0.2025  1.5009
17098TIP3    H272710   0.853   5.748  14.830 -0.7264  0.9205 -0.3655
17099TIP3   OH272711   3.185   0.644  13.351 -0.3741  0.2614  0.3622
17099TIP3    H172712   3.189   0.591  13.430  0.4778 -0.8484 -0.4045
17099TIP3    H272713   3.153   0.729  13.380  1.4206  0.3563  2.1416
17100TIP3   OH272714   6.229   1.304  13.384  0.4957 -0.9152  0.4692
17100TIP3    H172715   6.281   1.225  13.371  0.9643 -0.6173  0.5291
17100TIP3    H272716   6.291   1.368  13.419 -0.1727 -0.9349  1.7174
17101TIP3   OH272717   3.368   3.635   4.818  0.0174  0.5680 -0.3473
17101TIP3    H172718   3.399   3.717   4.857 -0.9299  0.7602  0.0253
17101TIP3    H272719   3.291   3.612   4.870 -0.1419 -0.1790 -0.9107
17102TIP3   OH272720   1.445   3.549  16.977  0.0713 -0.1787 -0.4403
17102TIP3    H172721   1.386   3.478  16.953 -1.5157  0.7970  0.5037
17102TIP3    H272722   1.489   3.517  17.056 -1.0600  0.1126  0.3134
17103TIP3   OH272723   6.566   5.942  15.422 -0.6067 -0.3739  0.0084
17103TIP3    H172724   6.596   5.963  15.511 -0.7744  0.6035 -0.1665
17103TIP3    H272725   6.602   6.012  15.368 -1.7680 -0.1469 -0.4699
17104TIP3   OH272726   1.998   1.544   4.081 -0.1899  0.0364  0.4706
17104TIP3    H172727   1.997   1.553   4.176 -1.4397 -1.8666  0.6732
17104TIP3    H272728   1.914   1.579   4.053  0.4258  1.1508 -0.0067
17105TIP3   OH272729   2.875   5.805   6.151  1.0389 -0.5260 -0.2170
17105TIP3    H172730   2.916   5.885   6.181 -1.9955  1.2924 -0.7385
17105TIP3    H272731   2.948   5.750   6.121  3.2390  1.5163  1.2979
17106TIP3   OH272732   6.119   5.619  11.804 -0.0855 -0.0962 -0.0472
17106TIP3    H172733   6.151   5.558  11.871  0.9559  0.5883  0.0794
17106TIP3    H272734   6.037   5.654  11.840 -0.5255 -1.1705  0.0225
17107TIP3   OH272735   1.554   6.384   4.044  0.5021 -0.2949  0.7030
17107TIP3    H172736   1.559   6.354   3.953  0.1060 -1.2966  1.0006
17107TIP3    H272737   1.638   6.360   4.082  0.7116  0.2300  0.5646
17108TIP3   OH272738   6.447   2.406  16.732  0.3322 -0.4174 -0.4999
17108TIP3    H172739   6.428   2.460  16.655  0.1069 -1.2904 -1.0572
17108TIP3    H272740   6.521   2.352  16.706  0.4430 -0.5083  0.0016
17109TIP3   OH272741   4.215   2.878  15.127 -0.3349  0.3523 -0.5912
17109TIP3    H172742   4.231   2.789  15.096  1.9852  0.4803  0.1702
17109TIP3    H272743   4.255   2.882  15.213 -1.1542  1.9011 -0.2500
17110TIP3   OH272744   3.716   5.744  17.045 -0.5364  0.0292  0.7701
17110TIP3    H172745   3.710   5.839  17.034 -2.2174 -0.1639 -0.0202
17110TIP3    H272746   3.644   5.722  17.103 -1.0493 -0.9530 -0.2287
17111TIP3   OH272747   6.476   5.635   0.715  0.4053  0.1898  0.0273
17111TIP3    H172748   6.461   5.574   0.643  0.5231  0.0591  0.1113
17111TIP3    H272749   6.571   5.648   0.714  0.8165 -2.2253  2.0923
17112TIP3   OH272750   1.129   6.111  12.836 -0.0443 -0.7857 -0.2501
17112TIP3    H172751   1.131   6.206  12.841 -0.2332 -0.8504  1.0413
17112TIP3    H272752   1.219   6.086  12.815  0.1940 -0.3715  0.2844
17113TIP3   OH272753   2.632   5.324   1.293  0.5563  0.2433 -0.1028
17113TIP3    H172754   2.651   5.244   1.342  0.4905  1.4190  1.8971
17113TIP3    H272755   2.716   5.367   1.283  0.2299  1.1833  1.1054
17114TIP3   OH272756   5.447   2.762  12.468  0.5075  0.7018 -0.9463
17114TIP3    H172757   5.418   2.848  12.437 -0.5152  1.6930  2.5452
17114TIP3    H272758   5.369   2.723  12.508  1.4703 -1.0046 -0.6631
17115TIP3   OH272759   2.725   1.928   0.680 -0.0659  0.3885 -0.0764
17115TIP3    H172760   2.790   1.872   0.723  1.0149  1.0163 -0.8927
17115TIP3    H272761   2.643   1.879   0.688  0.6107 -0.6803  0.4216
17116TIP3   OH272762   0.307   0.408  15.936  0.6440  0.0635  0.5264
17116TIP3    H172763   0.218   0.384  15.909  0.8619 -0.4444  0.2413
17116TIP3    H272764   0.305   0.503  15.945 -0.1567 -0.0239  1.3490
17117TIP3   OH272765   6.433   0.608   2.752  0.4338 -0.5675 -0.2199
17117TIP3    H172766   6.430   0.590   2.846 -1.7450  1.0068  0.0600
17117TIP3    H272767   6.450   0.702   2.747  2.4044 -0.9596 -1.4568
17118TIP3   OH272768   4.839   4.378  14.620  0.4747 -0.3830 -0.0625
17118TIP3    H172769   4.909   4.341  14.674  1.3799  0.7309 -0.4337
17118TIP3    H272770   4.772   4.405  14.683  0.8194 -0.5418  0.3805
17119TIP3   OH272771   0.805   5.806   2.972 -0.1377 -0.3906  0.8449
17119TIP3    H172772   0.881   5.827   2.918 -0.0350 -0.0886  1.1083
17119TIP3    H272773   0.736   5.783   2.909 -0.4608  1.4080  0.5303
17120TIP3   OH272774   2.416   0.010  14.093 -0.0402 -0.1151  0.0910
17120TIP3    H172775   2.415   0.051  14.007 -1.3783 -0.0116  0.1335
17120TIP3    H272776   2.497   0.039  14.134  1.4191 -1.4761 -1.7490
17121TIP3   OH272777   6.468   1.356  16.289 -0.4341  0.6131 -0.0169
17121TIP3    H172778   6.527   1.323  16.222 -0.5415  2.1587 -0.9031
17121TIP3    H272779   6.435   1.439  16.254 -0.2969  1.5946  2.0468
17122TIP3   OH272780   6.140   0.999  15.393  0.6376 -0.0952 -0.1013
17122TIP3    H172781   6.203   0.972  15.327 -0.3954  1.4259 -1.7602
17122TIP3    H272782   6.072   0.931  15.391  0.5207  0.0395 -0.7366
17123TIP3   OH272783   6.080   3.272  15.584  0.1256 -0.2261  0.1692
17123TIP3    H172784   6.041   3.185  15.592 -1.3229  0.2090 -1.8111
17123TIP3    H272785   6.016   3.331  15.622  0.6952  0.0836  0.6621
17124TIP3   OH272786   2.228   5.204   0.264  0.4510  0.1909 -0.7108
17124TIP3    H172787   2.176   5.141   0.213  0.4982  0.7836 -1.5074
17124TIP3    H272788   2.308   5.217   0.212  0.7981  0.2908 -0.1498
17125TIP3   OH272789   4.314   4.532  13.642  0.0054 -0.2183  0.7468
17125TIP3    H172790   4.367   4.503  13.717  0.9944  1.8095  0.8620
17125TIP3    H272791   4.307   4.627  13.654 -0.6113 -0.0062 -1.2448
17126TIP3   OH272792   2.386   4.379   6.189  0.4691 -0.2075  0.0811
17126TIP3    H172793   2.351   4.451   6.242  2.5308 -0.0649  1.3079
17126TIP3    H272794   2.392   4.305   6.250  1.5101 -0.4492 -0.3004
17127TIP3   OH272795   3.829   0.748  15.422  0.0300  0.2485 -0.2282
17127TIP3    H172796   3.851   0.827  15.472 -0.2364 -0.9551  1.8706
17127TIP3    H272797   3.805   0.780  15.335  0.4856  2.4235  0.4150
17128TIP3   OH272798   2.347   0.263   3.812  0.6873 -0.0026 -0.4638
17128TIP3    H172799   2.408   0.231   3.746  0.0265 -0.0535 -1.0525
17128TIP3    H272800   2.399   0.321   3.867  1.0498  0.6986 -1.5269
17129TIP3   OH272801   5.288   3.612   5.366 -0.0526  0.4470  0.5119
17129TIP3    H172802   5.200   3.582   5.346  0.1528 -1.5119  2.3308
17129TIP3    H272803   5.345   3.555   5.315  0.2038  1.2333 -0.0949
17130TIP3   OH272804   3.739   2.291   1.143  0.0575  0.4275 -0.2394
17130TIP3    H172805   3.722   2.198   1.160  0.7157  0.0853 -1.4568
17130TIP3    H272806   3.688   2.311   1.065 -1.8574  1.6654  1.2633
17131TIP3   OH272807   0.111   1.867  12.532  0.0741 -0.5505 -0.2804
17131TIP3    H172808   0.089   1.775  12.544  1.3931 -0.7363  0.9192
17131TIP3    H272809   0.206   1.871  12.546  0.0124  1.0059 -0.1988
17132TIP3   OH272810   4.363   4.456   3.049 -0.4519 -0.1762  0.1911
17132TIP3    H172811   4.445   4.454   3.099 -0.4938  3.1045  0.5044
17132TIP3    H272812   4.390   4.487   2.962 -1.1754 -0.3498 -0.0920
17133TIP3   OH272813   1.530   5.574   4.009  0.3207  0.6188  0.2892
17133TIP3    H172814   1.560   5.546   3.923 -0.7652 -1.2210  0.4999
17133TIP3    H272815   1.611   5.585   4.059  0.8778  0.0680 -0.4729
17134TIP3   OH272816   0.200   1.338   3.658  0.1403 -0.4574 -0.2674
17134TIP3    H172817   0.159   1.424   3.670  1.3054 -0.1222  1.5608
17134TIP3    H272818   0.214   1.331   3.564 -2.4181  0.2004 -0.7236
17135TIP3   OH272819   1.112   6.512   1.687  0.9724  0.0447  0.4037
17135TIP3    H172820   1.129   6.477   1.600 -0.9891 -1.0033  0.4126
17135TIP3    H272821   1.191   6.493   1.737  1.1348 -1.5855 -0.4516
17136TIP3   OH272822   0.923   0.166  15.811  0.3920  0.2554  0.1959
17136TIP3    H172823   0.837   0.176  15.770 -0.4428  0.3533  1.9223
17136TIP3    H272824   0.978   0.125  15.743 -0.4485  2.0408 -1.6004
17137TIP3   OH272825   1.261   5.440  13.922  0.7428  0.0457  0.4662
17137TIP3    H172826   1.302   5.507  13.976  1.4306 -0.3837  0.4809
17137TIP3    H272827   1.207   5.390  13.984 -0.5210  1.1696  0.2843
17138TIP3   OH272828   1.132   4.189   5.793 -0.6939  0.3428  0.0787
17138TIP3    H172829   1.048   4.228   5.769  0.5459  2.6503 -0.6511
17138TIP3    H272830   1.111   4.129   5.865 -3.0612  0.3234 -0.5939
17139TIP3   OH272831   0.387   5.315   4.387  0.3210  0.1842  0.0771
17139TIP3    H172832   0.405   5.262   4.309  0.3740  0.2271  0.0600
17139TIP3    H272833   0.400   5.406   4.357 -1.0211  0.2888 -0.2319
17140TIP3   OH272834   4.924   2.501  15.734  0.0998 -0.0367 -0.5551
17140TIP3    H172835   4.964   2.441  15.797  0.1670  0.1150 -0.4540
17140TIP3    H272836   4.966   2.586  15.751  0.0662  0.0209 -0.7552
17141TIP3   OH272837   4.421   2.467  13.711  0.1409 -0.1357  0.2322
17141TIP3    H172838   4.334   2.474  13.673  0.1285  0.4540  0.3596
17141TIP3    H272839   4.461   2.553  13.696  1.2239 -0.8499 -1.0928
17142TIP3   OH272840   0.683   5.565  12.610 -0.0263  0.7748 -0.0088
17142TIP3    H172841   0.751   5.610  12.660 -0.0496  0.3393  0.4200
17142TIP3    H272842   0.601   5.600  12.645 -0.0119  1.5561 -0.7684
17143TIP3   OH272843   2.141   5.018   3.270 -0.1211  0.0867 -0.8307
17143TIP3    H172844   2.117   4.958   3.340  1.1045 -0.3878 -0.8064
17143TIP3    H272845   2.065   5.075   3.261 -0.5974 -0.3381  0.3476
17144TIP3   OH272846   4.055   5.892  13.013 -0.7736 -0.1646  0.1342
17144TIP3    H172847   4.055   5.935  13.099 -1.0105 -2.8227  1.5523
17144TIP3    H272848   4.146   5.895  12.984 -0.7673  1.1544  0.2482
17145TIP3   OH272849   4.454   3.200   5.058 -0.2388 -0.7958  0.6276
17145TIP3    H172850   4.436   3.133   4.992  0.0959 -1.5212  1.2727
17145TIP3    H272851   4.450   3.154   5.142 -0.5628  0.1023  1.1127
17146TIP3   OH272852   4.238   0.959   1.177  0.3171 -0.5075  0.5776
17146TIP3    H172853   4.237   0.869   1.146  1.9005  0.1632 -1.5660
17146TIP3    H272854   4.150   0.992   1.159 -0.0159 -1.3788  0.6102
17147TIP3   OH272855   3.690   3.132   6.036 -0.2023  0.6108 -0.5270
17147TIP3    H172856   3.695   3.067   6.106 -0.5383 -1.0937 -2.0335
17147TIP3    H272857   3.780   3.162   6.025  0.7190 -2.5626 -2.4574
17148TIP3   OH272858   0.646   1.052   0.015 -0.1206 -0.0765 -0.3499
17148TIP3    H172859   0.560   1.037   0.054 -0.6776 -1.7123 -2.0716
17148TIP3    H272860   0.684   0.964   0.009  0.4540  0.2685 -2.2273
17149TIP3   OH272861   2.024   3.547   2.001  0.4372 -0.1111  0.0917
17149TIP3    H172862   2.026   3.459   1.964 -0.1599 -0.2168  0.2986
17149TIP3    H272863   2.091   3.595   1.953  0.1275 -0.4330 -0.6702
17150TIP3   OH272864   1.366   3.279   4.471 -0.0416  0.6181  0.4371
17150TIP3    H172865   1.407   3.331   4.541  1.0508 -1.2131  1.1864
17150TIP3    H272866   1.282   3.253   4.507 -0.6556  1.9665  0.0041
17151TIP3   OH272867   1.488   1.394  11.932  0.0751 -0.0373  0.0747
17151TIP3    H172868   1.531   1.479  11.923 -0.5468  0.1183 -1.5908
17151TIP3    H272869   1.472   1.385  12.026  0.6096  1.4548  0.3169
17152TIP3   OH272870   5.347   2.735   2.402  0.0012  0.1065 -0.0074
17152TIP3    H172871   5.432   2.730   2.447  0.1581 -2.2451 -0.4714
17152TIP3    H272872   5.364   2.787   2.324  1.1621 -0.7532 -0.3532
17153TIP3   OH272873   4.679   4.326   2.934 -0.0340 -0.0534  0.3707
17153TIP3    H172874   4.759   4.274   2.935  0.0094  0.0203  2.1555
17153TIP3    H272875   4.698   4.402   2.989 -0.9281  0.5757 -0.1748
17154TIP3   OH272876   2.000   6.163   3.500  1.3977  0.4410 -0.0680
17154TIP3    H172877   1.987   6.171   3.405 -0.7927  0.4965  0.2032
17154TIP3    H272878   2.082   6.116   3.510  1.8730  0.8347 -1.9927
17155TIP3   OH272879   0.268   4.178  14.281 -0.0568 -0.5610 -0.4491
17155TIP3    H172880   0.275   4.140  14.193 -0.1611  0.7929 -1.0544
17155TIP3    H272881   0.227   4.109  14.333  0.4670 -1.5706 -1.3302
17156TIP3   OH272882   1.641   4.271   2.147  0.0196 -0.3435  0.1838
17156TIP3    H172883   1.578   4.314   2.204 -0.1402  0.1049 -0.3308
17156TIP3    H272884   1.711   4.243   2.206  1.3898  2.9181  0.2195
17157TIP3   OH272885   6.256   5.699  17.152 -0.3113  0.1970 -0.2483
17157TIP3    H172886   6.256   5.723  17.245 -1.4089 -2.5228  0.5274
17157TIP3    H272887   6.346   5.668  17.136 -0.0509  0.9059 -0.1491
17158TIP3   OH272888   3.480   2.925  14.845  0.5692 -0.2875  0.7002
17158TIP3    H172889   3.491   2.853  14.908 -1.8427  1.9775  3.8671
17158TIP3    H272890   3.562   2.973  14.849  0.5024 -0.2648  2.0256
17159TIP3   OH272891   3.729   4.225  12.029 -0.0838 -0.0020  0.1556
17159TIP3    H172892   3.674   4.282  11.975  2.1044  1.2058 -0.8484
17159TIP3    H272893   3.709   4.249  12.119  1.1502  2.6978 -0.2664
17160TIP3   OH272894   1.438   0.729   2.558  0.0849 -0.5889  0.2848
17160TIP3    H172895   1.346   0.756   2.555  0.3273  0.1054 -3.7712
17160TIP3    H272896   1.487   0.811   2.546  1.1233 -1.3215 -0.5773
17161TIP3   OH272897   5.198   3.727  11.117 -0.1448 -0.2580 -0.0631
17161TIP3    H172898   5.258   3.652  11.115  3.1959  2.2382  0.9935
17161TIP3    H272899   5.255   3.802  11.102 -3.4286  2.0827 -1.1697
17162TIP3   OH272900   2.412   4.041  12.578  0.8759  0.0822 -0.1779
17162TIP3    H172901   2.338   4.101  12.565  0.9018  0.1906  0.1786
17162TIP3    H272902   2.489   4.096  12.564  0.8936  0.0361 -0.2606
17163TIP3   OH272903   1.380   1.816   4.058 -0.2555 -0.0342 -0.4708
17163TIP3    H172904   1.378   1.724   4.088 -0.3201 -0.6497 -2.3117
17163TIP3    H272905   1.431   1.862   4.124  1.0059 -1.6813 -0.2765
17164TIP3   OH272906   6.467   2.927  12.848 -0.0433  0.2568 -0.4215
17164TIP3    H172907   6.434   2.967  12.929 -0.9179  0.4276 -0.8567
17164TIP3    H272908   6.488   2.837  12.872 -2.6266 -0.4251 -0.5746
17165TIP3   OH272909   2.543   1.548  17.162 -0.7625 -0.1387  0.1492
17165TIP3    H172910   2.524   1.591  17.078  0.1838 -0.4801 -0.2362
17165TIP3    H272911   2.582   1.617  17.215 -2.5630  0.4324  0.7760
17166TIP3   OH272912   2.521   0.073   6.357 -0.7765 -0.0353 -0.2176
17166TIP3    H172913   2.465   0.044   6.429 -1.0437 -0.6848 -0.6907
17166TIP3    H272914   2.546   0.163   6.381 -1.4814  0.0225  0.3081
17167TIP3   OH272915   5.418   5.643   3.887  0.5342  0.0545 -0.1801
17167TIP3    H172916   5.452   5.630   3.976  0.9293  0.3340 -0.2914
17167TIP3    H272917   5.452   5.568   3.838  1.2829  0.5078 -0.3731
17168TIP3   OH272918   5.304   5.600   0.108 -0.8210 -0.3133 -0.2001
17168TIP3    H172919   5.234   5.659   0.083 -1.9010 -1.4618  0.0712
17168TIP3    H272920   5.290   5.583   0.201  1.0056  1.0302  0.3456
17169TIP3   OH272921   2.530   1.972   5.952 -0.5644 -0.9206 -0.6725
17169TIP3    H172922   2.618   1.947   5.924  0.0885  0.2900  0.2450
17169TIP3    H272923   2.507   1.908   6.019  0.7603  0.3657  1.0704
17170TIP3   OH272924   1.124   0.050   3.966  0.3506  0.0292  0.0283
17170TIP3    H172925   1.125   0.029   3.872  0.5230 -3.4442  0.7375
17170TIP3    H272926   1.042   0.098   3.978 -0.0791 -0.1890 -1.7602
17171TIP3   OH272927   1.041   4.009  12.947 -0.0844  0.3628  0.0635
17171TIP3    H172928   0.965   3.954  12.966 -0.0446  0.4287  0.4322
17171TIP3    H272929   1.116   3.949  12.951 -0.2456  0.0184 -1.7040
17172TIP3   OH272930   6.413   3.947  11.555  0.4785  0.3323 -0.1733
17172TIP3    H172931   6.502   3.978  11.534  0.5902  1.3685  1.7034
17172TIP3    H272932   6.359   4.026  11.549  0.1568  0.2288  1.2948
17173TIP3   OH272933   2.877   3.086  12.310  0.2886  0.3566 -0.1794
17173TIP3    H172934   2.788   3.119  12.317 -0.0429 -0.4011 -0.8545
17173TIP3    H272935   2.882   3.015  12.375  0.6294  0.8965  0.3920
17174TIP3   OH272936   6.265   4.319  16.639 -0.4105 -0.2108  0.4971
17174TIP3    H172937   6.278   4.380  16.712  1.4663  1.3905 -1.1213
17174TIP3    H272938   6.335   4.254  16.649 -0.8692 -0.6626  0.7835
17175TIP3   OH272939   0.341   0.032   1.832 -0.0553  0.6642 -0.3775
17175TIP3    H172940   0.291  -0.038   1.875 -0.9641  1.3996 -0.2065
17175TIP3    H272941   0.289   0.056   1.756  0.0071  1.4698 -0.1758
17176TIP3   OH272942   5.255   4.539  17.227  0.3291 -0.0945 -0.4080
17176TIP3    H172943   5.209   4.576  17.152 -0.6140  0.5632  0.4769
17176TIP3    H272944   5.348   4.558  17.210  0.0127  1.1392 -0.8230
17177TIP3   OH272945   0.650   1.974   0.756 -0.8224 -0.2753 -0.5478
17177TIP3    H172946   0.650   2.065   0.727 -0.3065 -0.3674 -0.8546
17177TIP3    H272947   0.709   1.973   0.831  0.4075 -0.6382 -1.4942
17178TIP3   OH272948   3.311   5.140   0.783  0.6236  0.2167 -0.2440
17178TIP3    H172949   3.362   5.202   0.731  2.0082 -0.8176 -0.1536
17178TIP3    H272950   3.278   5.077   0.719  0.5658  0.1426 -0.1424
17179TIP3   OH272951   4.209   4.206  15.209 -0.3959  0.2550  0.1319
17179TIP3    H172952   4.305   4.200  15.211 -0.3217  1.4053  2.5878
17179TIP3    H272953   4.180   4.123  15.172  1.4943 -1.0841  1.5962
17180TIP3   OH272954   0.177   4.976   3.761 -0.1833  0.1804  0.1040
17180TIP3    H172955   0.226   5.053   3.791  1.2879 -1.3051  1.6361
17180TIP3    H272956   0.115   5.011   3.697  1.4810  2.4319 -0.3677
17181TIP3   OH272957   1.112   5.145  16.860 -0.1351  0.0538  0.4779
17181TIP3    H172958   1.088   5.052  16.863  1.0588 -0.2250  2.1512
17181TIP3    H272959   1.206   5.146  16.872  0.0394  1.4362 -0.8426
17182TIP3   OH272960   5.372   6.730  15.748  0.0161  0.7209 -0.2725
17182TIP3    H172961   5.280   6.703  15.755 -0.0341  1.1748  0.8313
17182TIP3    H272962   5.368   6.825  15.737  0.4461  1.0721  2.4059
17183TIP3   OH272963   1.352   0.835  11.752 -0.0422 -0.1125 -0.0396
17183TIP3    H172964   1.329   0.919  11.713  1.1629  0.7303  1.0081
17183TIP3    H272965   1.448   0.831  11.746 -0.0816 -1.3882 -0.0213
17184TIP3   OH272966   0.398   1.162   5.193 -0.3867 -0.0313 -0.3408
17184TIP3    H172967   0.333   1.225   5.224  1.3080  1.2957  0.5941
17184TIP3    H272968   0.351   1.111   5.127 -1.8166  2.1911 -1.1358
17185TIP3   OH272969   2.583   2.753   0.599  0.2198  0.0474  0.5555
17185TIP3    H172970   2.543   2.804   0.528 -0.5284 -0.7385  0.3998
17185TIP3    H272971   2.509   2.709   0.641  0.9163 -1.3635  0.3235
17186TIP3   OH272972   4.225   0.097   1.303  0.1970  0.4293 -0.2265
17186TIP3    H172973   4.310   0.054   1.299  0.1410  0.4429 -1.8705
17186TIP3    H272974   4.237   0.178   1.254 -0.9293  0.1462 -0.9714
17187TIP3   OH272975   6.322   2.098  13.538 -0.2316 -0.2328  0.3598
17187TIP3    H172976   6.367   2.154  13.601  0.2874 -0.8500  0.5452
17187TIP3    H272977   6.320   2.150  13.457  1.7187 -0.5762  0.0630
17188TIP3   OH272978   3.705   1.149   3.488  0.0788 -0.5168  0.2232
17188TIP3    H172979   3.778   1.205   3.461  1.6857 -1.9571  1.5656
17188TIP3    H272980   3.628   1.205   3.477  1.7411  2.3367  2.4909
17189TIP3   OH272981   4.271   2.158   4.555  0.1052  0.2085 -0.8017
17189TIP3    H172982   4.235   2.220   4.492  0.4155  1.8136  0.5674
17189TIP3    H272983   4.218   2.171   4.634 -1.0148 -2.5565 -1.0408
17190TIP3   OH272984   5.526   6.483   3.686 -0.7010  0.7764 -0.6212
17190TIP3    H172985   5.506   6.573   3.662  1.1440  1.1513 -0.8842
17190TIP3    H272986   5.530   6.436   3.603 -0.5553  0.7030 -0.5742
17191TIP3   OH272987   6.445   3.165   4.991 -0.1543 -0.0988  0.2137
17191TIP3    H172988   6.482   3.082   5.021  0.6202  0.1213 -0.1271
17191TIP3    H272989   6.448   3.160   4.896 -1.2872 -0.1972  0.1691
17192TIP3   OH272990   4.587   3.876  15.497  0.4173  0.5136  0.0758
17192TIP3    H172991   4.584   3.954  15.551  2.0431  0.9177 -0.3905
17192TIP3    H272992   4.668   3.832  15.523 -0.7459 -1.3094  0.7193
17193TIP3   OH272993   1.553   2.510   2.032 -0.5306  0.0908  0.3136
17193TIP3    H172994   1.466   2.475   2.051 -0.9361  0.7836 -0.2790
17193TIP3    H272995   1.537   2.597   1.997  0.3640 -0.1192 -0.6233
17194TIP3   OH272996   2.742   4.912   2.839  0.4298 -0.3815  0.2024
17194TIP3    H172997   2.683   4.873   2.903  1.4483 -0.7004  0.9617
17194TIP3    H272998   2.829   4.889   2.870  0.9458 -0.3668 -1.1935
17195TIP3   OH272999   2.513   1.690  10.665  0.5206 -0.0384 -0.0880
17195TIP3    H173000   2.578   1.663  10.600  0.3419 -0.9813  0.1215
17195TIP3    H273001   2.447   1.738  10.615  0.3229 -0.8573 -0.6179
17196TIP3   OH273002   5.561   3.986   5.623 -1.2649  0.0420  0.0565
17196TIP3    H173003   5.624   3.917   5.600 -1.4898 -0.4836  0.9612
17196TIP3    H273004   5.613   4.053   5.666 -1.1843  0.0205 -0.0071
17197TIP3   OH273005   3.798   4.804  13.951  0.2783  0.0729  0.3581
17197TIP3    H173006   3.874   4.801  14.009  0.5112  1.2613  0.1309
17197TIP3    H273007   3.788   4.715  13.919  0.3661 -0.5120  1.9366
17198TIP3   OH273008   4.101   5.205   6.054 -0.0925  0.3704 -0.1219
17198TIP3    H173009   4.080   5.194   6.147 -1.0642 -2.6836 -0.6487
17198TIP3    H273010   4.016   5.210   6.011  0.3525  2.2533 -0.8516
17199TIP3   OH273011   3.912   0.577   1.502  0.1213  0.4984 -0.6438
17199TIP3    H173012   3.905   0.484   1.481 -0.0163  0.4188 -0.2476
17199TIP3    H273013   3.970   0.612   1.435  1.5528 -0.2128  0.1881
17200TIP3   OH273014   6.286   2.726   1.725 -0.9195 -0.0082  0.3219
17200TIP3    H173015   6.301   2.673   1.803 -1.9345 -0.0279  0.5139
17200TIP3    H273016   6.367   2.720   1.675 -0.2209  0.1062  1.4389
17201TIP3   OH273017   0.669   0.427  15.527  0.0969  0.0055  0.0214
17201TIP3    H173018   0.580   0.391  15.524 -0.3902  1.2550 -0.6544
17201TIP3    H273019   0.658   0.519  15.505  1.4859  0.3138  0.6161
17202TIP3   OH273020   1.109   0.642  16.563  0.0642  0.4783  0.4341
17202TIP3    H173021   1.127   0.687  16.481 -1.9218  0.5965  0.0552
17202TIP3    H273022   1.176   0.573  16.568 -0.8136 -0.6065 -2.0932
17203TIP3   OH273023   0.713   6.634  12.370  0.4092 -0.1183 -0.0348
17203TIP3    H173024   0.804   6.605  12.370  0.4021 -0.1687 -1.5774
17203TIP3    H273025   0.665   6.560  12.406  0.9886 -0.0448  0.9023
17204TIP3   OH273026   5.257   3.961  13.560  0.3799  0.0065 -0.3180
17204TIP3    H173027   5.297   3.886  13.516 -0.7947 -0.5864 -0.3904
17204TIP3    H273028   5.209   3.923  13.634 -0.9971  0.5662 -0.9066
17205TIP3   OH273029   1.728   5.441   3.204  0.1835  0.3175 -0.1433
17205TIP3    H173030   1.800   5.476   3.257 -1.1754  1.3555  1.0386
17205TIP3    H273031   1.702   5.361   3.249  0.9728 -0.3827 -0.9070
17206TIP3   OH273032   3.016   0.189   1.865  0.0715  0.3708  0.2061
17206TIP3    H173033   3.061   0.231   1.939 -0.0109  0.9901 -0.0960
17206TIP3    H273034   3.070   0.210   1.789 -0.1453  0.1992  0.0036
17207TIP3   OH273035   6.637   3.220  13.774 -0.4375 -0.3452 -0.0902
17207TIP3    H173036   6.709   3.231  13.711 -1.3631 -3.4099 -1.7627
17207TIP3    H273037   6.640   3.128  13.799 -1.8980  0.1858  2.1881
17208TIP3   OH273038   0.845   5.072   6.373  0.0907  0.0395  0.4187
17208TIP3    H173039   0.852   5.072   6.469  0.5856 -1.6379  0.3930
17208TIP3    H273040   0.764   5.025   6.355  0.4803 -0.4708 -0.0173
17209TIP3   OH273041   5.682   0.547   3.713  0.3206 -0.2558  0.7383
17209TIP3    H173042   5.595   0.522   3.683  0.1352  2.2235 -0.9703
17209TIP3    H273043   5.679   0.537   3.808 -1.3642 -1.5485  0.5646
17210TIP3   OH273044   1.342   0.591  11.443  0.0622 -0.1436  0.1935
17210TIP3    H173045   1.390   0.599  11.361 -1.4674  0.4882 -0.6487
17210TIP3    H273046   1.405   0.551  11.504  1.4460  0.1050 -1.0567
17211TIP3   OH273047   4.743   0.994   5.434  0.5590  0.5624 -0.0216
17211TIP3    H173048   4.826   0.949   5.451  0.6573  0.9081  0.4306
17211TIP3    H273049   4.745   1.013   5.340  0.9083  0.4067 -0.0468
17212TIP3   OH273050   1.814   1.199  11.398 -0.6337  0.0673  0.6749
17212TIP3    H173051   1.817   1.108  11.426 -0.8916 -0.0085  0.4653
17212TIP3    H273052   1.781   1.196  11.308 -0.1097  0.3287  0.4709
17213TIP3   OH273053   2.811   5.650  15.216  0.4292  0.0992 -0.1750
17213TIP3    H173054   2.819   5.603  15.299  0.5177  1.2611  0.4880
17213TIP3    H273055   2.717   5.660  15.203  0.2872 -2.6325 -1.7065
17214TIP3   OH273056   6.690   5.510  16.333 -0.6168 -0.2301 -0.4281
17214TIP3    H173057   6.673   5.424  16.372 -0.4166 -0.2816 -0.4540
17214TIP3    H273058   6.751   5.492  16.262 -0.5735 -0.0650 -0.4301
17215TIP3   OH273059   0.270   5.357  12.036 -0.1974 -0.2020 -0.1931
17215TIP3    H173060   0.251   5.271  12.073  1.5825  0.0091  1.2816
17215TIP3    H273061   0.287   5.340  11.943  1.2327 -1.6064  0.3039
17216TIP3   OH273062   6.695   5.585   5.808  0.0537 -0.1891  0.3140
17216TIP3    H173063   6.676   5.672   5.773 -1.3095 -1.3494 -1.9721
17216TIP3    H273064   6.786   5.589   5.836 -0.4549  2.4319  1.7376
17217TIP3   OH273065   0.041   2.357  16.186 -0.2982  0.0690  0.0840
17217TIP3    H173066   0.071   2.354  16.095 -1.3443  1.9730 -0.3652
17217TIP3    H273067  -0.048   2.323  16.183 -0.2954  0.0303  0.4216
17218TIP3   OH273068   3.744   4.038   3.716  0.6005 -0.1913  0.0184
17218TIP3    H173069   3.703   4.034   3.630  0.0118 -0.0090  0.2826
17218TIP3    H273070   3.682   3.994   3.774 -0.8146  2.9552  1.0020
17219TIP3   OH273071   5.653   4.544   5.484  0.4409  0.1338 -0.3490
17219TIP3    H173072   5.617   4.614   5.430 -1.5746 -0.7928 -0.2387
17219TIP3    H273073   5.746   4.541   5.461  0.3960  2.3330 -0.8922
17220TIP3   OH273074   5.456   2.053   2.578  0.1258  0.3480 -0.0073
17220TIP3    H173075   5.363   2.059   2.559 -0.0682 -1.8035  0.1940
17220TIP3    H273076   5.499   2.048   2.493 -0.0298  0.1578 -0.0727
17221TIP3   OH273077   0.801   3.140   1.562 -0.5163 -0.3731 -0.0098
17221TIP3    H173078   0.803   3.045   1.575 -0.6156 -0.2702  0.7799
17221TIP3    H273079   0.710   3.159   1.542 -1.0411 -0.1128  2.4848
17222TIP3   OH273080   4.740   1.192   5.650  0.1986  0.2762 -0.6438
17222TIP3    H173081   4.653   1.228   5.636 -0.3287 -0.5575  0.4444
17222TIP3    H273082   4.762   1.150   5.566 -0.4914  0.3901 -0.8831
17223TIP3   OH273083   0.727   1.574  16.060 -0.1813  0.4783 -0.0791
17223TIP3    H173084   0.662   1.642  16.080  0.9849  1.5609  0.1268
17223TIP3    H273085   0.724   1.565  15.965 -2.7978 -1.6947  0.1654
17224TIP3   OH273086   0.956   6.055  14.299 -0.2858  0.3848 -0.2255
17224TIP3    H173087   0.935   6.113  14.373 -2.1231  1.1630 -1.3270
17224TIP3    H273088   0.877   6.004  14.286  0.3227 -0.3289 -1.1522
17225TIP3   OH273089   2.509   0.532   2.581 -0.5747 -0.0388 -0.1111
17225TIP3    H173090   2.596   0.518   2.543  1.1962  1.6855  3.0917
17225TIP3    H273091   2.499   0.627   2.586 -1.1346 -0.1825  2.7169
17226TIP3   OH273092   0.409   4.485   0.845 -0.0270 -0.3642  0.0238
17226TIP3    H173093   0.389   4.578   0.842 -1.8423 -0.7769 -2.2793
17226TIP3    H273094   0.389   4.459   0.935  0.5536  1.4447  0.6990
17227TIP3   OH273095   3.324   5.650  10.747  0.2267 -0.2911  0.2229
17227TIP3    H173096   3.234   5.622  10.731  0.9814 -2.1476 -0.8626
17227TIP3    H273097   3.332   5.734  10.702 -1.1701  0.2245  0.9305
17228TIP3   OH273098   2.443   3.787   3.793 -0.2787  0.2938 -0.2471
17228TIP3    H173099   2.493   3.719   3.838 -1.4410 -0.8983 -0.7179
17228TIP3    H273100   2.464   3.868   3.840  1.2950 -0.3458  0.1777
17229TIP3   OH273101   5.815   1.411  11.164  0.1820  0.3377  0.1629
17229TIP3    H173102   5.733   1.416  11.213 -0.1077  1.7831 -0.4298
17229TIP3    H273103   5.841   1.502  11.151  0.9507 -0.0538 -1.2065
17230TIP3   OH273104   0.554   4.486  15.389  0.1575  0.3766  0.1164
17230TIP3    H173105   0.618   4.416  15.380  1.1136  1.2918 -0.3579
17230TIP3    H273106   0.470   4.446  15.365  0.8155 -0.3945 -0.9351
17231TIP3   OH273107   3.395   4.101  17.149  0.1979  0.1249 -0.3347
17231TIP3    H173108   3.305   4.100  17.182  0.8611 -3.0923  1.5808
17231TIP3    H273109   3.386   4.123  17.056 -2.8074 -2.3536 -0.7007
17232TIP3   OH273110   4.393   6.519  14.833 -0.6821 -0.6241  0.3113
17232TIP3    H173111   4.450   6.521  14.756 -0.0053  2.0374  0.8160
17232TIP3    H273112   4.305   6.533  14.799 -0.2920  1.3561  0.0584
17233TIP3   OH273113   5.744   5.384   1.914  0.0351 -0.4029  0.1828
17233TIP3    H173114   5.767   5.357   2.003 -0.8840  1.1054  0.8921
17233TIP3    H273115   5.748   5.480   1.916 -0.6395 -0.3299 -1.2170
17234TIP3   OH273116   2.496   6.160  12.191 -0.4623  0.1847 -0.1390
17234TIP3    H173117   2.586   6.141  12.168 -0.3706  1.0564 -0.5042
17234TIP3    H273118   2.444   6.116  12.123 -0.2846  0.4557 -0.4507
17235TIP3   OH273119   6.133   0.556  14.307  0.1164  0.6495  0.3975
17235TIP3    H173120   6.170   0.468  14.298 -0.0739  0.5710  0.3882
17235TIP3    H273121   6.065   0.547  14.374  0.4653  0.9021  0.7885
17236TIP3   OH273122   1.369   4.335  12.997  0.0879 -0.2590 -0.0164
17236TIP3    H173123   1.282   4.373  12.989  1.0183  2.8469  3.1466
17236TIP3    H273124   1.418   4.370  12.923 -0.7116 -0.1547 -0.5005
17237TIP3   OH273125   5.040   2.057  11.883 -0.0028  0.2520 -0.4544
17237TIP3    H173126   5.045   2.028  11.792  0.5308  0.8608 -0.6282
17237TIP3    H273127   4.985   1.992  11.926  0.6286 -0.6458 -0.9693
17238TIP3   OH273128   0.149   2.625   5.205  0.3753  0.3676 -0.2606
17238TIP3    H173129   0.127   2.553   5.146 -1.9922  0.5223  0.4066
17238TIP3    H273130   0.228   2.595   5.251  1.5700 -0.2268 -2.6424
17239TIP3   OH273131   3.170   4.761   3.501  0.3958  0.0990 -0.3208
17239TIP3    H173132   3.198   4.708   3.427  1.4459 -0.2642  0.3119
17239TIP3    H273133   3.129   4.699   3.561  0.8137  0.1449  0.0182
17240TIP3   OH273134   4.872   6.300  11.538  0.4628 -0.7195 -0.1629
17240TIP3    H173135   4.831   6.279  11.453 -0.3291  0.6807 -0.1415
17240TIP3    H273136   4.966   6.291  11.522  0.2255 -3.1418 -0.4440
17241TIP3   OH273137   2.249   3.935  14.424  0.2078 -0.3939  0.7388
17241TIP3    H173138   2.191   4.004  14.457  0.8569  0.1124  0.8303
17241TIP3    H273139   2.241   3.864  14.487 -1.8964 -1.1463 -0.3277
17242TIP3   OH273140   3.632   4.504  14.462  0.2256 -0.4646  0.5148
17242TIP3    H173141   3.611   4.519  14.554  1.7014 -0.6644  0.8998
17242TIP3    H273142   3.676   4.584  14.434  0.1735 -0.5739  0.1114
17243TIP3   OH273143   6.430   3.011   0.482 -0.1669 -0.1323  0.4583
17243TIP3    H173144   6.485   3.089   0.489 -2.0269  1.3991 -1.3808
17243TIP3    H273145   6.378   3.012   0.562  1.1101 -0.5295  1.3088
17244TIP3   OH273146   2.280   5.323  13.308  0.4062  0.0512 -0.3035
17244TIP3    H173147   2.247   5.412  13.295 -0.6492 -0.6305 -2.5649
17244TIP3    H273148   2.375   5.331  13.301  0.4134  1.2050  0.9170
17245TIP3   OH273149   0.270   1.035   1.435 -0.5291  0.0806  0.0276
17245TIP3    H173150   0.333   1.105   1.453  0.2431 -0.2356 -1.3013
17245TIP3    H273151   0.230   1.061   1.352  0.7427 -1.7070 -1.1822
17246TIP3   OH273152   3.311   1.553   2.798  0.2642  0.0804  0.6978
17246TIP3    H173153   3.373   1.537   2.869  2.5651  1.5097 -0.9393
17246TIP3    H273154   3.238   1.598   2.840  1.2905  0.3105  2.2801
17247TIP3   OH273155   2.471   4.438  13.887 -0.0761 -0.2931 -0.2632
17247TIP3    H173156   2.507   4.483  13.811  1.2001 -1.3517 -0.3059
17247TIP3    H273157   2.456   4.348  13.857  0.3745 -0.6989  0.7155
17248TIP3   OH273158   3.723   2.788   4.020 -0.0756 -0.1292 -0.5184
17248TIP3    H173159   3.675   2.826   3.947 -0.0302 -3.0963 -2.1847
17248TIP3    H273160   3.719   2.693   4.004  3.4682 -0.6206  1.0977
17249TIP3   OH273161   2.463   2.621   2.310 -0.9437 -0.6400  0.0151
17249TIP3    H173162   2.440   2.680   2.382 -0.8659  1.4085 -1.6047
17249TIP3    H273163   2.417   2.657   2.234 -0.7765 -2.5944 -1.0339
17250TIP3   OH273164   1.820   3.110  12.649 -0.1378 -0.0748 -0.2870
17250TIP3    H173165   1.782   3.165  12.580 -0.2742 -0.5133 -0.5598
17250TIP3    H273166   1.811   3.163  12.728  1.1073  0.9387 -0.7939
17251TIP3   OH273167   0.778   1.155   1.361  0.0284 -0.2326  0.2209
17251TIP3    H173168   0.806   1.148   1.270 -2.1441 -2.1317 -0.3512
17251TIP3    H273169   0.859   1.163   1.411  1.2393  0.9308 -1.8582
17252TIP3   OH273170   0.091   0.351  16.622  0.1718  0.0615  0.2171
17252TIP3    H173171   0.031   0.318  16.556  0.6444 -0.9928  0.2996
17252TIP3    H273172   0.046   0.425  16.662 -0.9338 -0.5166  0.0527
17253TIP3   OH273173   3.718   3.822   0.267  0.1117 -0.3321  0.3701
17253TIP3    H173174   3.734   3.885   0.197 -0.0888 -0.7129 -0.0201
17253TIP3    H273175   3.624   3.828   0.283  0.5718  1.7575  2.5177
17254TIP3   OH273176   3.536   4.637  15.550  0.4264 -0.0276  0.0435
17254TIP3    H173177   3.526   4.572  15.481  0.8161  0.2354 -0.2622
17254TIP3    H273178   3.455   4.689  15.546 -0.5299 -1.3835  1.2389
17255TIP3   OH273179   6.531   2.059   5.034  0.1249  0.3562 -0.7452
17255TIP3    H173180   6.506   2.002   4.960  0.0215  0.2385 -0.6210
17255TIP3    H273181   6.471   2.133   5.029 -0.1906  0.1218 -0.5053
17256TIP3   OH273182   5.746   1.599  14.827  0.1154  0.9433  0.3984
17256TIP3    H173183   5.663   1.646  14.830 -0.0903  0.5565  0.8050
17256TIP3    H273184   5.790   1.622  14.909 -1.5138 -2.3223  2.3378
17257TIP3   OH273185   5.087   3.347   5.515 -0.4004  0.3744  0.0321
17257TIP3    H173186   5.035   3.335   5.436 -0.3641  2.0088 -0.2666
17257TIP3    H273187   5.028   3.390   5.577  0.3783  1.6254 -0.0731
17258TIP3   OH273188   2.087   2.383   2.981  0.0166 -0.6759 -0.5781
17258TIP3    H173189   2.162   2.327   2.958 -0.3187 -1.8173  1.0656
17258TIP3    H273190   2.124   2.451   3.038 -0.4052 -1.9522  1.2330
17259TIP3   OH273191   1.551   3.925   3.277  0.7766 -0.0288 -0.5091
17259TIP3    H173192   1.509   3.948   3.359  0.8531 -2.6107  0.3178
17259TIP3    H273193   1.620   3.991   3.265  2.5104 -1.1149  2.8738
17260TIP3   OH273194   6.498   1.412   2.433  0.1755 -0.3517 -0.1225
17260TIP3    H173195   6.424   1.425   2.493  0.9383  1.0042  0.5485
17260TIP3    H273196   6.528   1.323   2.450 -0.9197 -0.6954  0.0301
17261TIP3   OH273197   6.328   5.799   2.113  0.6996 -0.2886  0.0215
17261TIP3    H173198   6.386   5.760   2.048 -1.7665 -0.5493 -2.1094
17261TIP3    H273199   6.267   5.852   2.061 -1.2665 -0.4378  2.1249
17262TIP3   OH273200   3.768   1.107  12.778  0.9998  0.3026  0.0554
17262TIP3    H173201   3.806   1.184  12.820  1.3363  0.6927 -0.9589
17262TIP3    H273202   3.833   1.080  12.712  0.9836 -0.9743  0.5429
17263TIP3   OH273203   0.125   2.696  11.892 -0.0199  0.3075 -0.0654
17263TIP3    H173204   0.178   2.624  11.926 -0.7551 -0.1172  0.1725
17263TIP3    H273205   0.063   2.716  11.962  0.1973  1.1863 -0.1213
17264TIP3   OH273206   0.645   4.433  14.419  0.9172  0.1163  0.3638
17264TIP3    H173207   0.684   4.506  14.465 -0.9192  1.1101  0.4011
17264TIP3    H273208   0.668   4.446  14.327  1.0777  0.4278  0.4511
17265TIP3   OH273209   1.099   0.719   0.675 -1.0566 -0.4330 -0.0923
17265TIP3    H173210   1.131   0.726   0.585  0.4079 -1.6310  0.3132
17265TIP3    H273211   1.022   0.776   0.678 -1.2722 -0.5763 -2.1687
17266TIP3   OH273212   1.875   4.170   4.462  0.0021  0.1799  0.5943
17266TIP3    H173213   1.836   4.092   4.501 -0.2700 -0.1675 -0.3583
17266TIP3    H273214   1.811   4.198   4.396  0.5016  0.7045  0.3322
17267TIP3   OH273215   1.789   0.206  15.487  0.4655  0.8578 -0.8633
17267TIP3    H173216   1.822   0.182  15.573 -1.3018 -0.3210 -0.4861
17267TIP3    H273217   1.826   0.292  15.470  0.7828  1.1267  1.0968
17268TIP3   OH273218   6.181   4.270   0.335  0.5603 -0.0795 -0.1802
17268TIP3    H173219   6.143   4.347   0.294  0.4548 -0.6877 -1.2394
17268TIP3    H273220   6.204   4.299   0.423  0.0766  1.0225 -0.4049
17269TIP3   OH273221   4.526   3.739   3.978 -0.2866 -0.3924  0.4753
17269TIP3    H173222   4.455   3.804   3.972  0.4601  0.4712  0.8691
17269TIP3    H273223   4.604   3.791   3.998  0.3034 -1.4270  0.8928
17270TIP3   OH273224   0.798   6.375  16.486  0.0743 -0.5537 -1.0198
17270TIP3    H173225   0.850   6.451  16.462  1.2951 -1.6295 -1.8954
17270TIP3    H273226   0.799   6.375  16.582 -2.1694  1.9904 -0.9574
17271TIP3   OH273227   5.256   5.211  15.868  0.3355  0.1795 -0.2509
17271TIP3    H173228   5.280   5.278  15.932 -0.0588 -1.2743  1.4589
17271TIP3    H273229   5.246   5.258  15.785  2.0412  1.8989  0.5075
17272TIP3   OH273230   0.598   0.765   5.536  0.3670  0.1316  0.5745
17272TIP3    H173231   0.539   0.805   5.472 -0.7670 -0.0880  1.4631
17272TIP3    H273232   0.686   0.784   5.503 -0.2003 -0.8869 -1.5891
17273TIP3   OH273233   4.295   0.039  13.700  0.0724  0.5107 -0.1155
17273TIP3    H173234   4.258  -0.033  13.648 -0.2473  0.7168 -0.1748
17273TIP3    H273235   4.249   0.033  13.784 -0.4542  1.0802 -0.3647
17274TIP3   OH273236   6.322   1.324   1.430 -0.3185  0.4930  0.0416
17274TIP3    H173237   6.296   1.259   1.496  0.3328 -1.4259 -1.5270
17274TIP3    H273238   6.297   1.284   1.346 -0.9855  2.8042 -0.9033
17275TIP3   OH273239   6.425   5.277   1.530 -0.0453 -0.4665  0.3310
17275TIP3    H173240   6.374   5.321   1.598 -0.6633 -1.0849  0.2693
17275TIP3    H273241   6.361   5.225   1.481  0.3023  0.3937 -1.0768
17276TIP3   OH273242   1.926   2.505   4.238  0.3586 -0.0718  0.3216
17276TIP3    H173243   1.840   2.476   4.209  1.4051 -1.8107 -1.1266
17276TIP3    H273244   1.936   2.592   4.200 -1.6125  1.0761  2.2923
17277TIP3   OH273245   4.991   4.193  11.602  0.1850 -0.5392  0.1374
17277TIP3    H173246   5.086   4.187  11.592  0.3054  0.2779  0.7679
17277TIP3    H273247   4.963   4.258  11.538  0.2546  0.4470  1.1084
17278TIP3   OH273248   2.005   1.340   1.709 -0.1960  0.7968 -0.2329
17278TIP3    H173249   2.058   1.407   1.666  0.4821  0.7614  0.5305
17278TIP3    H273250   1.953   1.388   1.773  0.6008  0.5481  0.6085
17279TIP3   OH273251   4.877   0.969  10.849 -0.3206 -0.2622 -0.5383
17279TIP3    H173252   4.786   0.967  10.880 -0.0975 -0.5407  0.1047
17279TIP3    H273253   4.869   0.978  10.754 -1.0860 -2.7507 -0.7576
17280TIP3   OH273254   1.489   5.682   4.650 -0.1876 -0.2517  0.3410
17280TIP3    H173255   1.521   5.623   4.718  1.2578  0.8683  0.6677
17280TIP3    H273256   1.454   5.624   4.582  1.4614 -1.5106  0.5276
17281TIP3   OH273257   1.812   2.927  13.343  0.4162  0.6382 -0.2117
17281TIP3    H173258   1.719   2.907  13.346  0.9275 -1.8301  0.0978
17281TIP3    H273259   1.830   2.971  13.426 -0.0664 -0.7374  0.6305
17282TIP3   OH273260   5.945   2.851  16.878 -0.1098  0.2031  0.7020
17282TIP3    H173261   5.892   2.773  16.897  1.7636 -1.4730 -0.7787
17282TIP3    H273262   5.880   2.921  16.868 -2.0260 -1.6517 -0.3835
17283TIP3   OH273263   0.580   5.332  16.881 -0.2164  0.5565 -0.1490
17283TIP3    H173264   0.561   5.298  16.794 -0.5421  1.5572 -0.4772
17283TIP3    H273265   0.660   5.286  16.908 -0.2169  0.1095 -0.8909
17284TIP3   OH273266   1.743   4.046  11.311 -0.6163 -0.1215 -0.1145
17284TIP3    H173267   1.826   4.043  11.359 -1.1926 -2.1679  0.8217
17284TIP3    H273268   1.676   4.047  11.380 -1.4175 -0.9204 -0.8785
17285TIP3   OH273269   0.919   6.003  15.426 -0.3422 -0.7754 -0.4971
17285TIP3    H173270   0.979   5.981  15.497  0.5367  2.1987 -0.2394
17285TIP3    H273271   0.837   5.959  15.449  0.1862 -0.5386  1.9264
17286TIP3   OH273272   0.984   1.024   2.378 -0.4369  0.1288  0.3043
17286TIP3    H173273   1.062   1.073   2.403 -0.7879  1.5935 -1.3331
17286TIP3    H273274   0.920   1.045   2.446  0.1959 -0.0915  0.9791
17287TIP3   OH273275   6.119   0.578  11.252  0.3091 -0.3814 -0.3498
17287TIP3    H173276   6.075   0.660  11.229  0.2631 -0.4570 -0.5309
17287TIP3    H273277   6.048   0.515  11.264  0.1817  0.1843  2.1923
17288TIP3   OH273278   1.187   0.099  13.797 -0.5505  0.0946 -0.1226
17288TIP3    H173279   1.277   0.068  13.792 -0.6059 -0.5036  2.1771
17288TIP3    H273280   1.174   0.149  13.716  1.8232  0.1624 -0.4869
17289TIP3   OH273281   6.308   5.452  11.141  0.0784  0.7864 -0.1117
17289TIP3    H173282   6.238   5.431  11.079  1.2839 -0.3754 -1.1271
17289TIP3    H273283   6.267   5.510  11.205 -2.1382 -0.8766  0.0285
17290TIP3   OH273284   3.090   3.393  11.461 -0.3683 -0.8750  0.1764
17290TIP3    H173285   3.073   3.368  11.370 -0.4182  1.2621 -0.4285
17290TIP3    H273286   3.186   3.395  11.467 -0.3681  0.4413 -0.2497
17291TIP3   OH273287   0.279   2.184  13.935  0.5312  0.1188 -0.1786
17291TIP3    H173288   0.285   2.278  13.953  2.6999  0.0310 -0.3423
17291TIP3    H273289   0.282   2.142  14.020  1.8848  0.1025 -0.2290
17292TIP3   OH273290   2.930   6.640   0.791 -0.7690 -0.3744 -0.0510
17292TIP3    H173291   2.984   6.650   0.869 -0.9908  0.8825 -0.0388
17292TIP3    H273292   2.969   6.567   0.743  1.7677  1.3319 -0.6935
17293TIP3   OH273293   3.442   5.482   5.636  0.3715 -1.3119 -0.3427
17293TIP3    H173294   3.453   5.491   5.541 -0.1729 -2.1060 -0.4903
17293TIP3    H273295   3.349   5.498   5.650  0.7896  0.6128  0.2891
17294TIP3   OH273296   0.803   0.086   0.713  0.0330 -0.0839  0.1870
17294TIP3    H173297   0.734   0.152   0.712 -1.1411 -1.2827 -1.0257
17294TIP3    H273298   0.882   0.132   0.688 -0.5776  1.0574  0.3444
17295TIP3   OH273299   2.852   1.952   0.233 -0.1416 -0.2387 -0.4348
17295TIP3    H173300   2.856   1.877   0.175  1.5292  0.0651 -0.7139
17295TIP3    H273301   2.924   1.939   0.295 -1.3001 -0.0711  0.9817
17296TIP3   OH273302   6.563   2.861  13.983 -0.4310 -0.0246  0.2107
17296TIP3    H173303   6.522   2.905  14.058 -1.3043 -2.0193  0.9275
17296TIP3    H273304   6.491   2.816  13.940  0.2757  0.1590 -1.1668
17297TIP3   OH273305   5.675   2.982   5.347  0.5810 -0.3604  0.0508
17297TIP3    H173306   5.739   2.915   5.321  1.1453  0.3081 -0.3237
17297TIP3    H273307   5.666   3.038   5.269  1.3611  0.9422  0.8608
17298TIP3   OH273308   0.279   5.261  12.942 -0.3170  0.0875  0.0770
17298TIP3    H173309   0.322   5.279  12.859  0.2557 -0.2331  0.3007
17298TIP3    H273310   0.332   5.307  13.007  0.3657 -1.2217  0.4867
17299TIP3   OH273311   2.040   5.853  13.585  0.1385  0.5277  0.6019
17299TIP3    H173312   2.135   5.857  13.569 -0.4815  2.9682 -2.9535
17299TIP3    H273313   2.023   5.925  13.646  0.5801  0.0387  1.3045
17300TIP3   OH273314   5.603   2.818  15.069  0.2602 -0.0325  0.2990
17300TIP3    H173315   5.678   2.776  15.029 -0.9582 -2.7806  0.7897
17300TIP3    H273316   5.555   2.858  14.996  0.8583 -0.4394 -0.3156
17301TIP3   OH273317   0.185   5.135   2.116  0.2500  0.3461  0.5213
17301TIP3    H173318   0.250   5.187   2.163  0.6800  0.9332 -0.7154
17301TIP3    H273319   0.154   5.072   2.181  2.3485 -0.2192  1.0215
17302TIP3   OH273320   3.914   1.990   0.855 -0.6949 -0.5004 -0.0004
17302TIP3    H173321   3.989   1.951   0.811  0.5070  1.5491  0.1381
17302TIP3    H273322   3.864   2.032   0.785 -0.2414  0.4432  0.2336
17303TIP3   OH273323   2.300   2.309   0.624 -0.1033  0.7040  0.2838
17303TIP3    H173324   2.274   2.331   0.714 -1.0023  0.4977  0.0764
17303TIP3    H273325   2.390   2.277   0.633 -0.2386  0.5375  1.1370
17304TIP3   OH273326   1.079   1.936   0.917 -0.1928  0.2900 -0.1920
17304TIP3    H173327   1.084   1.908   0.826  3.4942  0.9977 -0.3159
17304TIP3    H273328   1.058   1.857   0.966 -0.2996 -0.4941 -1.4828
17305TIP3   OH273329   5.844   1.201   2.739  0.4888  0.2367 -0.0991
17305TIP3    H173330   5.902   1.264   2.783 -2.8699  2.7003  1.0698
17305TIP3    H273331   5.756   1.230   2.762 -1.2477 -3.4860 -1.6386
17306TIP3   OH273332   5.803   1.028  14.720 -0.3463  0.0062 -0.2861
17306TIP3    H173333   5.861   0.954  14.702 -0.2309  0.2850 -1.0605
17306TIP3    H273334   5.741   1.028  14.647 -0.1937  0.8295 -0.4157
17307TIP3   OH273335   6.164   4.163   4.824 -0.4078  0.3589 -0.2087
17307TIP3    H173336   6.195   4.080   4.786  0.9659  0.2262  1.1642
17307TIP3    H273337   6.221   4.230   4.786 -0.9587  0.5653 -0.6621
17308TIP3   OH273338   6.662   2.310   4.624  0.1056 -0.1915 -0.5830
17308TIP3    H173339   6.706   2.298   4.539  2.0742  2.2506  0.0153
17308TIP3    H273340   6.589   2.369   4.605  0.5092  0.3055 -0.6146
17309TIP3   OH273341   2.526   2.672   1.413  0.5531  0.4726  0.5641
17309TIP3    H173342   2.601   2.643   1.360  1.0116  1.0569  0.8850
17309TIP3    H273343   2.547   2.762   1.437  0.0350  0.4336  1.1847
17310TIP3   OH273344   0.714   3.437   4.313  0.4826 -0.3658 -0.7364
17310TIP3    H173345   0.696   3.365   4.253  1.2513 -0.4074 -0.9251
17310TIP3    H273346   0.643   3.434   4.377 -0.3436 -0.3187 -1.6483
17311TIP3   OH273347   1.532   3.276  12.940 -0.0692 -0.1280 -0.0635
17311TIP3    H173348   1.475   3.201  12.951 -1.5882  0.9487 -0.4051
17311TIP3    H273349   1.525   3.298  12.847 -0.7092  1.2592  0.3009
17312TIP3   OH273350   3.874   1.089  14.192  0.1967  0.0828 -0.5185
17312TIP3    H173351   3.907   1.053  14.109  1.0958 -0.2202 -0.0478
17312TIP3    H273352   3.942   1.066  14.256 -1.1868 -1.0244  0.6061
17313TIP3   OH273353   0.989   1.808   2.454  0.6719 -0.4963 -0.2698
17313TIP3    H173354   0.959   1.729   2.499 -0.2298  0.9982  1.8248
17313TIP3    H273355   0.930   1.816   2.379  0.3303 -1.4353 -0.1097
17314TIP3   OH273356   0.356   0.523   1.559  0.1635 -0.1209 -0.2056
17314TIP3    H173357   0.262   0.501   1.562 -0.1928  1.3859 -0.1565
17314TIP3    H273358   0.398   0.451   1.606 -0.8614 -1.3475 -1.1063
17315TIP3   OH273359   0.756   4.679  11.774 -0.5433  0.3651  0.3432
17315TIP3    H173360   0.813   4.751  11.745 -0.9618  0.5453 -0.0498
17315TIP3    H273361   0.760   4.682  11.870  1.3478 -0.6264  0.3185
17316TIP3   OH273362   2.363   4.083  12.064 -0.1061 -0.0265  0.2003
17316TIP3    H173363   2.305   4.056  12.135  0.7684  1.9979  1.7593
17316TIP3    H273364   2.451   4.073  12.100  0.4946 -1.9746 -1.7375
17317TIP3   OH273365   6.215   6.092   0.774  0.0015 -1.0374  0.6115
17317TIP3    H173366   6.258   6.121   0.855 -0.8031 -0.2998  0.7779
17317TIP3    H273367   6.236   5.998   0.768  2.2334 -0.5602  0.3222
17318TIP3   OH273368   3.137   5.625   1.261  0.0627 -0.3520  0.5462
17318TIP3    H173369   3.187   5.660   1.336  0.2035 -2.2673  1.3831
17318TIP3    H273370   3.080   5.697   1.235  3.4834  2.0787 -0.6945
17319TIP3   OH273371   0.718   4.802  14.244  0.8672  0.3839  0.2979
17319TIP3    H173372   0.767   4.853  14.179  0.1683 -0.2285 -0.7239
17319TIP3    H273373   0.631   4.843  14.245  0.2355 -0.8759 -0.6713
17320TIP3   OH273374   6.484   2.224  12.553 -0.4413  0.6757  0.0708
17320TIP3    H173375   6.544   2.298  12.541  1.7791 -1.0958 -0.0113
17320TIP3    H273376   6.541   2.149  12.569 -2.5929 -1.4069 -1.7028
17321TIP3   OH273377   0.680   5.998   2.558  0.6035  0.3778  0.3511
17321TIP3    H173378   0.644   6.038   2.638  2.3774  1.0664  0.8215
17321TIP3    H273379   0.758   5.951   2.588  0.4422 -0.6031 -0.7541
17322TIP3   OH273380   3.992   4.824  11.593 -0.5035  0.2540  0.0158
17322TIP3    H173381   3.969   4.875  11.515 -3.6614 -0.0869  0.6595
17322TIP3    H273382   3.980   4.733  11.566  0.9133  0.0188  0.1529
17323TIP3   OH273383   4.377   1.827  14.528  0.1061  0.2257 -0.2588
17323TIP3    H173384   4.333   1.757  14.479  0.5750  0.3895 -0.9287
17323TIP3    H273385   4.338   1.824  14.615  1.5113 -2.1762  0.3269
17324TIP3   OH273386   4.577   5.695   3.326  0.1714  0.0771  0.0184
17324TIP3    H173387   4.540   5.617   3.285  0.5992 -0.8869  1.4378
17324TIP3    H273388   4.509   5.762   3.315 -0.3542 -0.5880 -0.8677
17325TIP3   OH273389   3.064   4.830   4.642 -0.3013  0.2922 -0.0883
17325TIP3    H173390   3.065   4.867   4.554 -0.1672  0.4484 -0.0240
17325TIP3    H273391   3.074   4.736   4.629  2.1613  0.5286 -0.1470
17326TIP3   OH273392   6.098   6.693   4.365  0.2842  0.7551  0.2932
17326TIP3    H173393   6.192   6.706   4.365  0.0928  2.2513  1.7978
17326TIP3    H273394   6.075   6.685   4.272  1.8389  0.5650 -0.0891
17327TIP3   OH273395   4.047   0.502  16.541  0.0703  0.0533  0.2715
17327TIP3    H173396   4.090   0.488  16.625  0.9043 -1.3637 -0.3626
17327TIP3    H273397   3.980   0.434  16.536 -0.2556  0.3941 -0.0231
17328TIP3   OH273398   2.670   3.971  12.118 -0.5855  0.3256  0.1673
17328TIP3    H173399   2.666   4.067  12.128 -0.5756  0.3554 -0.1280
17328TIP3    H273400   2.603   3.938  12.179 -1.9990  0.6051 -1.1905
17329TIP3   OH273401   3.238   5.753   2.329  0.4739  0.2247 -0.1341
17329TIP3    H173402   3.150   5.782   2.350  0.0415 -0.4317 -1.0030
17329TIP3    H273403   3.256   5.681   2.390 -0.2860 -0.8323 -1.1433
17330TIP3   OH273404   0.020   1.564  12.620  0.2226  0.1708  0.1121
17330TIP3    H173405   0.103   1.556  12.572 -0.5509  1.3286 -1.4748
17330TIP3    H273406   0.045   1.597  12.706  1.4523  0.1012 -0.2066
17331TIP3   OH273407   4.874   0.008   3.940 -0.3723 -0.1649 -0.3743
17331TIP3    H173408   4.927   0.061   3.999 -0.5324 -1.5414  1.0339
17331TIP3    H273409   4.784   0.036   3.958 -0.2099  1.6434 -2.2344
17332TIP3   OH273410   6.304   1.483  11.477  0.7640  0.4514 -0.1984
17332TIP3    H173411   6.383   1.532  11.498  1.4482 -1.0621  0.8550
17332TIP3    H273412   6.336   1.399  11.444 -0.3988  0.1954 -0.7054
17333TIP3   OH273413   0.833   3.879  16.116  0.0460 -0.2847 -0.7746
17333TIP3    H173414   0.872   3.905  16.032 -0.4425 -1.9269 -1.5456
17333TIP3    H273415   0.797   3.791  16.099 -1.1987 -0.1025  0.7929
17334TIP3   OH273416   6.341   6.248   5.187  0.5504  0.1635 -0.0838
17334TIP3    H173417   6.325   6.177   5.126 -0.6171 -1.0840  1.6209
17334TIP3    H273418   6.426   6.228   5.226 -0.1223 -0.7199  0.9439
17335TIP3   OH273419   0.976   2.413   0.259 -0.3155 -0.5532  0.0970
17335TIP3    H173420   1.023   2.378   0.335 -1.1293 -1.2892  0.2804
17335TIP3    H273421   0.900   2.457   0.296 -0.8381 -1.1113 -0.2894
17336TIP3   OH273422   6.656   0.862  15.607  0.3923  0.0505  0.3266
17336TIP3    H173423   6.731   0.914  15.578  1.3335  0.1922  2.9253
17336TIP3    H273424   6.692   0.773  15.617 -0.3109 -0.3297 -0.4225
17337TIP3   OH273425   5.840   3.989  15.208  0.5951  0.4053 -0.1117
17337TIP3    H173426   5.921   3.945  15.233  0.3253 -0.4791 -0.7686
17337TIP3    H273427   5.846   4.076  15.248  2.1986  0.6079 -0.7399
17338TIP3   OH273428   0.285   1.558  12.527  0.3839  0.0427  0.1812
17338TIP3    H173429   0.272   1.531  12.436  0.7058 -1.3851  0.5427
17338TIP3    H273430   0.375   1.592  12.529  1.2900 -2.2688  0.4843
17339TIP3   OH273431   4.230   1.128   0.238 -0.1039 -0.2168  0.2287
17339TIP3    H173432   4.153   1.084   0.203 -0.6911  0.8620  0.1657
17339TIP3    H273433   4.199   1.169   0.319  0.5342 -0.2193  0.4756
17340TIP3   OH273434   6.534   0.039  14.375 -0.1718 -0.0803 -0.0434
17340TIP3    H173435   6.497  -0.050  14.378 -1.2730  0.4152  1.2921
17340TIP3    H273436   6.480   0.085  14.311  0.8961 -0.5824 -1.3215
17341TIP3   OH273437   6.320   4.331  12.483 -0.1220  0.0682 -0.1367
17341TIP3    H173438   6.324   4.240  12.453 -0.6582  0.4983 -1.5790
17341TIP3    H273439   6.256   4.331  12.553 -1.0990 -0.4382 -1.0205
17342TIP3   OH273440   6.286   4.220  15.596 -0.1533  0.4526 -0.8493
17342TIP3    H173441   6.239   4.303  15.607 -0.6878  0.0004  0.4034
17342TIP3    H273442   6.257   4.187  15.511  0.2620  1.6724 -1.4724
17343TIP3   OH273443   0.858   5.921  13.345  0.5767  0.3093 -0.8269
17343TIP3    H173444   0.776   5.914  13.395  1.2734 -1.0200  0.1478
17343TIP3    H273445   0.842   5.870  13.266  0.8779 -1.0063 -0.0582
17344TIP3   OH273446   6.654   0.360   1.967  0.2568  0.4434  0.1729
17344TIP3    H173447   6.568   0.344   1.928 -0.4058  2.0290  0.9277
17344TIP3    H273448   6.703   0.279   1.951 -1.3409 -0.4507 -0.3457
17345TIP3   OH273449   1.736   6.262   1.730 -0.0902  0.7514  0.2945
17345TIP3    H173450   1.722   6.293   1.819  1.2130 -0.5603  0.9749
17345TIP3    H273451   1.701   6.332   1.675 -0.5340  1.7654  1.8236
17346TIP3   OH273452   5.901   3.962  12.253 -0.0626 -0.4259 -0.0274
17346TIP3    H173453   5.941   3.875  12.245  0.2669 -0.3812  1.0630
17346TIP3    H273454   5.921   3.989  12.343  0.7498  1.2309 -0.7052
17347TIP3   OH273455   4.776   2.994   6.433  0.1993  0.5438 -0.7568
17347TIP3    H173456   4.825   3.054   6.491 -2.1282  1.6435  0.1264
17347TIP3    H273457   4.776   3.039   6.348 -1.6260  1.8920 -0.0735
17348TIP3   OH273458   0.087   6.288   5.106  0.4229 -0.4930  0.3156
17348TIP3    H173459   0.028   6.254   5.173  0.5388  0.1915  0.7801
17348TIP3    H273460   0.134   6.212   5.073  0.0796 -0.8871  0.7406
17349TIP3   OH273461   6.531   1.311   0.357  0.2462  0.5147 -0.3227
17349TIP3    H173462   6.460   1.327   0.419  0.2288  0.6103 -0.3670
17349TIP3    H273463   6.606   1.287   0.412 -0.1021 -0.6323 -0.3379
17350TIP3   OH273464   3.393   1.406   1.380 -0.2825 -0.6831 -0.0820
17350TIP3    H173465   3.436   1.433   1.299 -2.3480 -0.1794 -1.0356
17350TIP3    H273466   3.300   1.398   1.357 -0.8331 -0.9810  2.1220
17351TIP3   OH273467   2.756   1.483   4.367 -0.3395 -0.3088 -0.1237
17351TIP3    H173468   2.790   1.456   4.453  0.3588  1.1908  0.1019
17351TIP3    H273469   2.766   1.406   4.312  1.6521 -0.5083  0.4680
17352TIP3   OH273470   2.348   2.836  14.573  0.2700  0.3400  0.1277
17352TIP3    H173471   2.327   2.885  14.494  0.9896  2.4551  1.1953
17352TIP3    H273472   2.419   2.777  14.547 -0.5176 -0.0579 -1.1408
17353TIP3   OH273473   2.948   6.174  16.212  0.2348  0.0256  0.0172
17353TIP3    H173474   3.033   6.174  16.169  0.1928 -1.2384 -0.0898
17353TIP3    H273475   2.899   6.244  16.168  0.2252 -1.1619 -1.9385
17354TIP3   OH273476   1.177   0.615   5.420  0.2601  0.0971  0.4780
17354TIP3    H173477   1.229   0.553   5.472 -0.7787 -1.4775 -0.3265
17354TIP3    H273478   1.124   0.559   5.362 -2.8098  1.6330  1.7262
17355TIP3   OH273479   2.902   4.688   1.839 -0.2139 -0.0785  0.3799
17355TIP3    H173480   2.904   4.640   1.756  0.1643  1.2508 -0.3954
17355TIP3    H273481   2.869   4.775   1.815  0.0943  0.3790  1.5969
17356TIP3   OH273482   4.167   1.114  14.612 -0.0491 -0.3960  0.1953
17356TIP3    H173483   4.252   1.070  14.612  0.0802 -0.1424  0.6546
17356TIP3    H273484   4.130   1.096  14.698  1.0332  2.3990  1.3061
17357TIP3   OH273485   3.919   0.513   2.098  0.1469 -0.3119 -0.8762
17357TIP3    H173486   3.833   0.550   2.079  1.3211  3.0664 -0.0636
17357TIP3    H273487   3.906   0.462   2.178 -1.2177 -0.4375 -1.1647
17358TIP3   OH273488   5.644   6.077  17.237 -0.1599 -0.2926 -0.1839
17358TIP3    H173489   5.569   6.125  17.204  1.2751  2.1579 -0.0313
17358TIP3    H273490   5.607   5.999  17.278 -2.4697  0.1113 -1.4349
17359TIP3   OH273491   0.998   1.588   1.891  0.0455  0.0941 -0.2030
17359TIP3    H173492   0.966   1.656   1.952 -0.9542 -0.2878 -0.2856
17359TIP3    H273493   0.960   1.613   1.807 -0.6914 -0.8080 -0.1435
17360TIP3   OH273494   3.364   1.878  14.049 -0.4876 -0.0712  0.3396
17360TIP3    H173495   3.401   1.896  13.963 -1.7333 -0.8457 -0.3827
17360TIP3    H273496   3.431   1.827  14.094  0.3035  0.6152 -0.0565
17361TIP3   OH273497   1.195   5.230   5.464 -0.4184 -0.2476  0.7255
17361TIP3    H173498   1.242   5.295   5.516 -0.2737  0.1731  0.0649
17361TIP3    H273499   1.170   5.163   5.528 -0.8539  0.6042  1.4603
17362TIP3   OH273500   1.532   1.022   5.330 -0.2406  0.1863 -0.0420
17362TIP3    H173501   1.461   1.022   5.266  1.1580 -1.0390 -1.6353
17362TIP3    H273502   1.514   0.947   5.387 -0.1887 -0.1653 -0.4883
17363TIP3   OH273503   1.706   1.363  10.986 -0.0787 -0.6833 -0.3422
17363TIP3    H173504   1.625   1.313  11.000  1.4848 -3.0089  0.6991
17363TIP3    H273505   1.729   1.348  10.894 -1.1210  0.4597 -0.8007
17364TIP3   OH273506   1.389   0.249   2.454 -0.2277  0.1778  0.0221
17364TIP3    H173507   1.379   0.156   2.478  1.1551 -0.4242 -1.6329
17364TIP3    H273508   1.310   0.269   2.404  0.0038 -0.4479 -0.6078
17365TIP3   OH273509   4.664   5.523   0.266 -0.2347  0.3195  0.0706
17365TIP3    H173510   4.759   5.515   0.274 -0.1267  1.5227  0.1029
17365TIP3    H273511   4.645   5.612   0.294 -1.5585 -0.4054  1.5121
17366TIP3   OH273512   5.556   1.272   1.122  0.0681  0.6590  0.6109
17366TIP3    H173513   5.536   1.192   1.169 -0.3874  0.5805  0.2866
17366TIP3    H273514   5.479   1.328   1.136  0.4419  1.0881  0.9522
17367TIP3   OH273515   3.871   5.251  11.318  0.4889 -0.5894  0.2755
17367TIP3    H173516   3.884   5.343  11.339 -2.4384  0.2682 -1.3495
17367TIP3    H273517   3.956   5.221  11.287  1.6237  1.3993  1.4217
17368TIP3   OH273518   2.533   6.252   5.974 -0.4065 -0.2665 -0.1734
17368TIP3    H173519   2.440   6.266   5.993  0.0719  0.9831  1.3181
17368TIP3    H273520   2.563   6.191   6.041  0.0366 -0.0693 -0.1884
17369TIP3   OH273521   3.910   0.218   4.054 -0.0255 -0.0215  0.0657
17369TIP3    H173522   3.881   0.245   3.967  0.1819 -1.9758 -0.6370
17369TIP3    H273523   3.865   0.136   4.071  2.6207 -1.5010  0.2739
17370TIP3   OH273524   6.708   1.587  13.282  0.5142 -0.0737 -0.2401
17370TIP3    H173525   6.803   1.590  13.293  0.8153 -1.9220 -1.9193
17370TIP3    H273526   6.689   1.494  13.266 -1.4265  0.4429 -1.0821
17371TIP3   OH273527   5.715   6.358  12.330  0.0099 -0.2101 -0.4364
17371TIP3    H173528   5.741   6.322  12.415  1.2635 -0.5702 -0.9500
17371TIP3    H273529   5.682   6.445  12.350 -0.4240 -0.5774  0.5070
17372TIP3   OH273530   4.945   3.825   0.547 -0.4236  0.3585 -0.4680
17372TIP3    H173531   5.002   3.762   0.503 -1.2126 -1.6531  1.3212
17372TIP3    H273532   4.866   3.828   0.493  0.1559  0.9045 -1.3118
17373TIP3   OH273533   2.272   4.773   6.558  0.4966  0.2637 -0.3901
17373TIP3    H173534   2.332   4.842   6.529 -0.6603  1.9780  1.1877
17373TIP3    H273535   2.313   4.736   6.636 -0.0669  0.8588  0.1951
17374TIP3   OH273536   3.638   0.956  14.895 -0.3405  0.4805  0.4648
17374TIP3    H173537   3.607   1.000  14.974 -1.1385  3.0476 -1.2207
17374TIP3    H273538   3.578   0.985  14.826  0.8945 -0.9693 -1.2512
17375TIP3   OH273539   6.622   5.513  12.226  0.0821 -0.3775  0.1812
17375TIP3    H173540   6.714   5.539  12.225 -0.1439  0.4388 -0.0014
17375TIP3    H273541   6.574   5.595  12.212 -0.6333 -0.9835 -1.0145
17376TIP3   OH273542   3.532   3.366  14.385 -0.2069  0.5823  0.5274
17376TIP3    H173543   3.492   3.453  14.392  0.6676  0.9689  0.7661
17376TIP3    H273544   3.597   3.365  14.455 -1.6810 -1.0678  1.9227
17377TIP3   OH273545   1.286   4.368  14.210  0.4357 -0.4250 -0.1244
17377TIP3    H173546   1.203   4.377  14.257  0.4899 -2.0084  0.2719
17377TIP3    H273547   1.273   4.421  14.131 -0.5181  0.2895  0.4875
17378TIP3   OH273548   2.339   4.466   3.250  0.5662 -0.3058 -0.3613
17378TIP3    H173549   2.396   4.485   3.324  1.1377 -1.6758 -0.4496
17378TIP3    H273550   2.316   4.552   3.215  1.4611  0.2933  0.5112
17379TIP3   OH273551   2.011   3.274   2.372 -0.5723  0.3409 -0.8163
17379TIP3    H173552   1.933   3.304   2.325 -0.6002  1.6373  0.0439
17379TIP3    H273553   2.085   3.311   2.323 -0.6122  2.0749  0.3672
17380TIP3   OH273554   3.831   5.002   4.576  0.1873  0.0328  0.1373
17380TIP3    H173555   3.859   4.990   4.667  0.5073 -1.0041 -0.0921
17380TIP3    H273556   3.779   5.083   4.578 -0.2963 -0.2841  1.3544
17381TIP3   OH273557   6.540   5.373   4.279  0.6828 -0.3107 -0.0778
17381TIP3    H173558   6.587   5.408   4.355 -1.0564  0.5565  0.6042
17381TIP3    H273559   6.462   5.332   4.316  0.3094 -0.7315 -1.3299
17382TIP3   OH273560   6.592   4.561  13.131 -0.2963  0.1395  0.1200
17382TIP3    H173561   6.607   4.613  13.051 -0.3094  4.0001  2.4733
17382TIP3    H273562   6.680   4.534  13.158 -0.3229 -1.4849 -1.3531
17383TIP3   OH273563   2.909   2.950  11.639 -0.8608 -0.1857  0.5039
17383TIP3    H173564   2.993   2.904  11.628 -1.2571 -1.5047  2.7569
17383TIP3    H273565   2.933   3.042  11.639  0.2216 -0.4225 -1.8866
17384TIP3   OH273566   6.487   4.460  15.129 -0.0063  0.0187  0.3169
17384TIP3    H173567   6.462   4.547  15.159 -1.6029 -0.4580  0.3724
17384TIP3    H273568   6.566   4.440  15.180  0.3320  1.3793  0.3636
17385TIP3   OH273569   0.274   5.638  16.165 -0.1711 -0.0898 -0.3461
17385TIP3    H173570   0.194   5.682  16.194 -0.3764 -0.1335 -0.8373
17385TIP3    H273571   0.342   5.705  16.169 -0.0691 -0.2655  0.8529
17386TIP3   OH273572   4.917   0.791  17.234 -0.2763  0.4617 -0.4813
17386TIP3    H173573   4.885   0.774  17.322  0.1349 -0.4599 -0.5030
17386TIP3    H273574   4.859   0.741  17.177 -1.1329  1.7961 -0.8302
17387TIP3   OH273575   0.645   6.363  12.485 -0.4435 -0.4375 -0.3619
17387TIP3    H173576   0.682   6.325  12.406  1.0243  0.6812 -0.2321
17387TIP3    H273577   0.568   6.309  12.504 -0.0762 -1.4996 -1.8117
17388TIP3   OH273578   6.020   5.402  10.651 -0.3151  0.3000  0.0204
17388TIP3    H173579   6.105   5.408  10.694 -0.4827 -0.0115  0.3989
17388TIP3    H273580   5.989   5.314  10.671 -0.4990  0.2350 -0.5450
17389TIP3   OH273581   3.856   5.926  11.963 -0.0211  0.2423  0.1369
17389TIP3    H173582   3.925   5.861  11.949  0.3546  0.6229  0.2136
17389TIP3    H273583   3.863   5.950  12.056 -0.0368  0.5329  0.0637
17390TIP3   OH273584   5.110   3.402   3.016  0.0628 -0.0169  0.5410
17390TIP3    H173585   5.086   3.333   2.954 -1.1987  1.5520 -0.7435
17390TIP3    H273586   5.121   3.480   2.962 -1.1203  1.4029  2.2921
17391TIP3   OH273587   2.704   1.398  11.990 -0.2668  0.1830  0.2078
17391TIP3    H173588   2.797   1.405  11.968  0.0154 -2.5424  0.3180
17391TIP3    H273589   2.659   1.439  11.916  0.9551 -1.1749 -1.3357
17392TIP3   OH273590   2.287   2.341   2.409  0.9026  0.0654 -0.5824
17392TIP3    H173591   2.322   2.331   2.320  2.8516  1.9356 -0.0778
17392TIP3    H273592   2.193   2.355   2.396  0.5110 -3.5418 -2.0665
17393TIP3   OH273593   1.927   2.316   1.395  0.5814 -0.7895 -0.0008
17393TIP3    H173594   1.916   2.322   1.490 -0.9960 -0.5462 -0.1962
17393TIP3    H273595   2.003   2.258   1.384 -0.8348 -2.9918  1.3779
17394TIP3   OH273596   6.746   0.434   2.698 -0.2449  0.1666  0.6123
17394TIP3    H173597   6.791   0.508   2.739  1.9334 -0.8212  0.0979
17394TIP3    H273598   6.674   0.473   2.649  0.6872  1.9078  0.6074
17395TIP3   OH273599   4.987   2.605   4.635 -0.2176 -0.0881 -0.6402
17395TIP3    H173600   4.938   2.550   4.696 -0.2807 -1.0286 -1.5091
17395TIP3    H273601   4.940   2.594   4.552  1.1826 -0.6272 -1.3729
17396TIP3   OH273602   4.950   2.161  14.392  0.1910  0.8797 -0.2874
17396TIP3    H173603   4.963   2.072  14.426  0.7838  0.6379 -1.1453
17396TIP3    H273604   5.003   2.164  14.312  1.2613  2.4368  0.4578
17397TIP3   OH273605   6.694   6.751  14.600  0.4021 -0.1460 -0.7045
17397TIP3    H173606   6.675   6.799  14.520  1.7730  1.4508 -0.1051
17397TIP3    H273607   6.641   6.671  14.594 -0.1844  0.3791 -2.7649
17398TIP3   OH273608   5.723   1.688  16.377 -0.0700  0.4531 -0.1921
17398TIP3    H173609   5.754   1.739  16.302  0.6099 -0.7910 -0.7711
17398TIP3    H273610   5.802   1.647  16.412 -0.5903 -0.1076  0.3294
17399TIP3   OH273611   2.941   2.315   5.536  0.0126  0.5468 -0.1180
17399TIP3    H173612   2.921   2.297   5.627 -0.3216  1.1001 -0.0825
17399TIP3    H273613   3.035   2.300   5.529 -0.1723 -0.7563  0.0142
17400TIP3   OH273614   5.339   0.821   3.141  0.1987  0.4282  0.0117
17400TIP3    H173615   5.346   0.885   3.070  1.1554  0.0440 -0.2434
17400TIP3    H273616   5.421   0.772   3.138  1.0756  1.6516  2.5675
17401TIP3   OH273617   6.521   1.376  14.309 -0.2667 -0.3618 -0.1149
17401TIP3    H173618   6.454   1.351  14.372  0.1365  0.2187  0.5457
17401TIP3    H273619   6.600   1.330  14.337  0.2279  0.8529  0.5306
17402TIP3   OH273620   4.298   5.198   6.314 -0.3507  0.0875 -0.1800
17402TIP3    H173621   4.296   5.139   6.390  1.0395  0.0852 -0.1445
17402TIP3    H273622   4.306   5.139   6.239  0.4503  0.2053 -0.1850
17403TIP3   OH273623   2.781   2.901   4.190 -0.3169  0.0994  0.3985
17403TIP3    H173624   2.873   2.874   4.189 -0.1596  0.6310  0.3135
17403TIP3    H273625   2.781   2.985   4.236 -0.5764  0.7665 -0.8209
17404TIP3   OH273626   6.226   5.801  11.200  0.2581  0.2209  0.5096
17404TIP3    H173627   6.188   5.726  11.245 -0.6573  0.2416 -0.2065
17404TIP3    H273628   6.166   5.818  11.127  2.1969 -0.3709 -1.2572
17405TIP3   OH273629   5.169   0.746  15.993 -0.9665 -0.2771 -0.0281
17405TIP3    H173630   5.172   0.661  16.036 -2.1804 -0.4233 -0.2335
17405TIP3    H273631   5.240   0.796  16.034  1.2339 -2.0914 -1.4595
17406TIP3   OH273632   4.821   4.216  11.935 -0.7223  0.2878 -0.3751
17406TIP3    H173633   4.822   4.286  12.000 -1.6902  1.1069 -1.2385
17406TIP3    H273634   4.737   4.172  11.949 -0.3385 -0.3929 -0.1779
17407TIP3   OH273635   5.697   1.294  12.042  0.3988 -0.4146 -0.2029
17407TIP3    H173636   5.736   1.223  12.093 -2.3524 -1.5762  0.3879
17407TIP3    H273637   5.728   1.280  11.952  2.8978 -0.0961  0.5678
17408TIP3   OH273638   1.440   3.997   3.522  0.1294 -0.1257 -0.2144
17408TIP3    H173639   1.446   3.909   3.558  1.2953 -0.7690 -1.9356
17408TIP3    H273640   1.474   4.053   3.591  2.6252 -1.3706 -0.3809
17409TIP3   OH273641   2.269   0.313  15.231  0.2656 -0.4489 -0.1350
17409TIP3    H173642   2.219   0.338  15.309  1.6200  0.7840  0.3818
17409TIP3    H273643   2.356   0.290  15.265  0.0170 -2.6998 -0.9925
17410TIP3   OH273644   5.417   3.325   3.009 -0.0374 -0.1576 -0.5271
17410TIP3    H173645   5.384   3.338   2.920 -1.5143 -0.7559 -0.0990
17410TIP3    H273646   5.346   3.278   3.053  0.7226  0.0443  0.9350
17411TIP3   OH273647   3.617   1.439   0.559  1.1243 -0.3897  0.1552
17411TIP3    H173648   3.632   1.502   0.630  0.4835 -0.4252  0.3287
17411TIP3    H273649   3.648   1.483   0.480  2.3615 -0.5602  0.5317
17412TIP3   OH273650   4.229   0.347   1.178 -0.2121 -0.0212 -0.4123
17412TIP3    H173651   4.300   0.326   1.239 -0.9959  1.2595  0.9524
17412TIP3    H273652   4.272   0.395   1.107  0.5777 -0.8747 -0.5302
17413TIP3   OH273653   3.521   6.101   1.278 -0.0524 -0.2142 -0.4692
17413TIP3    H173654   3.516   6.017   1.231 -1.2839 -0.0696 -0.6019
17413TIP3    H273655   3.433   6.114   1.314  0.9159 -0.3995  2.0445
17414TIP3   OH273656   3.895   3.610   2.730  0.6268  0.0707  0.2393
17414TIP3    H173657   3.979   3.654   2.743 -0.5991  2.2221  1.0445
17414TIP3    H273658   3.887   3.551   2.805  1.5855 -0.4484 -0.0513
17415TIP3   OH273659   3.819   2.737   6.065  0.5972 -0.0037  0.3430
17415TIP3    H173660   3.754   2.773   6.004 -0.4172 -0.2861  1.2319
17415TIP3    H273661   3.774   2.662   6.105  2.2912 -1.6345 -0.7233
17416TIP3   OH273662   5.477   3.924  15.336 -0.0023 -0.5636 -0.0343
17416TIP3    H173663   5.463   4.013  15.367 -0.7486 -1.0602  1.0863
17416TIP3    H273664   5.540   3.886  15.397 -2.2050 -1.8555  1.4997
17417TIP3   OH273665   0.190   5.847  13.045 -0.3571  0.0503 -0.5397
17417TIP3    H173666   0.239   5.784  13.098  0.8244  1.7186  0.4113
17417TIP3    H273667   0.188   5.810  12.957  1.4454 -0.6836 -0.2747
17418TIP3   OH273668   4.607   6.129   5.643 -0.0555  0.1661  0.1719
17418TIP3    H173669   4.525   6.168   5.612  0.5117  0.8036 -0.5468
17418TIP3    H273670   4.636   6.073   5.571 -0.5313 -1.0940  0.9453
17419TIP3   OH273671   2.284   3.431  12.125 -0.0475  0.0135 -0.0262
17419TIP3    H173672   2.292   3.492  12.052 -1.1452 -0.0563 -0.2130
17419TIP3    H273673   2.372   3.395  12.136  0.8160  2.2302  0.6146
17420TIP3   OH273674   4.353   0.953   0.024 -0.1891  0.6760  0.3329
17420TIP3    H173675   4.345   0.977  -0.068  0.4113  0.5121  0.2369
17420TIP3    H273676   4.312   1.025   0.071  1.6238  1.9408  0.0362
17421TIP3   OH273677   5.747   1.305   1.343 -0.2678 -0.1824 -0.0053
17421TIP3    H173678   5.720   1.260   1.263  0.4104  1.0310 -0.9392
17421TIP3    H273679   5.819   1.362   1.315  0.6399 -0.4860  1.6796
17422TIP3   OH273680   2.954   0.573  12.290 -0.1162 -0.2011  0.2479
17422TIP3    H173681   3.035   0.623  12.297  2.8696 -5.0169  2.3763
17422TIP3    H273682   2.908   0.590  12.372 -0.4077  1.0140 -0.1481
17423TIP3   OH273683   4.764   6.255  11.292  0.5192  0.1963  0.0577
17423TIP3    H173684   4.812   6.175  11.270  1.8497  1.2373 -0.9338
17423TIP3    H273685   4.675   6.238  11.263  0.1381 -1.9304  2.3090
17424TIP3   OH273686   4.489   6.036  16.973 -0.4475 -0.1141  0.0872
17424TIP3    H173687   4.405   6.078  16.955 -0.6595 -0.3640  0.4903
17424TIP3    H273688   4.542   6.055  16.895 -1.1108 -0.5670 -0.4849
17425TIP3   OH273689   6.125   2.405  12.035  0.1018  0.4069  0.3063
17425TIP3    H173690   6.220   2.415  12.034  0.0291  1.1071 -0.0256
17425TIP3    H273691   6.110   2.313  12.055  0.8467  0.5124  1.4126
17426TIP3   OH273692   4.933   5.742  14.703 -0.3910 -1.2461 -0.0435
17426TIP3    H173693   4.999   5.787  14.755 -0.2772 -1.5936  0.1122
17426TIP3    H273694   4.964   5.748  14.613 -2.0982  2.0798 -0.5120
17427TIP3   OH273695   6.723   5.625   2.026  0.2034 -0.4347 -0.6310
17427TIP3    H173696   6.658   5.650   1.961  1.7363  0.0237 -2.0275
17427TIP3    H273697   6.748   5.536   2.003 -0.0078 -0.6550 -0.0260
17428TIP3   OH273698   3.704   1.201   1.025  0.1102  1.0048 -0.1400
17428TIP3    H173699   3.639   1.181   0.959  1.4649  0.8442 -1.4565
17428TIP3    H273700   3.672   1.158   1.104 -1.2719  0.7770 -0.8087
17429TIP3   OH273701   3.599   2.307  14.298 -0.1475 -0.0448  0.4252
17429TIP3    H173702   3.560   2.221  14.313  2.3189 -1.2325  0.2338
17429TIP3    H273703   3.587   2.354  14.380  0.1228 -1.2407  1.1583
17430TIP3   OH273704   1.941   1.261  13.071  0.8153  0.7672  0.2279
17430TIP3    H173705   1.858   1.269  13.023 -0.2702 -0.3386  1.8711
17430TIP3    H273706   1.967   1.170  13.060  2.1449  1.2418 -0.7541
17431TIP3   OH273707   2.712   0.104  15.480 -0.0227 -0.1124 -0.1747
17431TIP3    H173708   2.793   0.146  15.451 -0.9105  1.2087 -0.7870
17431TIP3    H273709   2.740   0.043  15.548  1.4504  0.5395 -0.1732
17432TIP3   OH273710   4.553   1.228  16.822 -0.3913 -0.2261  0.0972
17432TIP3    H173711   4.560   1.269  16.736 -0.0909  1.2525  0.8104
17432TIP3    H273712   4.505   1.291  16.875 -1.0893 -1.3775  0.8638
17433TIP3   OH273713   4.540   0.046  11.419 -0.6906 -0.0465  0.3955
17433TIP3    H173714   4.535  -0.044  11.451 -2.2494 -0.4459 -0.8991
17433TIP3    H273715   4.631   0.057  11.391 -0.4622 -1.1729  0.6953
17434TIP3   OH273716   5.582   0.480   2.124  0.0561  0.6922  0.2002
17434TIP3    H173717   5.655   0.472   2.186  1.4473  0.1295 -1.4739
17434TIP3    H273718   5.587   0.401   2.070 -2.4731  0.1197  0.7465
17435TIP3   OH273719   4.819   0.273  11.132  0.3739  0.3912 -0.0101
17435TIP3    H173720   4.810   0.362  11.165  1.3393 -0.4523  2.7094
17435TIP3    H273721   4.911   0.251  11.146  0.6487 -0.2978 -2.6734
17436TIP3   OH273722   1.210   0.703  16.019  0.0787  0.8857  0.0753
17436TIP3    H173723   1.117   0.693  15.998  0.2775  2.3212 -1.6857
17436TIP3    H273724   1.255   0.674  15.939  1.1389  0.3790  0.8515
17437TIP3   OH273725   3.275   4.002   1.212  0.1081 -0.3035 -0.1490
17437TIP3    H173726   3.209   4.070   1.226 -1.3715 -2.0787  1.8382
17437TIP3    H273727   3.350   4.030   1.263 -0.0167  0.4853 -0.3944
17438TIP3   OH273728   1.518   0.214   0.409 -0.0780  0.1138  0.4421
17438TIP3    H173729   1.598   0.261   0.385  0.0457 -0.6545 -0.6955
17438TIP3    H273730   1.548   0.134   0.453 -0.2930  1.1673  2.5793
17439TIP3   OH273731   4.615   1.708  14.842  0.3016 -0.3644  0.3217
17439TIP3    H173732   4.644   1.623  14.874 -0.0064 -1.3004 -1.7567
17439TIP3    H273733   4.543   1.687  14.782 -0.7141  1.4713  0.8665
17440TIP3   OH273734   3.636   0.559  13.852  0.5518 -0.0159  0.2990
17440TIP3    H173735   3.687   0.547  13.932 -0.8656  0.4938  1.3050
17440TIP3    H273736   3.547   0.577  13.883 -0.1137 -0.2787 -1.4032
17441TIP3   OH273737   2.852   0.640   2.959  0.0404 -0.2483 -0.1885
17441TIP3    H173738   2.915   0.570   2.980 -0.9055 -0.8034  0.8193
17441TIP3    H273739   2.776   0.593   2.924 -0.1900  0.3572 -0.4910
17442TIP3   OH273740   6.747   0.815  12.067 -0.4388  0.0506  0.5297
17442TIP3    H173741   6.752   0.851  12.155  0.6035  0.4161  0.3208
17442TIP3    H273742   6.657   0.782  12.060 -1.2983  2.3063  0.8207
17443TIP3   OH273743   5.563   2.352   0.860  0.3056 -0.8366  0.3978
17443TIP3    H173744   5.627   2.395   0.804 -0.6760 -1.5084 -1.2723
17443TIP3    H273745   5.535   2.421   0.921 -1.8492  1.2372 -2.7479
17444TIP3   OH273746   4.037   4.437   3.088 -0.0168 -0.0531  0.0517
17444TIP3    H173747   4.037   4.350   3.046  0.2240 -0.1727  0.2989
17444TIP3    H273748   4.054   4.419   3.180  0.1193  0.2652  0.0888
17445TIP3   OH273749   1.040   3.351   1.001  0.3873  0.1413 -0.2303
17445TIP3    H173750   1.106   3.282   0.995 -0.8911 -1.1794  0.4363
17445TIP3    H273751   0.994   3.347   0.918  1.2606  1.1937 -0.7729
17446TIP3   OH273752   2.168   1.427  10.999 -0.4000 -0.0068  0.7535
17446TIP3    H173753   2.104   1.407  10.930 -0.8220  3.8115 -0.0743
17446TIP3    H273754   2.253   1.422  10.956 -0.4298 -0.7796  0.7761
17447TIP3   OH273755   3.770   4.676  12.591 -0.0194  0.2044  0.3985
17447TIP3    H173756   3.786   4.609  12.658  0.9499  0.6781  0.6421
17447TIP3    H273757   3.749   4.755  12.641  1.0998  0.6608  0.1558
17448TIP3   OH273758   4.021   3.450   5.606 -0.5083 -0.1072  0.3189
17448TIP3    H173759   3.936   3.406   5.605 -0.7823  0.4384 -1.1858
17448TIP3    H273760   4.005   3.535   5.565  0.9500 -0.3621 -0.8175
17449TIP3   OH273761   0.054   1.684   1.154 -0.3995  0.8947  0.9646
17449TIP3    H173762   0.011   1.604   1.123  2.2282 -1.2873  2.6810
17449TIP3    H273763  -0.009   1.723   1.215 -1.8174  0.3067 -0.0853
17450TIP3   OH273764   5.051   1.556  11.337 -0.1165 -0.4603 -0.2567
17450TIP3    H173765   5.108   1.587  11.408 -0.5590 -0.5879  0.1585
17450TIP3    H273766   5.111   1.513  11.276  0.6790  2.2827 -1.4602
17451TIP3   OH273767   1.538   3.453  13.192 -0.0665  0.3642  0.4894
17451TIP3    H173768   1.613   3.454  13.132 -0.9524  1.4326 -0.6310
17451TIP3    H273769   1.527   3.361  13.216  0.6079 -0.0041 -0.5971
17452TIP3   OH273770   6.541   2.971   1.137  0.4981  0.1592  0.4511
17452TIP3    H173771   6.530   3.032   1.064 -2.1735  0.6752  1.2066
17452TIP3    H273772   6.452   2.942   1.157  1.5744 -2.8880  1.0715
17453TIP3   OH273773   2.427   4.663   3.011  0.1176  0.5798 -0.0478
17453TIP3    H173774   2.485   4.739   3.017 -0.3938  0.8563  1.7926
17453TIP3    H273775   2.340   4.698   3.029 -0.3927 -0.1134 -1.1461
17454TIP3   OH273776   1.102   3.402   4.008  0.0125 -1.2952 -0.3643
17454TIP3    H173777   1.070   3.491   4.018  2.7574  0.0604 -3.0092
17454TIP3    H273778   1.023   3.349   3.997 -1.6667  0.6649  1.8361
17455TIP3   OH273779   3.439   4.891   2.052  0.2876  0.2128 -0.1263
17455TIP3    H173780   3.482   4.824   1.999  1.5671  1.5522 -0.8309
17455TIP3    H273781   3.365   4.846   2.093  1.7801 -1.8953  0.3129
17456TIP3   OH273782   1.073   2.315   1.390 -0.0051  0.1731  0.4097
17456TIP3    H173783   0.979   2.310   1.405 -0.5311  1.2937 -2.2537
17456TIP3    H273784   1.107   2.361   1.466 -1.9667  1.9834  0.2329
17457TIP3   OH273785   3.498   3.200   5.199  0.3723 -0.5150  0.0672
17457TIP3    H173786   3.588   3.231   5.203 -0.1120  0.9880 -0.1168
17457TIP3    H273787   3.501   3.123   5.143  1.4706 -0.2145 -0.3004
17458TIP3   OH273788   2.714   4.224  13.794 -0.8165  0.2970 -0.2405
17458TIP3    H173789   2.777   4.216  13.865  0.5073  0.8011 -1.3518
17458TIP3    H273790   2.633   4.188  13.830 -0.2189  0.7478  1.5936
17459TIP3   OH273791   3.872   2.694   0.733 -0.7060  0.0526  0.7730
17459TIP3    H173792   3.921   2.732   0.660 -1.6023  0.9510  0.6243
17459TIP3    H273793   3.786   2.674   0.697 -0.2285 -2.2805  0.8221
17460TIP3   OH273794   0.332   5.873  11.733  0.0624  0.0990 -0.2436
17460TIP3    H173795   0.348   5.885  11.639  1.8747 -0.8849 -0.0860
17460TIP3    H273796   0.306   5.782  11.742 -2.4177  0.7947 -0.0491
17461TIP3   OH273797   0.080   4.894   1.419  0.1150 -0.1968 -0.3772
17461TIP3    H173798   0.017   4.954   1.379 -0.0017  1.1593  1.7477
17461TIP3    H273799   0.146   4.951   1.459  0.2615 -1.4751  1.2748
17462TIP3   OH273800   1.294   4.857  13.537  0.0050  0.0326  0.4486
17462TIP3    H173801   1.316   4.796  13.466  0.6503 -0.0129  0.6925
17462TIP3    H273802   1.378   4.880  13.576 -0.1198  1.9426 -0.3619
17463TIP3   OH273803   0.042   3.726   4.471 -0.4631  0.1818 -0.3550
17463TIP3    H173804  -0.048   3.728   4.437 -0.8509  1.7251  0.6688
17463TIP3    H273805   0.091   3.783   4.413 -0.0727 -0.8762 -1.0745
17464TIP3   OH273806   6.553   2.805  15.741  0.2483 -0.1891 -0.0307
17464TIP3    H173807   6.469   2.768  15.715  2.2743 -3.8228 -1.8406
17464TIP3    H273808   6.549   2.808  15.837 -0.7318 -3.5877  0.1124
17465TIP3   OH273809   4.460   6.367   5.394  0.3402 -0.4069 -0.3907
17465TIP3    H173810   4.408   6.444   5.416 -0.2552 -0.7934 -0.4196
17465TIP3    H273811   4.544   6.381   5.436 -0.6244 -0.9127  1.7629
17466TIP3   OH273812   2.933   2.940   5.923 -0.3359  0.2668  0.6593
17466TIP3    H173813   2.967   2.862   5.966  2.1260  0.4584 -0.8493
17466TIP3    H273814   2.864   2.907   5.865 -1.2458 -0.4037  2.0837
17467TIP3   OH273815   4.347   0.250   4.463  0.5416 -0.1112 -0.7048
17467TIP3    H173816   4.269   0.261   4.517  0.5008 -0.3321 -0.7213
17467TIP3    H273817   4.343   0.323   4.401  0.5935  0.1464 -0.4051
17468TIP3   OH273818   3.318   0.240  13.810 -0.1863 -0.8311 -0.5528
17468TIP3    H173819   3.250   0.286  13.761 -1.7775  0.3926  2.6575
17468TIP3    H273820   3.399   0.286  13.787 -1.1704  0.9493 -0.5363
17469TIP3   OH273821   0.996   5.202   4.977 -0.1460 -0.9864  0.4695
17469TIP3    H173822   1.014   5.138   5.046  0.5854 -0.1429  1.0747
17469TIP3    H273823   1.063   5.270   4.989 -0.5628 -0.3897 -0.5127
17470TIP3   OH273824   4.026   2.680   0.998 -0.1640 -0.4196  0.1875
17470TIP3    H173825   3.950   2.701   0.943 -1.3640  1.6785  2.5383
17470TIP3    H273826   4.032   2.585   0.995 -2.2791 -0.5547 -0.8221
17471TIP3   OH273827   4.610   5.964  11.286 -0.2708  0.1079 -0.4224
17471TIP3    H173828   4.559   5.940  11.209  1.9285 -0.2011 -1.8201
17471TIP3    H273829   4.593   5.894  11.349 -0.5912 -0.6444 -1.3295
17472TIP3   OH273830   5.282   1.261  11.621  0.6490  0.1909  0.2140
17472TIP3    H173831   5.356   1.218  11.578  1.0948  0.6766  0.4925
17472TIP3    H273832   5.315   1.287  11.707 -0.1027 -0.3605  0.6831
17473TIP3   OH273833   0.795   2.075   5.130  0.4624 -0.2926 -0.3214
17473TIP3    H173834   0.841   2.022   5.195 -0.6471  2.1989  2.5611
17473TIP3    H273835   0.718   2.023   5.107  0.6131 -0.9718  0.6618
17474TIP3   OH273836   2.307   2.071   0.063  0.0365 -0.4847  0.5130
17474TIP3    H173837   2.364   2.031  -0.002 -0.7901  2.0689 -1.8856
17474TIP3    H273838   2.333   2.163   0.064 -1.7513  0.0369  1.8866
17475TIP3   OH273839   5.252   3.657  13.994 -0.2092  0.0126  0.0167
17475TIP3    H173840   5.200   3.706  14.058 -0.1557  0.5170 -0.3252
17475TIP3    H273841   5.329   3.712  13.979 -0.1176 -0.2103 -0.3128
17476TIP3   OH273842   2.030   6.402   3.904 -0.1507  0.2300  0.2863
17476TIP3    H173843   2.040   6.471   3.838 -2.2846  0.4256  0.1406
17476TIP3    H273844   2.084   6.329   3.870  1.7377  1.6109  0.2098
17477TIP3   OH273845   2.409   4.839  11.497  0.0035 -0.6352 -0.1966
17477TIP3    H173846   2.414   4.872  11.407  3.5269  1.3852  0.6333
17477TIP3    H273847   2.330   4.879  11.533 -0.3116  0.2156 -1.8034
17478TIP3   OH273848   0.597   3.281  14.603  0.5686  0.2374 -0.3536
17478TIP3    H173849   0.525   3.340  14.581 -0.2038 -0.1460  1.0520
17478TIP3    H273850   0.604   3.222  14.527 -1.0119 -0.1011 -0.2616
17479TIP3   OH273851   3.451   5.652  15.540 -0.0889  0.2937 -0.4352
17479TIP3    H173852   3.403   5.578  15.578  0.6298 -0.8790 -1.7778
17479TIP3    H273853   3.384   5.702  15.493 -0.7320  1.0007  1.1775
17480TIP3   OH273854   2.605   3.107  14.707 -0.6742 -0.0376  0.7684
17480TIP3    H173855   2.563   3.181  14.664  0.4954  0.0631 -0.2633
17480TIP3    H273856   2.585   3.118  14.800 -0.8859  1.3289  0.5756
17481TIP3   OH273857   4.665   3.258  13.441  0.3156  0.0678 -0.0992
17481TIP3    H173858   4.586   3.204  13.434 -0.1107  0.7483 -0.6643
17481TIP3    H273859   4.697   3.265  13.351 -0.0907  1.4084 -0.1496
17482TIP3   OH273860   0.792   6.674   2.460 -0.6195 -0.6499 -0.0347
17482TIP3    H173861   0.820   6.726   2.384 -1.5812 -0.2443 -0.1247
17482TIP3    H273862   0.837   6.715   2.534 -1.7191  0.6161 -0.0450
17483TIP3   OH273863   1.909   5.736   4.621  0.1576 -0.2810 -0.0692
17483TIP3    H173864   1.901   5.702   4.532 -0.4019  0.1165 -0.1695
17483TIP3    H273865   2.001   5.723   4.643  0.7832  1.6018 -1.5058
17484TIP3   OH273866   3.119   3.008  16.778 -0.3475  0.3117 -0.1183
17484TIP3    H173867   3.035   3.039  16.813 -0.4833 -0.2780  0.0932
17484TIP3    H273868   3.115   2.913  16.788  1.5209  0.4421  2.5431
17485TIP3   OH273869   2.782   1.576   2.132  0.1379 -0.7100  0.1199
17485TIP3    H173870   2.743   1.524   2.202 -1.6368  2.8864  1.9255
17485TIP3    H273871   2.774   1.521   2.054 -0.4034 -3.6466  2.1615
17486TIP3   OH273872   5.888   1.350   0.821 -0.0852  0.4605  0.7348
17486TIP3    H173873   5.824   1.420   0.833  1.3327  1.7892  0.6697
17486TIP3    H273874   5.952   1.363   0.891 -0.4286 -1.4865  1.4331
17487TIP3   OH273875   2.089   5.180   2.378 -0.0903  0.5032  0.4656
17487TIP3    H173876   2.001   5.161   2.408 -0.4167 -0.6941 -1.1756
17487TIP3    H273877   2.142   5.107   2.411  0.1709  0.8687  0.8683
17488TIP3   OH273878   6.466   0.852   3.355 -0.1997 -0.3338  0.5595
17488TIP3    H173879   6.460   0.945   3.379  0.2173 -0.6061  1.7562
17488TIP3    H273880   6.560   0.833   3.358 -0.2948 -0.8220  0.4314
17489TIP3   OH273881   1.217   4.388   1.997 -0.0200 -0.7130  0.2534
17489TIP3    H173882   1.266   4.308   2.014  1.5174  0.2574  0.4215
17489TIP3    H273883   1.127   4.365   2.020  0.8291 -1.5846  2.9036
17490TIP3   OH273884   1.019   5.314  13.535  0.3196  0.5993  0.4276
17490TIP3    H173885   1.056   5.241  13.485 -0.2954  1.6615 -1.6395
17490TIP3    H273886   1.092   5.375  13.545  0.1863  0.8556 -0.1151
17491TIP3   OH273887   4.877   4.582   4.951 -0.2712 -0.2763  0.2296
17491TIP3    H173888   4.826   4.619   4.879  1.2854 -0.9600 -1.2771
17491TIP3    H273889   4.851   4.633   5.028 -3.4723 -0.8684 -0.4019
17492TIP3   OH273890   1.058   5.044   6.184 -0.3701  0.0040 -0.3032
17492TIP3    H173891   0.988   5.034   6.249 -0.4454 -1.0934 -0.5431
17492TIP3    H273892   1.101   5.126   6.207 -0.7166 -0.1261  0.8247
17493TIP3   OH273893   2.461   1.002  12.139  0.1002 -0.2545 -0.0556
17493TIP3    H173894   2.427   1.086  12.170  0.0050 -0.3861  0.1982
17493TIP3    H273895   2.385   0.945  12.134  0.6723 -1.4802  3.5105
17494TIP3   OH273896   4.979   1.352   5.736  0.0214 -0.2809  0.8852
17494TIP3    H173897   4.914   1.300   5.687  0.8602 -0.9304  0.4532
17494TIP3    H273898   4.926   1.411   5.790 -0.9422  1.5562 -1.9585
17495TIP3   OH273899   2.221   3.849  15.534  0.0593 -0.5274 -0.2090
17495TIP3    H173900   2.200   3.840  15.627 -0.3622 -0.2601 -0.2768
17495TIP3    H273901   2.170   3.925  15.506 -1.2555 -1.7407 -1.1038
17496TIP3   OH273902   5.943   5.810   4.715 -0.1807 -0.6159  0.2253
17496TIP3    H173903   5.929   5.716   4.715  0.5247 -0.7503  2.4076
17496TIP3    H273904   5.885   5.843   4.784  0.8331  0.3315  0.6488
17497TIP3   OH273905   1.145   2.978  15.713 -0.3477 -0.6225 -0.6683
17497TIP3    H173906   1.227   2.993  15.761 -0.3553 -0.3159 -0.7486
17497TIP3    H273907   1.158   3.023  15.630 -0.7850 -0.1597 -0.4880
17498TIP3   OH273908   4.418   2.811  12.694  0.5636 -0.5546  0.2625
17498TIP3    H173909   4.351   2.847  12.752  0.3328  0.1266 -0.4232
17498TIP3    H273910   4.377   2.809  12.608  0.7759 -1.9144  0.1787
17499TIP3   OH273911   3.200   4.116   2.460 -0.2611 -0.0942 -0.0759
17499TIP3    H173912   3.190   4.063   2.381  0.4715  0.9328 -0.8613
17499TIP3    H273913   3.287   4.093   2.494 -0.4701 -0.3453  0.3017
17500TIP3   OH273914   3.345   3.598   1.036  0.0851  0.6744 -0.5398
17500TIP3    H173915   3.263   3.624   1.077  0.3202  0.1209  0.2917
17500TIP3    H273916   3.406   3.588   1.109  0.0977 -1.8615 -0.8261
17501TIP3   OH273917   5.175   5.462   4.230  0.4379 -0.7405  0.0326
17501TIP3    H173918   5.091   5.489   4.265  0.6907 -2.0282  1.7243
17501TIP3    H273919   5.156   5.432   4.141 -0.4133  1.5077 -0.5691
17502TIP3   OH273920   2.251   2.308   0.356 -0.4825 -0.0126  0.6311
17502TIP3    H173921   2.177   2.253   0.331 -2.2300  2.1704  0.8951
17502TIP3    H273922   2.247   2.312   0.452  1.4465 -1.8461  0.8229
17503TIP3   OH273923   2.776   6.197   0.525  0.6531  0.0932  0.1957
17503TIP3    H173924   2.756   6.144   0.448  2.1554 -0.6031  0.2669
17503TIP3    H273925   2.870   6.186   0.538  0.4911  0.5391  1.8818
17504TIP3   OH273926   1.968   6.659   3.421  0.4442  0.7122 -0.6049
17504TIP3    H173927   1.978   6.646   3.326 -1.2593 -0.9777 -0.6085
17504TIP3    H273928   1.874   6.676   3.432  0.5404  0.3515  0.8190
17505TIP3   OH273929   0.116   6.675  14.756 -0.2106 -0.0355  0.3402
17505TIP3    H173930   0.204   6.696  14.726 -0.1571  0.1979  0.6647
17505TIP3    H273931   0.059   6.698  14.682 -0.0727  0.4859  0.4002
17506TIP3   OH273932   4.212   1.393  10.929  0.3387 -0.2957  0.2594
17506TIP3    H173933   4.135   1.409  10.875 -0.1819  0.1105  1.1262
17506TIP3    H273934   4.254   1.317  10.888 -1.2295 -1.3355  0.5685
17507TIP3   OH273935   3.829   5.678  12.326  0.0838  0.2757  0.0635
17507TIP3    H173936   3.865   5.722  12.402 -1.0574  1.8678 -0.3045
17507TIP3    H273937   3.735   5.694  12.331 -0.1556 -0.7101 -0.9883
17508TIP3   OH273938   1.894   5.501   5.937 -0.3561 -0.0811  0.1933
17508TIP3    H173939   1.919   5.476   6.026 -0.0632 -0.6380 -0.0419
17508TIP3    H273940   1.910   5.423   5.885 -1.2210  0.0107 -0.2234
17509TIP3   OH273941   4.646   6.395   1.998  0.2574  0.0219  0.1151
17509TIP3    H173942   4.711   6.443   1.945 -0.5002  0.4706 -0.4285
17509TIP3    H273943   4.632   6.314   1.950 -1.3626  0.9689 -1.0844
17510TIP3   OH273944   2.208   6.191  11.246  0.5518 -0.2682 -0.0760
17510TIP3    H173945   2.237   6.184  11.155 -1.0939  0.8900 -0.7307
17510TIP3    H273946   2.240   6.276  11.275 -0.0580 -0.0539 -0.0155
17511TIP3   OH273947   5.748   4.574  13.371 -0.1647 -0.6813 -0.2157
17511TIP3    H173948   5.837   4.597  13.397 -0.2194  0.0723 -0.6771
17511TIP3    H273949   5.702   4.559  13.454 -0.1328  0.8997  0.0952
17512TIP3   OH273950   2.204   4.773   5.794  0.1469 -0.2758 -0.5914
17512TIP3    H173951   2.292   4.810   5.802  0.0026  0.3448 -1.7775
17512TIP3    H273952   2.205   4.696   5.851  1.5236 -0.3958 -0.7664
17513TIP3   OH273953   3.681   6.357   1.279 -0.6979 -0.1583  0.2113
17513TIP3    H173954   3.657   6.264   1.287 -0.4390 -0.0492  2.5600
17513TIP3    H273955   3.608   6.396   1.230 -1.3733 -1.3838  0.2110
17514TIP3   OH273956   1.505   3.383   2.936  0.3878 -0.4212  0.5150
17514TIP3    H173957   1.439   3.378   2.866  0.3560  2.8021  0.2555
17514TIP3    H273958   1.585   3.350   2.895 -0.3184 -1.3871 -0.1258
17515TIP3   OH273959   0.190   0.554  13.242  0.7167 -0.0918 -0.1625
17515TIP3    H173960   0.210   0.518  13.329  0.3905  0.9875  0.3703
17515TIP3    H273961   0.159   0.479  13.192  2.3370 -1.0263  0.1932
17516TIP3   OH273962   0.719   4.642   1.105 -0.6905 -0.0532 -0.5312
17516TIP3    H173963   0.629   4.652   1.076 -0.1946  0.3372 -1.9671
17516TIP3    H273964   0.763   4.721   1.075 -0.3965  0.9125  2.2710
17517TIP3   OH273965   0.422   1.894   0.418  0.0684 -0.5648  0.0150
17517TIP3    H173966   0.404   1.816   0.471 -0.1552  0.2614  1.1731
17517TIP3    H273967   0.344   1.949   0.427  0.8706  0.5171  0.5214
17518TIP3   OH273968   4.000   0.644  12.645  0.1396  0.5553  0.3857
17518TIP3    H173969   3.923   0.697  12.622 -1.0382 -0.8199  1.0674
17518TIP3    H273970   4.056   0.703  12.695  0.0130  1.8739 -0.9684
17519TIP3   OH273971   5.416   1.043   1.713  0.4527  0.2297  0.6587
17519TIP3    H173972   5.380   1.057   1.801 -0.8356  1.0586  0.0086
17519TIP3    H273973   5.409   0.949   1.699  0.4539  0.1250  1.3476
17520TIP3   OH273974   3.568   4.170   2.911  0.4031  0.4908  0.0846
17520TIP3    H173975   3.630   4.109   2.952  1.9092  2.8130  1.4106
17520TIP3    H273976   3.623   4.227   2.857 -0.5202  2.6480  1.3365
17521TIP3   OH273977   2.965   5.603  16.374 -0.1682  0.6169 -0.3333
17521TIP3    H173978   2.937   5.670  16.312 -0.0668 -0.9153 -2.0888
17521TIP3    H273979   2.930   5.521  16.339 -0.2859 -0.2809  1.7580
17522TIP3   OH273980   5.208   0.384  15.332  0.3703  0.6739 -0.1925
17522TIP3    H173981   5.135   0.445  15.337 -0.4576 -0.4323  1.3150
17522TIP3    H273982   5.272   0.418  15.395  0.4636  0.6922 -0.2944
17523TIP3   OH273983   0.820   2.010   4.758 -0.1076 -0.1713 -0.5018
17523TIP3    H173984   0.911   2.021   4.733  0.1480  1.8413  1.1187
17523TIP3    H273985   0.822   2.001   4.854 -1.5754 -0.4559 -0.4756
17524TIP3   OH273986   6.344   3.631  13.566  0.4006 -0.1381 -0.1145
17524TIP3    H173987   6.344   3.550  13.617  0.2707  0.4973  0.9061
17524TIP3    H273988   6.334   3.603  13.475  0.1663 -1.2517  0.2589
17525TIP3   OH273989   3.819   6.660  15.418  0.1968  0.1455  0.0257
17525TIP3    H173990   3.748   6.704  15.372  0.2027  0.9211  0.7505
17525TIP3    H273991   3.793   6.662  15.510 -0.8732 -3.3074 -0.1230
17526TIP3   OH273992   3.179   6.443  13.653 -0.2482  0.0542 -0.0941
17526TIP3    H173993   3.221   6.357  13.650 -1.6730 -0.6205 -1.2187
17526TIP3    H273994   3.179   6.466  13.746 -0.3817 -1.4299  0.2913
17527TIP3   OH273995   5.231   0.472  13.620 -0.0855  0.3130  0.2446
17527TIP3    H173996   5.166   0.538  13.641  1.8330  3.3241 -2.7989
17527TIP3    H273997   5.211   0.446  13.529  2.4661  0.7854 -0.4900
17528TIP3   OH273998   0.319   3.626  14.834 -0.2372 -0.2734  0.3721
17528TIP3    H173999   0.349   3.717  14.826 -0.5418 -0.1056  1.1064
17528TIP3    H274000   0.294   3.617  14.926  0.7856 -1.4121  0.5507
17529TIP3   OH274001   1.381   6.772  11.507 -0.0948  0.3539 -0.6307
17529TIP3    H174002   1.424   6.737  11.429  0.9597 -0.5334  0.3289
17529TIP3    H274003   1.301   6.719  11.516  1.1640 -1.4582  0.4399
17530TIP3   OH274004   4.344   4.285   5.833 -0.2533 -0.3105 -0.5223
17530TIP3    H174005   4.328   4.268   5.926  2.7820  0.4121  0.1967
17530TIP3    H274006   4.422   4.232   5.813 -0.5192  0.0237 -2.4931
17531TIP3   OH274007   2.703   0.018   4.228 -0.3096  0.1566 -0.0699
17531TIP3    H174008   2.662   0.069   4.298  0.3501 -0.3677  0.7022
17531TIP3    H274009   2.659   0.048   4.148 -0.0102  1.8481  0.3811
17532TIP3   OH274010   5.532   2.011   2.320 -0.3516  0.1676 -0.1571
17532TIP3    H174011   5.574   2.090   2.285  0.9688 -0.5568 -0.2141
17532TIP3    H274012   5.481   1.977   2.247  0.8313 -0.2482 -0.8004
17533TIP3   OH274013   1.452   4.548   2.575 -0.1411 -0.2594 -0.5064
17533TIP3    H174014   1.522   4.592   2.623 -0.7131 -0.4822  0.5410
17533TIP3    H274015   1.385   4.530   2.641 -0.7404 -0.9768 -1.2991
17534TIP3   OH274016   3.737   2.290  12.476  0.5850  0.0592  0.5726
17534TIP3    H174017   3.829   2.269  12.460  1.0449  1.8173  0.8504
17534TIP3    H274018   3.695   2.277  12.391  1.3041  0.3406  0.1682
17535TIP3   OH274019   1.249   3.205  15.122 -0.0505  0.3763 -0.3459
17535TIP3    H174020   1.288   3.118  15.117 -0.0012  0.4049 -0.4748
17535TIP3    H274021   1.320   3.265  15.096 -0.7807  0.2601 -2.7015
17536TIP3   OH274022   0.586   2.674  16.672 -0.4634 -0.2545  0.0966
17536TIP3    H174023   0.532   2.632  16.739  1.3923  0.2503  1.9856
17536TIP3    H274024   0.542   2.757  16.654 -1.3307 -0.6861  0.2039
17537TIP3   OH274025   6.270   3.721   5.721 -0.5209 -0.1100  0.4073
17537TIP3    H174026   6.328   3.794   5.703 -1.9870  0.5518 -1.8928
17537TIP3    H274027   6.328   3.645   5.728  0.9084  1.0842  1.7057
17538TIP3   OH274028   0.587   3.733   4.551 -0.1573  0.1493 -0.0147
17538TIP3    H174029   0.544   3.651   4.574  1.1236 -0.6643 -0.4855
17538TIP3    H274030   0.582   3.786   4.630  0.7347 -1.1278  0.9013
17539TIP3   OH274031   3.995   5.473  11.520  0.0300  0.3041 -0.0321
17539TIP3    H174032   4.077   5.487  11.473 -0.2338  2.9530  0.2130
17539TIP3    H274033   3.928   5.505  11.460 -0.8410 -1.7157 -0.1759
17540TIP3   OH274034   6.709   4.048  11.515 -0.1956 -0.4347 -0.3956
17540TIP3    H174035   6.656   4.050  11.435 -1.0483 -0.1276  0.1711
17540TIP3    H274036   6.740   4.138  11.525 -0.4504 -0.3760 -0.1409
17541TIP3   OH274037   2.800   5.714   4.929  0.0337  0.0014 -0.1353
17541TIP3    H174038   2.863   5.719   5.001 -0.5605 -1.4473  0.5067
17541TIP3    H274039   2.765   5.625   4.934 -1.1395  0.3855 -1.2624
17542TIP3   OH274040   1.723   5.656  15.127 -0.0176  0.1371 -0.3478
17542TIP3    H174041   1.659   5.618  15.187  1.3851  1.2974  1.9248
17542TIP3    H274042   1.790   5.588  15.118  0.5559  0.5638  0.6545
17543TIP3   OH274043   5.587   3.231  17.007 -0.7473  0.0379 -0.3443
17543TIP3    H174044   5.631   3.216  17.091  0.6151 -2.8737 -1.4985
17543TIP3    H274045   5.630   3.308  16.971 -0.2815  0.4051  0.9498
17544TIP3   OH274046   5.922   3.994  13.071  0.0560  0.2237  0.6058
17544TIP3    H174047   5.892   4.001  13.161 -0.3659  0.6290  0.4342
17544TIP3    H274048   5.843   3.997  13.018  0.4573  2.8340  0.0773
17545TIP3   OH274049   5.063   4.939  15.044 -0.0198  0.3789 -0.3592
17545TIP3    H174050   5.148   4.968  15.075  0.5040  0.5306 -1.9082
17545TIP3    H274051   5.046   4.858  15.093  0.9627  0.3998  0.0231
17546TIP3   OH274052   6.456   4.640   5.150 -0.0071 -0.5186  0.3781
17546TIP3    H174053   6.511   4.571   5.113  0.7491 -0.5173  1.4689
17546TIP3    H274054   6.424   4.604   5.233 -1.3362 -0.3605 -0.0500
17547TIP3   OH274055   0.955   5.281  14.593 -0.0406  0.8627  0.2971
17547TIP3    H174056   0.880   5.297  14.535  0.5755  0.6374 -0.5693
17547TIP3    H274057   0.921   5.221  14.659 -0.1667 -0.6161 -1.0866
17548TIP3   OH274058   0.413   1.058  14.987  0.1309  0.2315 -0.1809
17548TIP3    H174059   0.463   1.112  14.926 -0.6671 -0.8732 -1.8596
17548TIP3    H274060   0.395   0.977  14.939 -2.6809  0.3299  0.6032
17549TIP3   OH274061   6.646   3.841  17.202 -1.0310 -0.0320 -0.3819
17549TIP3    H174062   6.612   3.927  17.180  0.3729  0.7860  0.5926
17549TIP3    H274063   6.631   3.788  17.123  1.7684  2.1972 -2.5481
17550TIP3   OH274064   2.301   5.675  15.409  0.1382  0.0949  0.0758
17550TIP3    H174065   2.251   5.755  15.424  2.7486  1.6858  0.5435
17550TIP3    H274066   2.235   5.607  15.399 -2.1171  2.2037  0.2422
17551TIP3   OH274067   0.543   0.399   4.863  0.0556 -0.5135 -0.1507
17551TIP3    H174068   0.619   0.342   4.864 -0.1012 -0.7165  3.1564
17551TIP3    H274069   0.551   0.452   4.942 -0.6934  2.9095 -2.2682
17552TIP3   OH274070   5.243   6.425  12.368  0.0252  0.3794 -0.2198
17552TIP3    H174071   5.304   6.426  12.294  0.2973  0.5175  0.0099
17552TIP3    H274072   5.279   6.360  12.428 -0.9195 -0.7183 -0.8188
17553TIP3   OH274073   6.727   0.920   2.637 -0.6260 -0.1414 -0.5693
17553TIP3    H174074   6.789   0.980   2.678  1.0509 -0.7772 -2.1122
17553TIP3    H274075   6.780   0.845   2.609 -2.5859 -2.0932  0.7856
17554TIP3   OH274076   4.582   3.238  12.697 -0.4877 -0.5002  0.0815
17554TIP3    H174077   4.516   3.233  12.765 -0.7714 -1.6012 -0.2731
17554TIP3    H274078   4.536   3.270  12.619 -0.2621  0.2913  0.2647
17555TIP3   OH274079   3.849   0.789   2.720 -0.4428  0.0428  0.0621
17555TIP3    H174080   3.855   0.878   2.685 -1.3955 -0.4003 -1.2690
17555TIP3    H274081   3.940   0.763   2.736  0.0583  0.0977 -2.5419
17556TIP3   OH274082   1.909   0.211  11.340 -0.4828  0.3676 -0.3801
17556TIP3    H174083   1.951   0.151  11.280 -0.2951  0.2797 -0.1625
17556TIP3    H274084   1.815   0.190  11.334 -0.3628 -0.3559  0.1382
17557TIP3   OH274085   2.139   4.686   1.433 -0.2297  0.6658  0.2337
17557TIP3    H174086   2.137   4.781   1.421 -0.1090  0.7185  0.6273
17557TIP3    H274087   2.126   4.674   1.527 -2.9678  0.2015 -0.1530
17558TIP3   OH274088   1.407   1.133   1.201 -0.4443  0.4381 -0.0698
17558TIP3    H174089   1.452   1.057   1.237 -1.0651 -0.8405 -1.9453
17558TIP3    H274090   1.347   1.161   1.271  1.3231  0.5681  1.4429
17559TIP3   OH274091   4.825   2.573   1.415  0.3077 -0.2767  0.0378
17559TIP3    H174092   4.839   2.493   1.364 -0.7192 -0.6816  0.3841
17559TIP3    H274093   4.762   2.548   1.482  0.2642  0.7337  0.3815
17560TIP3   OH274094   4.049   6.579   0.784 -0.6148 -0.2274 -0.0303
17560TIP3    H174095   4.002   6.521   0.844 -2.6844  0.5754 -0.8138
17560TIP3    H274096   4.026   6.667   0.812 -2.4741  0.1693 -2.5596
17561TIP3   OH274097   2.384   2.309   2.006  0.4353  0.1803  0.0940
17561TIP3    H174098   2.296   2.277   1.985  0.8304 -0.1423 -1.0978
17561TIP3    H274099   2.388   2.396   1.967  1.4262 -0.7144 -1.8978
17562TIP3   OH274100   1.901   6.687  15.634  0.1282  1.2268 -0.2373
17562TIP3    H174101   1.995   6.680  15.650  0.2284 -0.0597 -1.3354
17562TIP3    H274102   1.877   6.773  15.671  1.3563  0.7601  1.7593
17563TIP3   OH274103   4.497   1.172  11.415  0.7594  0.2225 -0.3883
17563TIP3    H174104   4.514   1.210  11.501  0.9955  0.9749 -0.7674
17563TIP3    H274105   4.564   1.103  11.406  0.7933  0.2073 -0.0118
17564TIP3   OH274106   1.928   0.314  15.110  0.9794  0.3776 -0.0442
17564TIP3    H174107   1.955   0.256  15.038 -0.3667  0.1160 -0.3723
17564TIP3    H274108   1.832   0.312  15.106  0.9127  2.3938  0.1429
17565TIP3   OH274109   5.245   5.196  10.731  0.0879  0.4162 -0.1731
17565TIP3    H174110   5.182   5.235  10.671  0.1770  1.0122  0.1150
17565TIP3    H274111   5.328   5.238  10.711 -0.2118  1.8695  1.4895
17566TIP3   OH274112   5.035   5.981  11.517  0.7467 -0.4281 -0.0590
17566TIP3    H174113   5.090   5.975  11.439  1.4424 -0.3477  0.4232
17566TIP3    H274114   5.090   6.024  11.582  0.0978 -0.3094  0.4172
17567TIP3   OH274115   2.363   1.066  13.711 -0.2702 -0.3141 -0.1003
17567TIP3    H174116   2.387   1.122  13.637 -0.7398 -0.4925 -0.3881
17567TIP3    H274117   2.412   0.985  13.698  0.0089 -0.1664  0.0358
17568TIP3   OH274118   1.592   0.343   5.257 -0.5043 -0.1733 -0.6791
17568TIP3    H174119   1.668   0.286   5.246  0.6382  0.6621  2.1413
17568TIP3    H274120   1.517   0.285   5.258  0.3165 -1.2554 -1.3101
17569TIP3   OH274121   0.473   5.140   1.506 -0.3734 -0.1034 -0.2317
17569TIP3    H174122   0.557   5.097   1.489  0.0089  0.9297 -1.0137
17569TIP3    H274123   0.494   5.208   1.571 -0.6680 -0.0672 -0.1728
17570TIP3   OH274124   6.327   0.144   0.385 -0.3609 -0.0893 -0.3789
17570TIP3    H174125   6.394   0.206   0.414 -0.4166  0.1174 -0.6878
17570TIP3    H274126   6.256   0.199   0.352  0.0834 -0.3105 -1.7737
17571TIP3   OH274127   5.279   5.376  15.650  0.0320  0.4721 -0.8382
17571TIP3    H174128   5.193   5.396  15.612  0.0921  2.0638 -0.1716
17571TIP3    H274129   5.296   5.449  15.709  1.3723 -0.3869 -0.1590
17572TIP3   OH274130   1.419   2.922  14.303 -0.6017 -0.2237 -0.3838
17572TIP3    H174131   1.452   3.012  14.301 -0.4771 -0.2148  1.5781
17572TIP3    H274132   1.498   2.868  14.301 -0.6618 -0.2907 -1.0742
17573TIP3   OH274133   4.226   5.460   1.182  0.1333  0.4567  0.1080
17573TIP3    H174134   4.136   5.472   1.150 -0.3157 -0.5500  0.9788
17573TIP3    H274135   4.233   5.521   1.256 -0.5860 -1.1173  1.4909
17574TIP3   OH274136   4.092   0.573   2.435 -0.3712  0.0763 -0.0812
17574TIP3    H174137   4.061   0.654   2.392 -1.5710 -0.4519 -0.2441
17574TIP3    H274138   4.187   0.583   2.439 -0.3457  0.6884 -1.7574
17575TIP3   OH274139   5.823   5.505  13.793 -0.3025  0.7013  0.1762
17575TIP3    H174140   5.867   5.421  13.802 -1.2541  0.1647 -0.1287
17575TIP3    H274141   5.796   5.528  13.882  2.0478  1.8500  0.6339
17576TIP3   OH274142   6.707   1.931  16.708  0.3286  0.3963  0.5604
17576TIP3    H174143   6.672   1.962  16.791 -0.9438 -1.6352  0.8124
17576TIP3    H274144   6.747   1.847  16.729 -1.2936 -0.8321 -1.1254
17577TIP3   OH274145   4.080   0.874  15.132  0.2640  0.2284  0.0908
17577TIP3    H174146   3.985   0.883  15.133 -0.0037 -1.2734 -3.0522
17577TIP3    H274147   4.097   0.789  15.173  0.0873 -0.1941 -0.6854
17578TIP3   OH274148   3.245   4.857  14.481  0.2310 -0.5180  0.2591
17578TIP3    H174149   3.235   4.921  14.411  0.6358 -0.6185  0.1115
17578TIP3    H274150   3.197   4.895  14.555  1.7561  0.6875  0.6458
17579TIP3   OH274151   0.393   5.877   2.797 -0.3146 -0.3467 -0.2330
17579TIP3    H174152   0.439   5.952   2.759  0.0344 -0.0509  0.7615
17579TIP3    H274153   0.461   5.824   2.838 -0.8178 -0.0053  1.0807
17580TIP3   OH274154   2.316   1.364   5.657 -0.3586  0.0646 -0.3046
17580TIP3    H174155   2.296   1.283   5.704  2.6667 -0.9281 -0.5980
17580TIP3    H274156   2.263   1.431   5.700 -1.6336 -1.7495  1.0382
17581TIP3   OH274157   3.445   5.637   6.469 -0.0409  0.4191 -0.3500
17581TIP3    H174158   3.363   5.655   6.422  0.8837  0.5384 -1.9550
17581TIP3    H274159   3.467   5.720   6.511 -0.8348  0.3397  0.2236
17582TIP3   OH274160   4.251   2.334   1.581 -0.2033 -0.2106 -0.3039
17582TIP3    H174161   4.297   2.362   1.660  1.0621 -1.4288 -0.5844
17582TIP3    H274162   4.256   2.409   1.522 -0.1003  0.2810  0.3293
17583TIP3   OH274163   1.297   5.684   5.960 -0.1723  0.4945  0.0556
17583TIP3    H174164   1.316   5.712   6.050  0.3197  0.9049 -0.1757
17583TIP3    H274165   1.339   5.749   5.905  0.6891 -0.5035 -0.4900
17584TIP3   OH274166   2.355   6.090   4.513 -0.2608  0.0545  0.5222
17584TIP3    H174167   2.328   6.169   4.466 -0.9188  0.1241  1.0182
17584TIP3    H274168   2.434   6.117   4.561  0.4244 -0.0218 -0.5498
17585TIP3   OH274169   3.516   3.424   0.542  0.1831  0.3251 -0.9085
17585TIP3    H174170   3.575   3.384   0.606 -0.4452  0.3615 -0.3014
17585TIP3    H274171   3.575   3.467   0.480  0.7810  2.5331  1.0919
17586TIP3   OH274172   6.186   5.316   2.488 -0.2527 -0.1688 -1.0362
17586TIP3    H174173   6.144   5.402   2.486 -0.2593 -0.1273  0.6603
17586TIP3    H274174   6.270   5.332   2.531  0.2007 -0.8243 -1.6698
17587TIP3   OH274175   3.861   3.972   1.778  0.2599 -0.3661  0.1411
17587TIP3    H174176   3.876   4.037   1.846  1.3452 -0.4455 -0.0140
17587TIP3    H274177   3.920   3.998   1.707 -2.1885  0.7891 -1.5198
17588TIP3   OH274178   1.238   6.343  16.459  0.1046  0.7548 -0.6687
17588TIP3    H174179   1.284   6.314  16.380  1.8178 -0.3220  0.6922
17588TIP3    H274180   1.294   6.412  16.494 -0.3550  0.8259 -0.0798
17589TIP3   OH274181   6.115   5.012   5.164  0.5715 -0.6306  0.2893
17589TIP3    H174182   6.078   5.007   5.253  1.4254 -0.5617  0.6496
17589TIP3    H274183   6.209   5.016   5.177  0.6926 -0.3628 -0.6208
17590TIP3   OH274184   0.623   3.584  12.779 -0.0230  0.3158  0.0717
17590TIP3    H174185   0.622   3.674  12.747  0.9673  0.4223  0.3143
17590TIP3    H274186   0.531   3.557  12.778 -0.4292  1.6071  0.7680
17591TIP3   OH274187   0.888   6.549  12.584 -0.1664 -0.6401 -0.1819
17591TIP3    H174188   0.808   6.526  12.537 -1.2906  1.0243  0.8554
17591TIP3    H274189   0.857   6.581  12.669  1.4746  1.7894 -0.4581
17592TIP3   OH274190   5.558   6.234   1.890 -0.9008 -0.2961  0.0448
17592TIP3    H174191   5.601   6.206   1.810  0.9207  0.4506  0.7297
17592TIP3    H274192   5.550   6.329   1.881 -4.3714 -0.6285 -0.9976
17593TIP3   OH274193   2.357   0.624  14.230  0.0695 -0.1925 -0.4578
17593TIP3    H174194   2.273   0.598  14.267  0.0594  1.3490  0.6469
17593TIP3    H274195   2.384   0.700  14.283  1.3027  0.4231 -1.9381
17594TIP3   OH274196   5.783   1.279   3.394  0.3087  0.0256 -0.3843
17594TIP3    H174197   5.718   1.251   3.458 -1.1924  0.6707 -1.5895
17594TIP3    H274198   5.859   1.305   3.446  0.7095 -3.4740  0.9261
17595TIP3   OH274199   2.193   0.303   3.556  0.2666 -0.3338 -0.4090
17595TIP3    H174200   2.252   0.273   3.625 -0.0063 -0.9155 -0.4179
17595TIP3    H274201   2.134   0.228   3.541 -0.2633  0.1221 -0.6207
17596TIP3   OH274202   6.132   5.845   4.080 -0.3945 -0.1711  0.2993
17596TIP3    H174203   6.201   5.902   4.046 -1.8862  1.0513 -0.7207
17596TIP3    H274204   6.129   5.865   4.174  0.9077 -0.5433  0.4348
17597TIP3   OH274205   3.449   2.334  13.973  0.3620  0.2158  0.2532
17597TIP3    H174206   3.375   2.378  14.015 -0.2959 -2.0183  1.4692
17597TIP3    H274207   3.410   2.279  13.905  1.2702  2.2401 -1.9835
17598TIP3   OH274208   3.321   1.115   4.113 -0.2723  0.6178  0.5917
17598TIP3    H174209   3.355   1.075   4.193 -0.1511  1.2375  0.8531
17598TIP3    H274210   3.242   1.065   4.093 -0.3591  0.5259  1.1605
17599TIP3   OH274211   4.534   2.639   4.332  0.0231 -0.1410 -0.2303
17599TIP3    H174212   4.599   2.570   4.331  1.7347  1.4278 -0.3699
17599TIP3    H274213   4.585   2.720   4.344 -2.0033  0.9957  1.0461
17600TIP3   OH274214   2.515   0.340   1.800  0.1499 -0.3637  0.3969
17600TIP3    H174215   2.465   0.303   1.727  0.5670  1.3173 -0.7590
17600TIP3    H274216   2.530   0.265   1.858 -2.5791 -1.1625  0.1587
17601TIP3   OH274217   0.012   6.012  11.601  0.3329 -0.3722 -0.2179
17601TIP3    H174218  -0.002   5.917  11.602  1.9941 -0.6110  1.1564
17601TIP3    H274219   0.024   6.036  11.693 -1.8166  1.4578 -0.3602
17602TIP3   OH274220   4.052   5.811  17.041  0.0528 -0.2915  0.0210
17602TIP3    H174221   4.049   5.904  17.019  1.4062  0.8149  4.0784
17602TIP3    H274222   3.961   5.788  17.062 -0.4114 -0.1275 -1.7418
17603TIP3   OH274223   0.106   6.528  15.000  0.3758  0.6306  0.1488
17603TIP3    H174224   0.073   6.580  15.073 -0.8037  0.7714 -0.4737
17603TIP3    H274225   0.106   6.588  14.925 -1.3598 -0.3280 -0.6589
17604TIP3   OH274226   6.709   6.654   1.802  0.4645  0.3832  0.0429
17604TIP3    H174227   6.771   6.630   1.733  0.7660 -2.3851  1.1859
17604TIP3    H274228   6.763   6.697   1.869  0.7942 -0.0762  0.0786
17605TIP3   OH274229   0.181   3.310   2.283  0.4936 -0.0640 -0.2796
17605TIP3    H174230   0.125   3.314   2.360  0.1347 -1.1518 -0.4725
17605TIP3    H274231   0.135   3.361   2.217 -0.1270 -0.7073 -0.3469
17606TIP3   OH274232   4.993   4.497  16.109 -0.0884 -0.0259 -0.0011
17606TIP3    H174233   5.051   4.538  16.173  0.8410 -2.2895  0.6612
17606TIP3    H274234   5.051   4.461  16.043 -0.9218  0.1700 -0.8452
17607TIP3   OH274235   1.659   4.087  14.475  0.7405  0.1209  0.0495
17607TIP3    H174236   1.619   4.131  14.401  1.1978  0.1596 -0.1743
17607TIP3    H274237   1.589   4.080  14.540  0.1402 -0.5690 -0.6627
17608TIP3   OH274238   5.787   3.064  13.549 -0.2958  0.0122  0.0292
17608TIP3    H174239   5.867   3.099  13.589 -0.5834 -0.0904  0.7137
17608TIP3    H274240   5.789   2.971  13.569  0.6642 -0.4588 -2.1299
17609TIP3   OH274241   3.033   6.587  16.326 -0.1301 -0.0762 -0.1501
17609TIP3    H174242   3.095   6.514  16.318 -1.1476 -0.7780 -1.8080
17609TIP3    H274243   2.978   6.564  16.401 -0.1699 -0.8066 -0.4013
17610TIP3   OH274244   2.760   3.658   0.862  0.4797  0.3407  1.1078
17610TIP3    H174245   2.793   3.747   0.847  0.3217  0.0353 -1.2025
17610TIP3    H274246   2.821   3.601   0.816  0.0338 -0.6904  1.7662
17611TIP3   OH274247   1.483   6.538  13.701  0.2572  0.1297  0.0373
17611TIP3    H174248   1.485   6.633  13.690  0.1962 -0.0929 -2.1563
17611TIP3    H274249   1.452   6.505  13.617 -0.0104 -1.8236  0.8802
17612TIP3   OH274250   1.681   2.943  11.970  0.3326  0.5783 -0.7967
17612TIP3    H174251   1.615   2.952  12.039  1.3322  0.4524  0.1725
17612TIP3    H274252   1.630   2.913  11.894 -0.9556  1.8909 -0.4745
17613TIP3   OH274253   6.239   1.102  12.208 -0.3196 -0.0697  0.0549
17613TIP3    H174254   6.301   1.116  12.137  1.3486  0.4602  1.5665
17613TIP3    H274255   6.293   1.070  12.281 -2.0013 -0.7547  1.0317
17614TIP3   OH274256   1.496   6.422   2.583  0.2592  0.2721 -0.1338
17614TIP3    H174257   1.562   6.484   2.552 -0.1119  0.1346 -1.2137
17614TIP3    H274258   1.423   6.476   2.612 -0.6727  0.3277 -2.4617
17615TIP3   OH274259   0.684   3.362  13.322  0.0972  0.6879  0.1321
17615TIP3    H174260   0.648   3.373  13.410  1.0165  0.2222  0.5764
17615TIP3    H274261   0.779   3.359  13.336  0.4625  3.8259 -1.1818
17616TIP3   OH274262   5.301   0.371   5.306 -0.5295 -0.2363 -0.4654
17616TIP3    H174263   5.251   0.293   5.331 -1.5081  0.6532  0.3438
17616TIP3    H274264   5.368   0.337   5.246  0.8432 -2.1656  2.0523
17617TIP3   OH274265   5.111   0.413   4.684  0.0013 -0.0293 -0.2685
17617TIP3    H174266   5.077   0.343   4.628 -0.2668  1.3393 -1.8707
17617TIP3    H274267   5.203   0.390   4.698 -0.6495 -1.9205  1.2001
17618TIP3   OH274268   4.335   4.353   3.442  0.6921  0.2877  0.1423
17618TIP3    H174269   4.356   4.269   3.482  4.1368  1.4564  0.9079
17618TIP3    H274270   4.326   4.413   3.515 -0.9920  0.7716 -0.4487
17619TIP3   OH274271   1.839   1.725  11.759 -0.4324  0.1012  0.4324
17619TIP3    H174272   1.871   1.713  11.848  0.1023  1.3321  0.4083
17619TIP3    H274273   1.886   1.801  11.726 -1.4614  0.3420 -0.5175
17620TIP3   OH274274   1.845   5.112   2.048 -0.1077 -0.3354 -0.3992
17620TIP3    H174275   1.829   5.080   1.959 -1.4131  0.4786 -0.4753
17620TIP3    H274276   1.912   5.180   2.037 -2.2324  1.7215 -1.1762
17621TIP3   OH274277   3.570   6.031   4.734  0.0204  0.5138  0.1802
17621TIP3    H174278   3.477   6.011   4.724 -0.5435  1.4854  2.9350
17621TIP3    H274279   3.596   6.071   4.651 -2.6019  2.3925  0.2075
17622TIP3   OH274280   0.851   1.267  14.586 -0.4013 -0.1322 -0.6999
17622TIP3    H174281   0.890   1.259  14.499  0.3176  3.0431 -0.7176
17622TIP3    H274282   0.792   1.342  14.579 -1.6816 -0.9447  1.0716
17623TIP3   OH274283   0.660   3.941  11.200  0.0227 -0.1431  0.0587
17623TIP3    H174284   0.709   3.941  11.283  0.8393  0.7077 -0.4104
17623TIP3    H274285   0.626   3.852  11.193 -1.2805  0.1658  2.0120
17624TIP3   OH274286   5.959   1.007   1.062 -0.0089 -0.3667  0.2971
17624TIP3    H174287   6.026   1.020   1.129 -0.0588 -1.0183  0.4751
17624TIP3    H274288   6.005   1.021   0.979  0.1362  0.0776  0.4495
17625TIP3   OH274289   3.507   4.573  11.380 -0.7481  0.2488  0.0100
17625TIP3    H174290   3.532   4.553  11.290  2.2096 -0.2496  0.8901
17625TIP3    H274291   3.542   4.660  11.396 -2.6109  0.9887  0.2318
17626TIP3   OH274292   5.863   3.690   2.424 -0.0482  0.3475  0.0398
17626TIP3    H174293   5.865   3.741   2.343  1.2724  0.6441  0.2444
17626TIP3    H274294   5.842   3.754   2.493  0.8405  0.4909  0.1909
17627TIP3   OH274295   1.564   4.397   0.548  0.4909 -0.0356  0.2141
17627TIP3    H174296   1.622   4.439   0.612  0.2352  2.2786 -1.0057
17627TIP3    H274297   1.528   4.322   0.594  0.9217  1.1182  2.5207
17628TIP3   OH274298   2.882   3.340  12.507  0.3043 -0.1138  0.3355
17628TIP3    H174299   2.860   3.384  12.589 -0.2749 -1.7778  1.0901
17628TIP3    H274300   2.830   3.260  12.507  0.1237 -0.0408 -1.7726
17629TIP3   OH274301   0.086   4.232  10.465  0.2424  0.0130 -0.4718
17629TIP3    H174302   0.039   4.314  10.480  0.5602 -0.2910  2.6092
17629TIP3    H274303   0.176   4.259  10.443 -0.3187  0.5148 -2.2026
17630TIP3   OH274304   5.882   3.165  15.930  0.5448  0.2200 -0.2381
17630TIP3    H174305   5.939   3.095  15.962  0.4462  1.0508  1.7814
17630TIP3    H274306   5.880   3.229  16.001 -2.0731  0.6780 -0.6909
17631TIP3   OH274307   5.155   5.761   3.532 -0.5038  0.3890 -0.2771
17631TIP3    H174308   5.113   5.711   3.462 -1.1446  2.2876 -1.2881
17631TIP3    H274309   5.086   5.775   3.597  0.1715 -1.6480  0.9384
17632TIP3   OH274310   1.207   5.786  16.191 -0.0049  0.3244 -0.3307
17632TIP3    H174311   1.216   5.881  16.194 -1.1900  0.4146  0.7039
17632TIP3    H274312   1.278   5.757  16.134  0.7951  1.7722 -0.0928
17633TIP3   OH274313   4.289   6.744   0.211 -0.5584 -0.3760 -0.1541
17633TIP3    H174314   4.364   6.700   0.171 -0.8789  0.0575 -1.2341
17633TIP3    H274315   4.251   6.677   0.269 -0.9793 -1.5126 -1.7000
17634TIP3   OH274316   3.652   3.449   4.871 -0.2909  0.1217 -0.4279
17634TIP3    H174317   3.635   3.424   4.962 -0.5350  2.5866  0.2653
17634TIP3    H274318   3.734   3.406   4.848 -1.2931 -2.2311  0.2357
17635TIP3   OH274319   2.018   1.377  16.513 -0.0307 -0.1241  0.0981
17635TIP3    H174320   2.009   1.363  16.419  1.3954 -1.8289  0.1840
17635TIP3    H274321   2.012   1.471  16.524 -2.3767 -0.0537 -1.4487
17636TIP3   OH274322   2.983   5.588   4.058 -0.1230  0.1439  1.0860
17636TIP3    H174323   3.046   5.586   3.985 -0.3610  1.5370  0.8170
17636TIP3    H274324   2.897   5.583   4.016 -0.2781  1.4726  1.2179
17637TIP3   OH274325   2.523   0.989  12.925  0.5084 -0.3589 -0.0650
17637TIP3    H174326   2.445   0.945  12.960 -1.1870  0.7846 -2.3114
17637TIP3    H274327   2.555   0.931  12.856  0.8059 -0.1108 -0.1382
17638TIP3   OH274328   1.069   6.006  11.484 -0.1929  0.0163 -0.1623
17638TIP3    H174329   1.118   6.017  11.566 -1.3350 -2.2183  0.8599
17638TIP3    H274330   1.079   5.913  11.462 -0.6343  0.4019 -2.1066
17639TIP3   OH274331   2.018   3.799  17.194 -0.3849 -0.2069  0.1559
17639TIP3    H174332   2.030   3.824  17.102 -1.8916  1.4614  0.3818
17639TIP3    H274333   1.934   3.753  17.195 -0.0932 -0.7342  0.6187
17640TIP3   OH274334   2.129   1.461   4.419  0.1613  0.1558  0.0138
17640TIP3    H174335   2.044   1.501   4.401  0.6675  1.3391  0.1890
17640TIP3    H274336   2.156   1.499   4.502 -0.0667 -1.7844  0.9953
17641TIP3   OH274337   2.687   1.953  11.654 -0.6253 -0.1331  0.0343
17641TIP3    H174338   2.759   2.011  11.632 -0.6240 -1.5266 -3.8966
17641TIP3    H274339   2.726   1.886  11.710 -0.0196  1.8923  2.1298
17642TIP3   OH274340   6.185   3.482  14.736  0.0633 -0.1637  0.1986
17642TIP3    H174341   6.093   3.463  14.753  0.2129 -1.4585 -0.3172
17642TIP3    H274342   6.203   3.438  14.652  0.8756  0.9647 -0.2279
17643TIP3   OH274343   6.730   4.952  12.582  0.2275  0.5514  0.0366
17643TIP3    H174344   6.707   4.862  12.605  0.7574  0.4042 -0.0114
17643TIP3    H274345   6.670   5.006  12.633  1.4212  0.2320  1.8304
17644TIP3   OH274346   3.717   5.215   0.703  0.5792  0.1197  0.6163
17644TIP3    H174347   3.795   5.163   0.683 -0.3041 -1.2464  0.6511
17644TIP3    H274348   3.676   5.169   0.777 -1.0499 -0.0152 -0.3541
17645TIP3   OH274349   6.689   3.485   1.458 -0.1291 -0.3006 -0.3506
17645TIP3    H174350   6.704   3.394   1.434  0.3654 -0.1512 -0.6213
17645TIP3    H274351   6.701   3.488   1.553  1.2968 -0.2475 -0.5159
17646TIP3   OH274352   3.731   1.538  15.811 -0.5783  0.1897  0.1867
17646TIP3    H174353   3.670   1.472  15.778  0.9342 -0.3258 -1.7290
17646TIP3    H274354   3.787   1.490  15.873 -0.7311  0.1394  0.2846
17647TIP3   OH274355   6.425   6.574  15.600  0.3865 -0.6456 -0.1363
17647TIP3    H174356   6.506   6.525  15.585  0.8047 -0.1940  0.6506
17647TIP3    H274357   6.395   6.598  15.512  1.6712  0.0977 -0.3823
17648TIP3   OH274358   6.361   6.452  11.860 -0.2273  0.5267  0.1377
17648TIP3    H174359   6.367   6.363  11.895 -2.8903 -0.8604 -2.7039
17648TIP3    H274360   6.318   6.502  11.929 -0.9302 -0.9605  0.8013
17649TIP3   OH274361   1.963   2.711   2.331 -0.3370 -0.5324 -0.5091
17649TIP3    H174362   1.909   2.692   2.255 -1.8639  1.2823  0.0681
17649TIP3    H274363   2.005   2.795   2.311 -1.2729  0.3041  0.8544
17650TIP3   OH274364   2.735   3.579  14.197  0.3807 -0.0342  0.7404
17650TIP3    H174365   2.731   3.567  14.292  1.8910  0.0752  0.8318
17650TIP3    H274366   2.686   3.506  14.161 -0.0432 -0.1820  1.6085
17651TIP3   OH274367   4.949   6.255  14.387 -0.4859  0.2500 -0.8940
17651TIP3    H174368   4.885   6.297  14.443  0.4280  0.4037  0.0431
17651TIP3    H274369   5.000   6.327  14.350 -1.7142  0.2232 -2.7258
17652TIP3   OH274370   3.279   4.211  11.720 -0.3456  0.0713  0.2498
17652TIP3    H174371   3.189   4.202  11.688 -0.3811 -1.3937  0.7272
17652TIP3    H274372   3.271   4.271  11.795 -0.4617  2.3458 -1.5274
17653TIP3   OH274373   4.264   2.577  10.997  0.3936  0.2123 -0.1299
17653TIP3    H174374   4.330   2.577  11.066 -0.5777  0.0684  0.8079
17653TIP3    H274375   4.181   2.589  11.043 -0.2821 -0.0904 -1.2526
17654TIP3   OH274376   4.157   1.966   2.074 -0.3415  0.0877  0.5772
17654TIP3    H174377   4.086   2.026   2.097 -0.2384  0.4034  0.0737
17654TIP3    H274378   4.117   1.903   2.013  0.1628  1.1401 -0.8674
17655TIP3   OH274379   6.158   2.057   5.163 -0.4365 -0.1255  0.0085
17655TIP3    H174380   6.092   1.994   5.192 -0.8881  0.9301  1.3541
17655TIP3    H274381   6.238   2.028   5.206 -1.1027  1.4280  2.3820
17656TIP3   OH274382   5.788   3.451   0.814 -0.1591  0.2634  0.1880
17656TIP3    H174383   5.878   3.459   0.846 -0.4860  0.5931  1.0202
17656TIP3    H274384   5.749   3.537   0.831 -0.9146 -0.1782  0.6823
17657TIP3   OH274385   3.073   0.520  14.347 -0.2430  0.0158  0.2039
17657TIP3    H174386   2.984   0.511  14.311  0.2535 -0.3844 -0.9494
17657TIP3    H274387   3.066   0.482  14.435 -1.3411  0.4916  0.3388
17658TIP3   OH274388   6.660   4.742  14.779  0.4281 -0.1474  0.2473
17658TIP3    H174389   6.667   4.832  14.747  0.9144  0.1221  1.1069
17658TIP3    H274390   6.660   4.750  14.874  1.2456 -1.1159  0.3354
17659TIP3   OH274391   3.727   1.968  12.176  0.2967  0.0323  0.1014
17659TIP3    H174392   3.737   1.902  12.107 -1.0021 -0.1339  0.0656
17659TIP3    H274393   3.638   1.957  12.208  0.3693  1.1581  0.7376
17660TIP3   OH274394   3.084   2.277   0.835 -0.4349 -0.2732  0.0184
17660TIP3    H174395   3.150   2.311   0.775  0.5664 -1.1718  0.6044
17660TIP3    H274396   3.033   2.354   0.862 -0.3634  0.2465 -1.3308
17661TIP3   OH274397   6.026   2.409   3.060  0.2627 -0.2024  0.4629
17661TIP3    H174398   6.098   2.466   3.086  0.5946  0.0625 -1.0367
17661TIP3    H274399   6.012   2.428   2.967 -0.7368 -1.3406  0.3718
17662TIP3   OH274400   1.687   1.488   5.870 -0.3916 -0.0111 -0.2683
17662TIP3    H174401   1.647   1.570   5.840  1.5651  0.1178 -2.7399
17662TIP3    H274402   1.735   1.512   5.949  1.5819  1.6892 -1.8979
17663TIP3   OH274403   5.866   1.256   2.465  0.2377 -0.6144  0.0516
17663TIP3    H174404   5.843   1.197   2.537 -0.0279  0.1339  0.5888
17663TIP3    H274405   5.812   1.226   2.392  0.0832 -1.0209  0.3261
17664TIP3   OH274406   4.584   2.511   0.059 -0.2358 -0.3825 -0.6648
17664TIP3    H174407   4.524   2.484   0.128 -0.3598 -1.6876 -1.2731
17664TIP3    H274408   4.559   2.601   0.038  1.2486  0.8314  2.5367
17665TIP3   OH274409   0.632   5.222  12.968  0.8734  0.0141  0.1394
17665TIP3    H174410   0.704   5.269  13.010  0.4763 -1.4047  2.5055
17665TIP3    H274411   0.557   5.237  13.025 -0.3378  0.2429 -1.5056
17666TIP3   OH274412   2.553   0.730  15.707 -0.0899 -0.7309  0.0461
17666TIP3    H174413   2.497   0.703  15.780  0.1904 -0.5186  0.3411
17666TIP3    H274414   2.495   0.781  15.650 -0.6056 -1.8786 -0.4778
17667TIP3   OH274415   5.509   1.490   3.492  0.0136  0.0150 -0.0294
17667TIP3    H174416   5.519   1.454   3.580 -0.0028 -1.8108 -0.7311
17667TIP3    H274417   5.420   1.464   3.466  0.1094  0.3286 -0.6613
17668TIP3   OH274418   6.157   6.642   2.614 -0.1227  0.4721 -0.2616
17668TIP3    H174419   6.172   6.548   2.611  0.0215  0.4526  0.9022
17668TIP3    H274420   6.196   6.670   2.696 -1.5752  1.2935  0.1729
17669TIP3   OH274421   6.353   2.467  13.049  0.3184 -0.1021 -0.3002
17669TIP3    H174422   6.289   2.430  12.987  0.6788 -0.6911 -0.3263
17669TIP3    H274423   6.302   2.525  13.104 -0.1404 -0.1280 -0.6922
17670TIP3   OH274424   4.349   5.113   0.300 -0.3176 -0.0951 -0.0040
17670TIP3    H174425   4.368   5.061   0.222  1.4658 -1.8230  1.5439
17670TIP3    H274426   4.298   5.055   0.356 -2.3808  1.4383 -0.2108
17671TIP3   OH274427   4.239   2.497   1.885 -0.2365 -0.1650 -0.1060
17671TIP3    H174428   4.263   2.481   1.977  0.1828  1.6919  0.1316
17671TIP3    H274429   4.323   2.502   1.840 -0.4149 -0.3442 -0.4514
17672TIP3   OH274430   4.556   0.975  17.015 -0.8213 -0.4483 -0.4024
17672TIP3    H174431   4.530   0.988  17.106 -3.2041 -1.8185 -0.8415
17672TIP3    H274432   4.529   1.055  16.970 -2.1591 -0.8789 -0.3959
17673TIP3   OH274433   4.312   2.680  15.726 -0.1004 -0.1914  0.4201
17673TIP3    H174434   4.369   2.738  15.676 -0.7403 -0.1784 -0.3131
17673TIP3    H274435   4.359   2.597  15.729  1.3168  0.6568  2.4102
17674TIP3   OH274436   4.030   2.385   2.832 -0.0014 -0.2553  0.2808
17674TIP3    H174437   4.103   2.365   2.773  0.6013 -0.7278  1.1846
17674TIP3    H274438   4.004   2.300   2.867 -1.1227 -0.1169 -0.1796
17675TIP3   OH274439   3.512   2.440  15.005 -0.0666  0.0713  0.3562
17675TIP3    H174440   3.557   2.477  14.928  1.1110 -1.0752  0.4694
17675TIP3    H274441   3.582   2.423  15.068 -0.6439 -1.7822  0.5290
17676TIP3   OH274442   1.787   0.638   2.892 -0.4149 -0.3517 -0.0500
17676TIP3    H174443   1.882   0.640   2.876 -0.5414 -1.2571 -1.0574
17676TIP3    H274444   1.758   0.728   2.879  0.3101 -0.0776  0.2322
17677TIP3   OH274445   2.947   6.531  12.731 -0.7224 -0.0620  0.4272
17677TIP3    H174446   3.022   6.511  12.675 -0.1596 -0.7985  1.4394
17677TIP3    H274447   2.984   6.539  12.819 -1.4331  2.1547  0.5447
17678TIP3   OH274448   3.046   5.256   3.974  0.0684  0.2207 -0.3021
17678TIP3    H174449   3.073   5.338   3.934  2.8436  0.1901  1.3851
17678TIP3    H274450   2.970   5.279   4.028  0.4790  1.5502 -0.2740
17679TIP3   OH274451   1.138   5.127  15.766 -0.0912  0.3382 -0.3707
17679TIP3    H174452   1.119   5.213  15.803  0.4662 -0.4553  1.9113
17679TIP3    H274453   1.061   5.074  15.788  0.9199 -0.5666  1.1680
17680TIP3   OH274454   2.277   5.806  12.527  0.1031 -0.4100 -0.4936
17680TIP3    H174455   2.327   5.758  12.460  2.2023 -1.2959  1.6334
17680TIP3    H274456   2.336   5.876  12.555 -1.0727  0.4484 -0.1527
17681TIP3   OH274457   6.266   1.274  13.046 -0.5196  0.7505 -0.3559
17681TIP3    H174458   6.348   1.272  12.997 -1.0975  1.1709 -1.3569
17681TIP3    H274459   6.267   1.359  13.090 -0.2927  0.6364 -0.1373
17682TIP3   OH274460   1.307   3.219  12.211  0.3374  0.5489 -0.9994
17682TIP3    H174461   1.269   3.257  12.132  0.9375  0.7499 -1.1938
17682TIP3    H274462   1.314   3.294  12.271 -0.6830  0.2847 -0.5245
17683TIP3   OH274463   4.094   4.352  11.754 -0.3958 -0.0502 -0.1877
17683TIP3    H174464   4.140   4.412  11.694 -0.9996 -0.7651 -1.3707
17683TIP3    H274465   4.110   4.389  11.840  0.6690  0.8826 -0.7625
17684TIP3   OH274466   1.435   4.177   3.106  0.1212  0.2247  0.2849
17684TIP3    H174467   1.391   4.110   3.158  0.0781  0.4673  0.5588
17684TIP3    H274468   1.491   4.127   3.046 -0.3998 -0.0778  0.0436
17685TIP3   OH274469   2.257   3.016  15.349  0.9584 -0.3052 -0.4525
17685TIP3    H174470   2.332   2.961  15.325  0.7014 -0.5475 -0.7045
17685TIP3    H274471   2.214   2.967  15.419  0.2388 -0.8510 -1.2597
17686TIP3   OH274472   6.018   2.319   3.675  0.2043 -0.2379  0.3883
17686TIP3    H174473   6.030   2.345   3.584 -0.0472 -1.0222  0.1249
17686TIP3    H274474   5.934   2.271   3.676  0.3258 -0.4480  0.9757
17687TIP3   OH274475   6.413   1.083   1.860  0.7767  0.4156  0.0996
17687TIP3    H174476   6.320   1.089   1.882  0.3626  1.5181 -1.7744
17687TIP3    H274477   6.457   1.140   1.923  0.1896 -0.1810  1.0467
17688TIP3   OH274478   6.288   3.272   1.994  0.2333  0.0416  0.3224
17688TIP3    H174479   6.219   3.338   1.987  1.2952  1.2742  1.3704
17688TIP3    H274480   6.314   3.256   1.903 -2.8673 -2.0515 -0.3190
17689TIP3   OH274481   2.109   5.797   3.294 -0.0991  0.0566  0.3051
17689TIP3    H174482   2.112   5.854   3.217 -1.8954  0.1031  0.2591
17689TIP3    H274483   2.069   5.851   3.362 -1.2917 -0.9534  0.4236
17690TIP3   OH274484   5.031   4.428  11.881 -0.4494 -0.4657 -0.3269
17690TIP3    H174485   5.079   4.491  11.827 -2.0151  1.7516  0.7346
17690TIP3    H274486   5.045   4.459  11.971 -2.2438 -0.9039  0.1222
17691TIP3   OH274487   5.138   0.769  13.197  0.0258 -0.1095 -0.4052
17691TIP3    H174488   5.109   0.859  13.212  1.0055  0.1031  0.2463
17691TIP3    H274489   5.066   0.715  13.228 -0.8688  0.4561 -1.4583
17692TIP3   OH274490   5.783   5.184  14.073  0.4700 -0.2606 -0.1656
17692TIP3    H174491   5.722   5.220  14.138  0.5621  1.7255 -1.1432
17692TIP3    H274492   5.750   5.096  14.055 -2.7839  1.1582 -1.4705
17693TIP3   OH274493   1.748   0.202   6.057  0.0496  0.3209 -0.5750
17693TIP3    H174494   1.662   0.184   6.095 -0.5966  1.0621 -1.6826
17693TIP3    H274495   1.768   0.124   6.005 -0.0260  0.2274 -0.4643
17694TIP3   OH274496   5.781   4.532   1.586  0.7009  0.8564  0.3026
17694TIP3    H174497   5.785   4.551   1.679  0.2231 -0.4435  0.6053
17694TIP3    H274498   5.688   4.518   1.568  1.0411 -1.7452  0.2653
17695TIP3   OH274499   3.591   6.593  17.090 -0.0537  0.1147  1.1907
17695TIP3    H174500   3.613   6.679  17.125  0.5053 -0.2181  1.6603
17695TIP3    H274501   3.674   6.557  17.059  0.1784 -1.3282  3.3898
17696TIP3   OH274502   1.195   6.009  15.550 -0.4774 -0.1748  0.0388
17696TIP3    H174503   1.258   5.938  15.535  0.1276  0.3021  0.2799
17696TIP3    H274504   1.216   6.074  15.483 -0.7663 -0.0477  0.0714
17697TIP3   OH274505   6.699   0.737   0.812  0.9377 -0.1737  0.1956
17697TIP3    H174506   6.784   0.779   0.799  0.0095  1.0433 -2.5242
17697TIP3    H274507   6.635   0.804   0.786 -0.7802 -1.5579  0.7335
17698TIP3   OH274508   2.342   5.770   2.407 -0.4299 -0.1988  0.5214
17698TIP3    H174509   2.262   5.819   2.390 -0.4184 -0.8304 -1.4926
17698TIP3    H274510   2.413   5.832   2.388 -0.4135 -0.9930 -2.1710
17699TIP3   OH274511   2.991   6.738   1.082 -0.3091 -0.2482  0.2260
17699TIP3    H174512   3.079   6.746   1.044 -0.5536 -0.3173 -0.3595
17699TIP3    H274513   3.004   6.753   1.175  0.2440  0.3158  0.0626
17700TIP3   OH274514   3.139   1.566  10.496 -0.0003  0.5164  0.2603
17700TIP3    H174515   3.064   1.624  10.512  0.3113  0.9118  0.2865
17700TIP3    H274516   3.152   1.520  10.578 -0.2137  0.4485  0.2550
17701TIP3   OH274517   5.409   3.103   0.817  0.3094 -0.2457  0.1631
17701TIP3    H174518   5.394   3.118   0.910 -0.4162 -1.3490  0.2343
17701TIP3    H274519   5.321   3.095   0.779  0.6033 -0.1137 -0.5663
17702TIP3   OH274520   4.572   4.240  15.841  0.2545  0.1672 -0.4067
17702TIP3    H174521   4.639   4.302  15.870  2.2432 -1.4555 -1.4374
17702TIP3    H274522   4.535   4.205  15.922 -0.5404  2.2542  0.1866
17703TIP3   OH274523   4.099   3.183  11.002 -0.8048 -0.0458  0.0454
17703TIP3    H174524   4.080   3.111  10.942 -1.4424  0.9438 -0.9631
17703TIP3    H274525   4.019   3.235  11.001  0.4515  1.8969 -0.9687
17704TIP3   OH274526   3.830   2.219  13.773 -0.0560  0.0250 -0.1757
17704TIP3    H174527   3.850   2.170  13.852 -0.4233  1.2914  0.7268
17704TIP3    H274528   3.773   2.290  13.803  0.7218  1.1825 -1.3886
17705TIP3   OH274529   1.376   3.040  11.181 -0.1133 -0.2878 -0.1698
17705TIP3    H174530   1.298   3.073  11.138  0.0056 -0.2620 -0.3650
17705TIP3    H274531   1.360   3.056  11.274 -0.4773 -0.5776 -0.1828
17706TIP3   OH274532   1.474   6.238   3.204  0.4366 -0.4291  0.5099
17706TIP3    H174533   1.453   6.262   3.113  2.3037  0.2861  0.2401
17706TIP3    H274534   1.474   6.321   3.251 -0.5297 -0.8015  1.1713
17707TIP3   OH274535   2.894   1.226  14.585  0.0808  0.0594 -0.6821
17707TIP3    H174536   2.829   1.293  14.563 -0.8095  0.0423  1.7171
17707TIP3    H274537   2.966   1.275  14.624  0.9489 -0.0579 -2.1157
17708TIP3   OH274538   1.567   0.155   1.862  0.2702  0.3137 -0.2860
17708TIP3    H174539   1.647   0.147   1.914 -0.5200 -0.4339  0.8427
17708TIP3    H274540   1.496   0.150   1.926 -0.6630  3.5957 -0.9533
17709TIP3   OH274541   4.758   6.710  16.434 -0.7644 -0.6605  0.1220
17709TIP3    H174542   4.818   6.693  16.506 -1.8801  1.7000  1.6723
17709TIP3    H274543   4.696   6.637  16.437  0.2774 -1.5587  0.3540
17710TIP3   OH274544   4.343   5.496  16.315 -0.7641 -0.3139  0.2541
17710TIP3    H174545   4.415   5.555  16.294 -1.0726  0.1931  0.6102
17710TIP3    H274546   4.375   5.409  16.288  0.8341 -0.4235  2.3204
17711TIP3   OH274547   6.050   3.478  11.872 -0.7318 -0.1808  0.3863
17711TIP3    H174548   6.078   3.570  11.865 -1.8643  0.0645 -1.1365
17711TIP3    H274549   6.128   3.427  11.851 -0.0131  0.4175  1.5439
17712TIP3   OH274550   3.019   3.556   4.859 -0.2159 -0.0378  0.4699
17712TIP3    H174551   2.987   3.554   4.950 -1.8645  1.1531 -0.0576
17712TIP3    H274552   3.020   3.649   4.836  3.0325 -0.0627  0.1968
17713TIP3   OH274553   6.722   5.745   3.666  0.1755  0.9805 -0.0965
17713TIP3    H174554   6.738   5.651   3.668 -1.2119  0.7572  1.2120
17713TIP3    H274555   6.766   5.775   3.586 -1.3281 -1.1190 -1.7734
17714TIP3   OH274556   5.996   5.866   1.349 -0.0222 -0.6963  0.0989
17714TIP3    H174557   6.056   5.932   1.313  0.4101 -0.8774  0.4688
17714TIP3    H274558   6.051   5.816   1.410 -0.4256 -1.2022  0.0442
17715TIP3   OH274559   2.768   5.413   1.812 -0.0698 -0.0486 -0.0012
17715TIP3    H174560   2.771   5.371   1.726 -0.6945  2.0662 -1.0866
17715TIP3    H274561   2.859   5.413   1.841 -0.0527 -2.1111  0.0174
17716TIP3   OH274562   1.028   2.869  14.369 -0.1346 -0.0849 -0.2566
17716TIP3    H174563   1.057   2.865  14.460 -0.4745 -0.3060 -0.1598
17716TIP3    H274564   0.995   2.959  14.358 -0.7247 -0.2664  0.0279
17717TIP3   OH274565   1.344   4.979  16.358 -0.4306  0.3656  0.2503
17717TIP3    H174566   1.282   5.046  16.386 -1.1170 -0.0043 -0.3611
17717TIP3    H274567   1.297   4.896  16.369  0.0453  0.0623  0.0359
17718TIP3   OH274568   5.562   4.794   3.861  0.5620 -0.4036  0.7385
17718TIP3    H174569   5.600   4.844   3.934 -0.3834  0.5234  0.6029
17718TIP3    H274570   5.519   4.860   3.807  1.9551 -0.9700 -1.1183
17719TIP3   OH274571   5.503   2.610  15.229  0.2851 -0.0504 -0.1275
17719TIP3    H174572   5.552   2.685  15.194 -0.5222 -0.1641 -1.5493
17719TIP3    H274573   5.569   2.555  15.271  1.0403  0.9241 -0.0240
17720TIP3   OH274574   2.451   6.216  14.416  1.1984  0.1919  0.0314
17720TIP3    H174575   2.384   6.193  14.481  1.7152  1.8984  1.2114
17720TIP3    H274576   2.406   6.273  14.354  1.3011  0.5494  0.2809
17721TIP3   OH274577   5.086   5.432  12.423 -0.5931 -0.0702  0.5683
17721TIP3    H174578   5.165   5.404  12.470  0.5986 -0.9033 -1.8790
17721TIP3    H274579   5.065   5.359  12.366 -3.4142 -0.0117  1.4664
17722TIP3   OH274580   0.491   0.069  14.211  0.3958  0.4540  0.2969
17722TIP3    H174581   0.488   0.028  14.297  0.4058 -2.2523 -0.9244
17722TIP3    H274582   0.430   0.142  14.216  0.2358  0.1832  2.5226
17723TIP3   OH274583   1.974   5.136  12.858  0.0294 -0.4356 -0.5608
17723TIP3    H174584   1.939   5.225  12.858  0.4837 -0.2138  1.6297
17723TIP3    H274585   1.912   5.086  12.912  2.0062 -0.4515  1.7950
17724TIP3   OH274586   3.139   3.146   1.591  0.0615  0.4897  0.2120
17724TIP3    H174587   3.065   3.207   1.591  0.0617  0.4957  1.2808
17724TIP3    H274588   3.148   3.119   1.499 -0.0517  1.9614 -0.2494
17725TIP3   OH274589   1.202   2.899   1.897  0.0618  0.3932 -0.5163
17725TIP3    H174590   1.200   2.866   1.987 -0.6209 -1.1361 -1.0680
17725TIP3    H274591   1.267   2.969   1.898  0.9729 -0.4494  0.8953
17726TIP3   OH274592   3.571   3.169   4.169  0.1189 -0.1453 -0.6001
17726TIP3    H174593   3.535   3.108   4.234 -0.4376  0.2574 -0.5284
17726TIP3    H274594   3.624   3.230   4.221  0.0751 -0.1221 -0.5827
17727TIP3   OH274595   0.688   6.491  14.481 -0.1933 -0.1351  0.1874
17727TIP3    H174596   0.783   6.491  14.468 -0.5930  0.1778 -3.1625
17727TIP3    H274597   0.676   6.456  14.569  3.0111 -0.8451  0.4025
17728TIP3   OH274598   6.625   0.322   6.407 -0.3958 -0.8720 -1.0017
17728TIP3    H174599   6.559   0.388   6.391 -0.3154 -0.5768 -0.1236
17728TIP3    H274600   6.708   0.366   6.388 -0.1481  0.1017  2.0641
17729TIP3   OH274601   5.045   1.955   2.513  0.1859 -0.4352  0.6703
17729TIP3    H174602   4.993   1.976   2.590  1.7287 -1.4380  2.0009
17729TIP3    H274603   5.007   1.874   2.479 -0.6416  0.1328  0.2081
17730TIP3   OH274604   5.590   6.480  10.722 -0.1770  0.8569 -0.1667
17730TIP3    H174605   5.668   6.523  10.688 -0.3694  1.5681  0.2860
17730TIP3    H274606   5.623   6.404  10.770  0.1113 -0.0575 -1.7643
17731TIP3   OH274607   3.328   0.981  13.345 -0.6004 -0.4863 -0.4555
17731TIP3    H174608   3.268   1.043  13.303 -2.5698 -0.9256  1.6304
17731TIP3    H274609   3.382   1.035  13.403 -0.6684 -0.4017 -0.4700
17732TIP3   OH274610   3.858   0.862  12.343 -0.1415 -0.0368 -0.8947
17732TIP3    H174611   3.952   0.850  12.326  0.4715  1.6796  1.0009
17732TIP3    H274612   3.847   0.830  12.433 -0.8986  1.7676 -0.3140
17733TIP3   OH274613   0.558   1.129   2.914 -0.3812  0.2212 -0.1273
17733TIP3    H174614   0.616   1.063   2.876 -0.5953  0.5892 -1.0983
17733TIP3    H274615   0.490   1.079   2.958 -0.2776 -0.2098 -0.4535
17734TIP3   OH274616   1.125   4.474   5.675 -0.1628 -0.2287 -0.0267
17734TIP3    H174617   1.087   4.495   5.761 -0.1125  0.8193 -0.2474
17734TIP3    H274618   1.130   4.379   5.673 -3.1319 -0.4252 -0.1180
17735TIP3   OH274619   5.504   6.102   2.999 -0.5889  0.3129 -0.0522
17735TIP3    H174620   5.483   6.011   2.978  0.0027 -0.0033  0.6860
17735TIP3    H274621   5.599   6.106   2.992 -0.6180  0.8831 -0.1060
17736TIP3   OH274622   0.559   4.726   0.554 -0.2090  0.1713 -0.1422
17736TIP3    H174623   0.642   4.765   0.526  0.2668 -1.4118 -0.9734
17736TIP3    H274624   0.501   4.736   0.478 -1.4319  2.9824  1.0649
17737TIP3   OH274625   4.209   3.696  12.820 -0.9524 -0.1451  0.2381
17737TIP3    H174626   4.230   3.689  12.914 -2.9274 -2.1749  0.5800
17737TIP3    H274627   4.232   3.610  12.784  0.4479  0.8508 -1.3072
17738TIP3   OH274628   2.639   0.689   1.717  0.2308  0.1827 -0.1685
17738TIP3    H174629   2.714   0.748   1.718  0.3225  0.0696 -0.3677
17738TIP3    H274630   2.675   0.604   1.742 -0.0529  0.3893  0.9496
17739TIP3   OH274631   5.060   4.267   5.100  0.0622 -0.5557 -0.2674
17739TIP3    H174632   5.100   4.193   5.053 -0.3509 -1.3064  0.5591
17739TIP3    H274633   5.125   4.291   5.166 -0.4906 -1.2475  0.5397
17740TIP3   OH274634   4.238   4.739  13.974 -0.3731  0.3973  0.3505
17740TIP3    H174635   4.294   4.751  14.051  3.0876 -0.7368 -1.8365
17740TIP3    H274636   4.195   4.655  13.988  0.5902 -0.0141  0.8854
17741TIP3   OH274637   1.485   4.844   0.535 -0.0301  0.1672  0.1736
17741TIP3    H174638   1.454   4.777   0.596  0.4332  0.0710  0.3042
17741TIP3    H274639   1.559   4.804   0.490  1.6344  1.3351  1.7819
17742TIP3   OH274640   4.311   1.395  14.640 -0.1590 -0.1970  0.1182
17742TIP3    H174641   4.355   1.348  14.569  0.4460  0.1629  0.2516
17742TIP3    H274642   4.300   1.330  14.709 -0.9825 -0.6148 -0.4009
17743TIP3   OH274643   6.630   2.728   5.288  0.1788  0.2555  0.3163
17743TIP3    H174644   6.665   2.644   5.257 -0.2448 -0.6628  2.2397
17743TIP3    H274645   6.707   2.783   5.300  0.6137 -0.3955  0.5482
17744TIP3   OH274646   2.643   3.161   1.151  0.0626  0.6500 -0.6027
17744TIP3    H174647   2.709   3.093   1.138  1.2225  1.4008  1.1760
17744TIP3    H274648   2.673   3.234   1.096 -0.5327  0.1898 -1.5622
17745TIP3   OH274649   3.322   6.517   1.839 -0.2014 -0.1397 -0.0554
17745TIP3    H174650   3.295   6.607   1.859  0.9776  0.1174  0.4216
17745TIP3    H274651   3.375   6.491   1.914  0.9083 -0.6153 -0.9908
17746TIP3   OH274652   5.895   6.055  14.598  0.6057 -0.0703 -0.1571
17746TIP3    H174653   5.878   6.010  14.680 -2.0016 -0.0541 -0.6408
17746TIP3    H274654   5.919   5.986  14.536  1.4486 -0.2081  0.3182
17747TIP3   OH274655   0.444   2.519   2.197 -0.1652 -0.0830  0.0262
17747TIP3    H174656   0.378   2.577   2.235 -1.0379  0.1258 -1.7776
17747TIP3    H274657   0.398   2.438   2.178 -0.0292  0.2195 -1.6644
17748TIP3   OH274658   5.557   3.374  13.208  0.0851 -0.0997  0.3390
17748TIP3    H174659   5.624   3.430  13.249 -1.2051 -0.2174  2.7183
17748TIP3    H274660   5.589   3.285  13.221  0.2623 -0.0814  0.0231
17749TIP3   OH274661   3.148   1.727  12.769 -0.3319  0.1089 -0.4306
17749TIP3    H174662   3.146   1.732  12.865  0.1274  1.5019 -0.4889
17749TIP3    H274663   3.173   1.636  12.751  1.1564  0.2509  0.7911
17750TIP3   OH274664   2.243   1.159   5.445  0.3454 -0.2573 -0.1570
17750TIP3    H174665   2.284   1.209   5.516 -1.9391  0.8725  0.4140
17750TIP3    H274666   2.188   1.094   5.490 -0.8184  0.2100 -0.8877
17751TIP3   OH274667   0.478   4.703  11.318 -0.0346  0.0810  0.4231
17751TIP3    H174668   0.518   4.790  11.312 -0.8641  0.5431  1.4118
17751TIP3    H274669   0.416   4.700  11.245  0.3940  0.1080  0.0584
17752TIP3   OH274670   2.898   3.152  16.901 -0.0912  0.3169  0.5747
17752TIP3    H174671   2.971   3.168  16.961 -0.9063 -1.0629  1.9735
17752TIP3    H274672   2.822   3.142  16.958 -1.1396  0.3848 -0.7904
17753TIP3   OH274673   5.239   2.138   5.034 -0.7123  0.0186 -0.8601
17753TIP3    H174674   5.298   2.210   5.012 -2.0121  1.0645 -1.0063
17753TIP3    H274675   5.287   2.087   5.099 -0.4650  2.0356  0.6118
17754TIP3   OH274676   0.139   5.370  13.787  0.0874 -0.1440  0.0143
17754TIP3    H174677   0.197   5.446  13.786  0.0441 -0.1046 -1.3623
17754TIP3    H274678   0.052   5.406  13.801  0.1364  0.0104 -0.0748
17755TIP3   OH274679   5.473   6.367   1.384  0.5902  0.3569  0.6524
17755TIP3    H174680   5.426   6.323   1.454  1.3222 -1.7527 -0.1545
17755TIP3    H274681   5.549   6.407   1.427  0.2248  0.3683  1.2930
17756TIP3   OH274682   6.362   6.521  16.075 -0.1758 -0.1825  0.0979
17756TIP3    H174683   6.409   6.604  16.078 -0.9632  0.2232  3.4601
17756TIP3    H274684   6.323   6.519  15.988 -0.1512  2.9672 -0.0625
17757TIP3   OH274685   4.891   6.769   5.035 -0.0172 -0.4794  0.1433
17757TIP3    H174686   4.985   6.787   5.042 -0.0931 -0.4220  1.2000
17757TIP3    H274687   4.855   6.844   4.987  0.1855  0.5193  1.5175
17758TIP3   OH274688   5.964   2.373  14.357  0.3039  0.0559  0.4228
17758TIP3    H174689   5.953   2.343  14.267 -1.2962  2.0349 -0.0778
17758TIP3    H274690   5.891   2.434  14.371  1.4512  0.9985  2.5301
17759TIP3   OH274691   5.083   5.030   4.799 -0.0169  0.3034  0.7904
17759TIP3    H174692   5.144   5.083   4.748 -0.8623  0.1499 -0.4191
17759TIP3    H274693   5.111   4.940   4.783 -0.6015  0.2287  0.1683
17760TIP3   OH274694   3.103   5.101   1.140 -0.5378 -0.2368  0.4374
17760TIP3    H174695   3.156   5.053   1.076 -1.8187  0.0218 -0.8630
17760TIP3    H274696   3.112   5.193   1.115  1.4047  0.1855  2.5371
17761TIP3   OH274697   2.453   5.641   2.675 -0.3213 -0.1144  0.1195
17761TIP3    H174698   2.495   5.647   2.589 -0.6916 -0.7813 -0.1061
17761TIP3    H274699   2.362   5.619   2.656  0.1145 -2.5385  0.7801
17762TIP3   OH274700   4.348   5.241  13.182  0.1205  0.2804  0.9195
17762TIP3    H174701   4.401   5.307  13.227 -1.1962  0.5216  2.1416
17762TIP3    H274702   4.334   5.173  13.248 -0.0585 -0.3607  0.2194
17763TIP3   OH274703   5.660   0.808   4.185 -0.3619  0.4571 -0.2124
17763TIP3    H174704   5.572   0.840   4.206 -0.7491  1.0000 -2.4836
17763TIP3    H274705   5.678   0.844   4.098  1.6757 -0.5518 -0.2361
17764TIP3   OH274706   4.682   2.421  13.090  0.7446 -0.0231  0.1400
17764TIP3    H174707   4.593   2.457  13.084 -0.1033 -2.0508  0.1078
17764TIP3    H274708   4.732   2.468  13.023 -0.2919  1.1761  0.2014
17765TIP3   OH274709   3.782   2.656  15.145 -0.1475  0.5426  0.9078
17765TIP3    H174710   3.863   2.623  15.107 -1.0258 -0.7476  0.1094
17765TIP3    H274711   3.767   2.601  15.222 -0.9515 -0.1118  0.2952
17766TIP3   OH274712   4.790   5.406  13.235 -0.7070 -0.4962 -0.1635
17766TIP3    H174713   4.800   5.409  13.140 -3.6410  0.1002 -0.4993
17766TIP3    H274714   4.812   5.494  13.264  1.1433 -0.9309 -0.1253
17767TIP3   OH274715   5.766   1.463   0.570 -0.3197 -0.1588 -0.5106
17767TIP3    H174716   5.812   1.547   0.570  0.1336 -0.3954  0.2213
17767TIP3    H274717   5.773   1.432   0.480  0.6188 -0.0001 -0.5045
17768TIP3   OH274718   4.907   5.394   5.704 -0.3842  0.1114 -0.6765
17768TIP3    H174719   4.943   5.335   5.770 -0.8370 -0.6168 -1.0742
17768TIP3    H274720   4.873   5.468   5.755  0.3564  0.1228 -0.1921
17769TIP3   OH274721   4.121   2.720  14.029  0.5650 -0.3783 -0.5271
17769TIP3    H174722   4.155   2.647  14.081  1.4990 -0.1608 -0.8334
17769TIP3    H274723   4.046   2.682  13.982  0.7153 -0.9940 -0.2744
17770TIP3   OH274724   4.730   5.468   6.051  0.1384 -0.1343 -0.0750
17770TIP3    H174725   4.820   5.438   6.036  0.6629  2.2427 -1.8654
17770TIP3    H274726   4.733   5.508   6.138  1.3209  1.7003 -0.9290
17771TIP3   OH274727   1.153   5.825   5.186 -0.1501  0.5835  1.1587
17771TIP3    H174728   1.071   5.853   5.227 -1.4508  0.6085 -1.3358
17771TIP3    H274729   1.186   5.903   5.143 -0.4108 -0.1337 -0.3784
17772TIP3   OH274730   3.173   6.664   4.830  0.0905 -0.1548  0.2701
17772TIP3    H174731   3.171   6.655   4.926 -0.4658  0.1628  0.2917
17772TIP3    H274732   3.086   6.698   4.808  1.1292  2.3684 -0.0964
17773TIP3   OH274733   6.549   4.744   2.559  0.6980  0.6603 -0.3053
17773TIP3    H174734   6.628   4.783   2.595  0.7748 -0.2166  0.4925
17773TIP3    H274735   6.579   4.668   2.510  0.5175  1.4032 -1.5884
17774TIP3   OH274736   3.069   0.485   0.960 -0.0010  0.5167  0.1196
17774TIP3    H174737   3.141   0.545   0.981 -1.0993  1.9107 -0.0923
17774TIP3    H274738   3.101   0.435   0.884  1.3625  0.0155  1.0026
17775TIP3   OH274739   2.780   1.755  14.184 -0.4167 -0.5804  0.1031
17775TIP3    H174740   2.735   1.834  14.217  2.4386  1.7087 -1.2438
17775TIP3    H274741   2.872   1.770  14.204  0.3332 -3.0041 -1.3966
17776TIP3   OH274742   4.347   0.878   5.821 -0.6615 -0.7269  0.0655
17776TIP3    H174743   4.310   0.823   5.752 -2.5827 -0.7085  1.0523
17776TIP3    H274744   4.273   0.929   5.853  1.1104  2.5714 -0.9293
17777TIP3   OH274745   2.750   2.980   0.731 -0.3291 -0.1707 -0.2572
17777TIP3    H174746   2.705   2.912   0.680  2.0646 -1.1709 -1.0884
17777TIP3    H274747   2.808   3.022   0.669  0.2172  0.8109  0.8982
17778TIP3   OH274748   4.359   1.452   2.889 -0.6858  0.0404 -0.0377
17778TIP3    H174749   4.445   1.494   2.895 -0.0137 -1.4403  1.0674
17778TIP3    H274750   4.360   1.407   2.805 -0.3006 -0.1389  0.0630
17779TIP3   OH274751   2.220   1.961   4.710  0.0222  0.1875 -0.1944
17779TIP3    H174752   2.175   2.018   4.648  2.4771  1.0717 -1.2134
17779TIP3    H274753   2.285   1.914   4.657 -1.3492 -2.9621  0.7653
17780TIP3   OH274754   2.085   4.031  14.182  0.0586  0.2681 -0.0125
17780TIP3    H174755   2.004   3.986  14.159  0.3798  0.2313 -1.0602
17780TIP3    H274756   2.071   4.059  14.273 -2.4251  3.1517 -1.2019
17781TIP3   OH274757   2.408   6.582   3.187  0.4775  0.1579  0.0400
17781TIP3    H174758   2.497   6.558   3.213  0.4016 -0.5628 -0.3480
17781TIP3    H274759   2.415   6.672   3.156  0.7320  0.7443  1.7381
17782TIP3   OH274760   1.845   3.461  12.297 -0.1482 -0.1825  0.0816
17782TIP3    H174761   1.915   3.410  12.258  1.4084  0.7176  1.6222
17782TIP3    H274762   1.866   3.552  12.274  0.4125  0.2954  2.3812
17783TIP3   OH274763   1.939   3.106  13.706 -0.3941  0.0494  0.5883
17783TIP3    H174764   1.925   3.197  13.679  1.4652  0.3373  0.4954
17783TIP3    H274765   1.980   3.113  13.793 -1.2923 -0.7423  1.0927
17784TIP3   OH274766   5.719   2.721  13.102  0.0436  0.1131 -0.3839
17784TIP3    H174767   5.705   2.786  13.034  0.6959 -0.0174 -0.6433
17784TIP3    H274768   5.798   2.673  13.075  0.2588  0.0037  0.4103
17785TIP3   OH274769   2.768   5.364  13.048  0.1505 -0.1491  0.4588
17785TIP3    H174770   2.794   5.436  13.105  0.5958 -0.5947  0.8236
17785TIP3    H274771   2.850   5.328  13.015 -0.0949 -0.1119 -0.1979
17786TIP3   OH274772   5.968   0.618   1.772 -0.2567  1.0249 -0.6514
17786TIP3    H174773   5.885   0.632   1.726 -2.1813  0.7144  2.5234
17786TIP3    H274774   5.980   0.523   1.771 -0.8589  0.9285  0.3467
17787TIP3   OH274775   4.015   4.794   1.139  1.3165  0.0755  0.2855
17787TIP3    H174776   4.096   4.745   1.147  1.8959  1.0289  0.3005
17787TIP3    H274777   3.989   4.813   1.229  0.7150 -0.8062  0.3052
17788TIP3   OH274778   6.613   1.369   4.798  0.2684 -0.3999  0.2731
17788TIP3    H174779   6.696   1.344   4.838  1.1580 -1.4375 -2.0769
17788TIP3    H274780   6.553   1.297   4.820  1.0452 -1.4989 -1.0825
17789TIP3   OH274781   3.510   0.443   5.208  0.0682  0.0316 -0.0053
17789TIP3    H174782   3.481   0.489   5.287  1.1469  0.8259 -0.0575
17789TIP3    H274783   3.439   0.383   5.188  0.3391 -1.1137  2.3338
17790TIP3   OH274784   0.192   2.002   6.722  0.9238 -0.4878 -0.0810
17790TIP3    H174785   0.256   2.065   6.756  0.6930 -0.0605 -0.4337
17790TIP3    H274786   0.199   2.011   6.627 -0.1825  0.0861 -0.1097
17791TIP3   OH274787   5.005   1.507   3.128  0.1182  0.4313  0.6106
17791TIP3    H174788   5.011   1.559   3.047 -1.0622  0.5717  0.6007
17791TIP3    H274789   5.070   1.437   3.117  1.4247  1.6535  0.4405
17792TIP3   OH274790   5.723   3.451  16.919  0.4842  0.5564 -0.2154
17792TIP3    H174791   5.719   3.449  16.824  1.5359  1.6556 -0.2815
17792TIP3    H274792   5.810   3.485  16.940  0.2399  0.3991  1.1370
17793TIP3   OH274793   1.807   0.536   4.115  0.2295  0.2475  0.2103
17793TIP3    H174794   1.795   0.514   4.207 -1.0927  0.1734  0.0432
17793TIP3    H274795   1.746   0.477   4.069  1.1189  0.0560 -0.7277
17794TIP3   OH274796   3.616   4.377   3.757  0.1966  0.2144 -0.2996
17794TIP3    H174797   3.627   4.282   3.764  2.4266  0.3879 -1.0906
17794TIP3    H274798   3.705   4.411   3.742 -0.5730  2.4190 -0.0799
17795TIP3   OH274799   5.114   0.343   3.112 -0.5246 -0.3089  0.7251
17795TIP3    H174800   5.144   0.431   3.089 -0.7939 -0.0495  1.3537
17795TIP3    H274801   5.191   0.288   3.100 -0.8061 -0.2981 -1.3598
17796TIP3   OH274802   5.289   0.999   4.512 -0.6948 -0.0382  0.3795
17796TIP3    H174803   5.248   1.076   4.472 -0.2368 -0.4053 -0.8004
17796TIP3    H274804   5.332   1.033   4.590 -0.1651  0.9740 -0.3447
17797TIP3   OH274805   3.851   5.885  14.387 -0.1731 -0.4577 -0.1977
17797TIP3    H174806   3.765   5.880  14.347 -0.1512  0.6545 -0.4021
17797TIP3    H274807   3.891   5.800  14.368 -2.4961 -2.3616  2.9113
17798TIP3   OH274808   2.595   3.129   5.717  0.0999  0.7937 -0.5096
17798TIP3    H174809   2.564   3.124   5.807 -0.7033 -2.0600 -0.8909
17798TIP3    H274810   2.552   3.206   5.681 -0.9787  0.9390  1.0319
17799TIP3   OH274811   5.612   6.278  11.154  0.1818 -0.2150  0.3329
17799TIP3    H174812   5.642   6.252  11.067  0.0424  0.4443  0.0854
17799TIP3    H274813   5.527   6.319  11.138 -0.4871 -1.3417  0.9395
17800TIP3   OH274814   6.155   5.716   2.299  0.1360 -0.0907  0.2012
17800TIP3    H174815   6.215   5.751   2.234 -0.6656  0.0759 -0.4541
17800TIP3    H274816   6.117   5.794   2.341  0.1361 -0.1943  0.3972
17801TIP3   OH274817   4.165   5.829   4.307  0.4912 -0.1714 -0.1067
17801TIP3    H174818   4.172   5.740   4.341 -1.9989 -0.2453  0.2473
17801TIP3    H274819   4.221   5.881   4.366  0.1495 -1.1240  1.0787
17802TIP3   OH274820   1.376   2.347  16.446  0.0543 -0.6128  0.2725
17802TIP3    H174821   1.363   2.302  16.362  0.3202 -2.1567  1.0439
17802TIP3    H274822   1.288   2.372  16.473 -0.0782 -0.4906 -0.2502
17803TIP3   OH274823   5.633   5.796   5.346  0.4637  0.0275 -0.5043
17803TIP3    H174824   5.603   5.728   5.407 -0.1884 -0.0736 -0.9306
17803TIP3    H274825   5.564   5.800   5.280  1.6135 -0.5293 -1.7686
17804TIP3   OH274826   2.207   5.326   2.174 -0.2022  0.7654  0.5015
17804TIP3    H174827   2.141   5.272   2.218  0.6564  0.3394  1.2717
17804TIP3    H274828   2.235   5.388   2.240  1.4413 -0.1813  0.7240
17805TIP3   OH274829   5.389   0.484   6.255  0.9539 -0.3556 -0.2692
17805TIP3    H174830   5.312   0.533   6.285  1.1359  0.4575 -1.0937
17805TIP3    H274831   5.355   0.398   6.230  0.1255  0.3220 -1.5694
17806TIP3   OH274832   0.370   0.853  11.971  0.0791 -0.4371  0.0164
17806TIP3    H174833   0.356   0.784  12.036 -1.1773  1.3608  1.6920
17806TIP3    H274834   0.443   0.904  12.006 -1.2717  1.1505  0.5306
17807TIP3   OH274835   4.949   1.688   2.112 -0.6873 -0.2130  0.5075
17807TIP3    H174836   4.970   1.707   2.203 -0.7883 -1.5469  0.8167
17807TIP3    H274837   4.877   1.626   2.116  1.1294 -2.4532 -0.4340
17808TIP3   OH274838   5.847   2.802  12.295  0.4005 -0.4426  0.3468
17808TIP3    H174839   5.758   2.770  12.288 -0.3218  1.5278  0.2952
17808TIP3    H274840   5.838   2.890  12.332  2.1910  0.5028 -1.3972
17809TIP3   OH274841   0.890   1.669   1.638  0.6251  0.1592  0.1794
17809TIP3    H174842   0.867   1.589   1.589  1.2717  0.1602 -0.1371
17809TIP3    H274843   0.958   1.711   1.584  1.9900 -0.2921  1.5115
17810TIP3   OH274844   6.281   6.293   1.188 -0.9919 -0.4163  0.0394
17810TIP3    H174845   6.278   6.332   1.276 -0.3177 -0.0099 -0.1181
17810TIP3    H274846   6.213   6.341   1.139  0.2409  0.9839 -0.3205
17811TIP3   OH274847   3.345   3.359  12.181 -0.0685  0.3024  0.2212
17811TIP3    H174848   3.299   3.275  12.175  1.0344 -0.3049  0.2615
17811TIP3    H274849   3.421   3.349  12.125 -1.4614  2.3006 -2.1331
17812TIP3   OH274850   1.964   1.083   3.056 -0.1405 -0.3695 -0.1063
17812TIP3    H174851   1.950   1.178   3.052 -1.5220 -0.5990 -1.4558
17812TIP3    H274852   1.954   1.061   3.149  0.8126  0.8819  0.3047
17813TIP3   OH274853   6.729   2.935   1.341 -0.0864 -0.3664 -0.3110
17813TIP3    H174854   6.664   2.930   1.271  1.6363 -0.4467 -1.9489
17813TIP3    H274855   6.772   2.849   1.339  0.8414  0.0876 -0.0294
17814TIP3   OH274856   0.945   2.323  14.642 -0.2484 -0.8263  0.1013
17814TIP3    H174857   1.036   2.295  14.647 -0.6464 -2.1187  0.2295
17814TIP3    H274858   0.949   2.419  14.639  1.0943 -0.8758  0.3422
17815TIP3   OH274859   3.726   6.179  13.420  0.0895  0.4035 -0.0547
17815TIP3    H174860   3.774   6.107  13.460 -0.7957  1.7767  3.7242
17815TIP3    H274861   3.792   6.247  13.405  0.2037  0.4385  0.5677
17816TIP3   OH274862   6.651   3.877  12.088 -0.4264  0.5937 -0.0283
17816TIP3    H174863   6.617   3.797  12.128  0.8895 -0.1997 -0.4558
17816TIP3    H274864   6.627   3.869  11.996 -1.6946  1.4691  0.2088
17817TIP3   OH274865   0.425   6.203  12.503  0.7128 -0.0501  0.3134
17817TIP3    H174866   0.370   6.223  12.427 -0.7833 -0.1164  1.3560
17817TIP3    H274867   0.463   6.117  12.484  1.6419  0.6585 -1.0815
17818TIP3   OH274868   5.882   4.899  15.959  0.0053  0.1352 -0.0044
17818TIP3    H174869   5.793   4.880  15.932  0.5303 -0.3649 -1.4374
17818TIP3    H274870   5.923   4.939  15.882  1.4489 -1.0469  0.1062
17819TIP3   OH274871   0.978   6.767   5.988  0.6605  0.2675 -0.3803
17819TIP3    H174872   0.967   6.838   5.924  0.6960  0.5649 -0.0594
17819TIP3    H274873   1.015   6.810   6.065 -0.3422  0.0869  0.2108
17820TIP3   OH274874   4.413   2.998  11.667 -0.0047  0.4473  0.3235
17820TIP3    H174875   4.441   3.081  11.630  0.4554  1.8496  3.7012
17820TIP3    H274876   4.494   2.955  11.695 -0.4521  0.0657  1.0569
17821TIP3   OH274877   3.638   5.193  12.138 -0.1954 -0.1102  1.3254
17821TIP3    H174878   3.701   5.241  12.192 -1.5795  1.2937  1.7140
17821TIP3    H274879   3.655   5.224  12.049  0.8301 -1.0375  1.1878
17822TIP3   OH274880   6.398   5.668   5.351 -0.5929 -0.7069  0.2745
17822TIP3    H174881   6.304   5.678   5.366 -0.2702 -0.2266  2.0974
17822TIP3    H274882   6.439   5.693   5.434  1.1863 -0.3620 -0.6689
17823TIP3   OH274883   5.431   1.567   0.578  0.1102  0.0230 -0.3498
17823TIP3    H174884   5.433   1.487   0.525  0.6503  0.3090 -0.7672
17823TIP3    H274885   5.423   1.638   0.514  0.1211  0.3309 -0.0096
17824TIP3   OH274886   5.748   5.557  12.526 -0.3070 -0.0534  0.2738
17824TIP3    H174887   5.676   5.533  12.467 -1.0150  0.7901  0.7843
17824TIP3    H274888   5.758   5.481  12.583 -1.6228  0.2930  0.9900
17825TIP3   OH274889   3.992   2.218   4.697 -0.4616 -0.3324  0.6543
17825TIP3    H174890   3.907   2.260   4.702 -0.5273 -0.5596  1.6434
17825TIP3    H274891   3.977   2.138   4.647 -0.8988 -0.5329  1.1062
17826TIP3   OH274892   4.482   5.797  13.972 -0.3468 -0.8429  0.0189
17826TIP3    H174893   4.444   5.737  13.907 -1.7402 -1.0508  1.0113
17826TIP3    H274894   4.438   5.775  14.054  1.1987 -0.3850  0.9986
17827TIP3   OH274895   5.570   2.276   2.966  0.6306 -0.6659 -0.7228
17827TIP3    H174896   5.619   2.358   2.974 -0.5987 -0.0638  0.9823
17827TIP3    H274897   5.611   2.218   3.030  0.1859 -0.6832 -0.4464
17828TIP3   OH274898   0.273   5.283   5.757  0.7736  0.2570  0.0518
17828TIP3    H174899   0.360   5.315   5.784  0.8612 -0.3207  0.4663
17828TIP3    H274900   0.213   5.353   5.783  0.5696 -1.1992  3.8448
17829TIP3   OH274901   3.285   6.102   2.440 -0.4175 -0.1122  0.6127
17829TIP3    H174902   3.305   6.116   2.348  2.4722  2.2675  1.4967
17829TIP3    H274903   3.350   6.038   2.469 -0.9849 -0.4725  1.0891
17830TIP3   OH274904   1.349   1.812  12.054  0.1747  0.3605 -0.1571
17830TIP3    H174905   1.364   1.847  12.141  1.2040  2.6649 -1.2266
17830TIP3    H274906   1.254   1.804  12.047 -0.0010  1.6798  0.6072
17831TIP3   OH274907   3.038   0.438   1.230 -0.1661  0.4035  0.0603
17831TIP3    H174908   2.964   0.389   1.267  1.7699 -0.9783  2.3139
17831TIP3    H274909   3.036   0.418   1.137 -2.4876  0.2250  0.1163
17832TIP3   OH274910   4.899   4.336  15.707 -0.6999 -0.0069  0.0811
17832TIP3    H174911   4.856   4.389  15.774  0.1203 -0.7118  1.1848
17832TIP3    H274912   4.929   4.400  15.642  1.4423  1.0549  2.0372
17833TIP3   OH274913   5.195   4.927  12.913 -0.0183 -0.2160 -0.2783
17833TIP3    H174914   5.136   4.934  12.987  2.4555 -2.3958  2.0102
17833TIP3    H274915   5.239   5.013  12.909  0.5761 -0.4241  1.4739
17834TIP3   OH274916   3.495   4.977   3.000  0.1934  0.1559  0.2983
17834TIP3    H174917   3.442   5.057   3.001  0.0777  0.1012 -0.5263
17834TIP3    H274918   3.549   4.982   3.078 -1.2626  0.0657  1.3352
17835TIP3   OH274919   2.006   0.680   3.107 -0.1056 -0.3491 -0.3360
17835TIP3    H174920   2.052   0.729   3.040 -0.3536  0.4656  0.0842
17835TIP3    H274921   1.913   0.693   3.087 -0.1780 -0.2883  0.0294
17836TIP3   OH274922   1.288   2.189  16.818 -0.1314  0.5823 -0.2810
17836TIP3    H174923   1.234   2.161  16.892  0.9915  0.6125  0.5668
17836TIP3    H274924   1.226   2.229  16.756 -1.2579 -0.6076  0.0572
17837TIP3   OH274925   2.902   4.619   5.754  0.4145  0.6931 -0.6124
17837TIP3    H174926   2.893   4.646   5.662 -1.5507 -2.0612 -1.3024
17837TIP3    H274927   2.940   4.695   5.798  1.3463  2.0829 -3.6958
17838TIP3   OH274928   1.911   1.880   1.612 -0.3490 -0.2137 -0.0878
17838TIP3    H174929   1.818   1.882   1.591  0.0281 -0.3235 -1.8967
17838TIP3    H274930   1.940   1.971   1.597  0.1197 -0.5056 -1.0246
17839TIP3   OH274931   6.455   5.923  17.006  0.1456 -0.0152  0.3059
17839TIP3    H174932   6.367   5.957  17.022 -0.2284 -0.9360  0.1848
17839TIP3    H274933   6.495   5.920  17.094  0.1039  0.5098  0.3490
17840TIP3   OH274934   6.547   0.281  15.263 -0.1402  0.2490 -0.3694
17840TIP3    H174935   6.580   0.366  15.233 -0.0677  0.4752  0.3539
17840TIP3    H274936   6.473   0.302  15.319 -0.7487 -0.2110 -0.9863
17841TIP3   OH274937   6.114   6.130  13.672  0.2289 -0.6114  0.1261
17841TIP3    H174938   6.123   6.187  13.596 -0.7491 -1.5853 -0.7305
17841TIP3    H274939   6.096   6.189  13.745 -0.7012  0.1743 -0.7349
17842TIP3   OH274940   5.668   5.901  15.070  0.0594  0.3274  0.0566
17842TIP3    H174941   5.706   5.974  15.120  1.2488  0.4016 -0.9269
17842TIP3    H274942   5.575   5.922  15.063  0.1312  1.0168  1.0298
17843TIP3   OH274943   2.023   1.306   5.272 -0.7914 -0.0088 -0.9059
17843TIP3    H174944   2.071   1.237   5.318 -0.6743  0.6616  0.0033
17843TIP3    H274945   2.034   1.286   5.179 -0.3170 -0.9132 -0.6546
17844TIP3   OH274946   4.707   0.863   0.647  0.2776 -0.1931 -0.2365
17844TIP3    H174947   4.640   0.810   0.603 -0.9840  2.3308 -1.4127
17844TIP3    H274948   4.723   0.937   0.588 -2.0117  3.7180  3.7727
17845TIP3   OH274949   4.639   5.135   4.949  0.3389  0.4401  0.1909
17845TIP3    H174950   4.670   5.180   4.871  0.3402 -2.0650 -1.3058
17845TIP3    H274951   4.704   5.156   5.016  0.8226  1.8918 -0.7173
17846TIP3   OH274952   5.690   0.294  12.453  0.4568  0.0207  0.7112
17846TIP3    H174953   5.761   0.232  12.473 -1.7239 -2.5422  0.7998
17846TIP3    H274954   5.619   0.269  12.512 -0.6356  2.3703  0.4350
17847TIP3   OH274955   4.259   0.274  16.057 -0.0102 -0.0355 -0.4614
17847TIP3    H174956   4.168   0.302  16.062  0.3162  1.5064 -2.3429
17847TIP3    H274957   4.309   0.353  16.076  0.9532 -0.8483  0.4558
17848TIP3   OH274958   2.745   6.721  13.148  0.0872  0.0872  0.3167
17848TIP3    H174959   2.735   6.635  13.107  0.4536 -0.2693  0.9679
17848TIP3    H274960   2.655   6.755  13.154  0.0993  0.5150 -1.5334
17849TIP3   OH274961   6.250   3.834  16.274  0.2635 -0.5563  0.7062
17849TIP3    H174962   6.260   3.919  16.317  0.6539 -1.0963  1.6927
17849TIP3    H274963   6.158   3.812  16.285  0.0858 -0.1019  0.1437
17850TIP3   OH274964   0.753   6.529   2.904 -0.1497 -0.0278 -0.0339
17850TIP3    H174965   0.733   6.524   2.810 -1.1177 -0.7222  0.2025
17850TIP3    H274966   0.747   6.438   2.934  1.4314  0.0107  0.4553
17851TIP3   OH274967   0.507   1.767  16.013  0.1205  0.1723 -0.6182
17851TIP3    H174968   0.431   1.824  16.027  0.3893  0.3854  0.0014
17851TIP3    H274969   0.539   1.791  15.926 -0.8151 -0.2665 -1.0884
17852TIP3   OH274970   1.883   2.432   0.369  0.2600  0.6034  0.4647
17852TIP3    H174971   1.823   2.450   0.296  0.4577  0.5413  0.2853
17852TIP3    H274972   1.833   2.453   0.447 -0.1081  0.2536  0.3295
17853TIP3   OH274973   0.828   5.669  12.836  0.1192 -0.4233 -0.0864
17853TIP3    H174974   0.923   5.673  12.830  0.5104  0.3603  4.4074
17853TIP3    H274975   0.799   5.760  12.826 -0.3136 -0.8202 -2.7017
17854TIP3   OH274976   2.856   0.559   5.783 -0.1607 -0.0998 -0.4642
17854TIP3    H174977   2.796   0.630   5.760 -1.0506 -0.6185  0.1968
17854TIP3    H274978   2.835   0.538   5.874  0.9833 -0.3447 -0.2515
17855TIP3   OH274979   4.684   2.443  10.679 -0.2794 -0.1104  0.5402
17855TIP3    H174980   4.628   2.386  10.625  0.4900 -1.1768  0.8661
17855TIP3    H274981   4.633   2.524  10.687 -0.4421  0.0538 -1.7427
17856TIP3   OH274982   1.880   3.799  13.677 -0.6450 -0.8200 -0.2426
17856TIP3    H174983   1.822   3.846  13.618 -1.1549  0.4432  1.2502
17856TIP3    H274984   1.938   3.749  13.619 -1.6890 -0.2686 -1.7786
17857TIP3   OH274985   2.755   0.704  13.544  0.2341  0.5759  0.1428
17857TIP3    H174986   2.782   0.640  13.478 -1.9490  0.1352 -0.3556
17857TIP3    H274987   2.752   0.655  13.626  0.9996  0.6393  0.2078
17858TIP3   OH274988   1.535   0.324   1.021  0.2154  0.4482  0.4428
17858TIP3    H174989   1.509   0.375   1.098 -0.8303  2.6647 -1.2897
17858TIP3    H274990   1.473   0.352   0.953 -0.5320 -3.3373 -0.5468
17859TIP3   OH274991   1.839   5.825  15.502 -0.7723  0.5294  0.7828
17859TIP3    H174992   1.812   5.739  15.533  2.6876 -0.8631  0.0527
17859TIP3    H274993   1.810   5.828  15.410  0.8264 -0.6476  0.2274
17860TIP3   OH274994   5.353   4.556   1.304 -0.3546  0.0889 -0.4160
17860TIP3    H174995   5.367   4.639   1.258 -0.1831  0.4688  0.3013
17860TIP3    H274996   5.418   4.497   1.267 -0.9883  0.0499 -1.4789
17861TIP3   OH274997   4.785   3.095   3.379  0.1489  0.5649  0.9009
17861TIP3    H174998   4.869   3.124   3.343  0.3423 -1.8549 -0.7119
17861TIP3    H274999   4.731   3.174   3.378  1.3395  1.4182 -1.2583
17862TIP3   OH275000   1.199   5.158  14.966  0.1672 -0.7800 -1.1769
17862TIP3    H175001   1.258   5.183  14.895 -0.1695 -0.9792 -1.5282
17862TIP3    H275002   1.116   5.138  14.923 -1.2959  3.1013 -0.3699
17863TIP3   OH275003   5.396   3.772  13.412 -0.0064  0.2900  0.4474
17863TIP3    H175004   5.359   3.802  13.329  0.0655  1.2101  0.7431
17863TIP3    H275005   5.490   3.767  13.396 -0.0116  0.2959  0.4169
17864TIP3   OH275006   4.300   1.571  14.425  0.2941  0.3865 -0.3447
17864TIP3    H175007   4.245   1.543  14.498  0.1581  1.7373  0.0960
17864TIP3    H275008   4.245   1.632  14.376  1.0797  1.0299 -0.4374
17865TIP3   OH275009   0.661   0.251   3.936  0.2186 -0.3644 -0.2538
17865TIP3    H175010   0.719   0.203   3.877  1.1918  0.4252  0.0571
17865TIP3    H275011   0.573   0.236   3.900  0.5475 -1.9918 -0.4204
17866TIP3   OH275012   5.905   4.236  13.802  0.1194  0.0220 -0.4428
17866TIP3    H175013   5.997   4.216  13.816  0.2305  1.0035  0.2665
17866TIP3    H275014   5.901   4.331  13.800 -1.0412  0.0179  0.7315
17867TIP3   OH275015   0.591   4.321   2.890  0.0771 -0.1969  0.0447
17867TIP3    H175016   0.546   4.243   2.922  2.0723 -1.2970  0.2136
17867TIP3    H275017   0.636   4.292   2.811 -1.0115  1.3703 -1.2044
17868TIP3   OH275018   5.946   2.376  13.201  0.2796  0.8824  0.1862
17868TIP3    H175019   5.891   2.297  13.200 -2.8952  2.9844  1.5057
17868TIP3    H275020   6.008   2.363  13.129 -0.7409 -2.4119 -0.1706
17869TIP3   OH275021   0.869   3.531  12.529  0.1494 -0.3937  0.6173
17869TIP3    H175022   0.885   3.555  12.438  0.4510  0.8932  0.9973
17869TIP3    H275023   0.875   3.435  12.530 -1.4500 -0.5331 -1.0012
17870TIP3   OH275024   2.696   1.959   1.646  0.0553  0.0196 -0.0963
17870TIP3    H175025   2.669   1.883   1.697  2.6723 -1.5165 -0.9396
17870TIP3    H275026   2.619   2.016   1.646 -1.3962 -1.8629  1.9356
17871TIP3   OH275027   4.092   4.226  12.242  0.5589 -0.1752  0.1400
17871TIP3    H175028   4.073   4.220  12.149  2.2635  0.5753 -0.2834
17871TIP3    H275029   4.133   4.143  12.264 -0.4446 -0.6167  0.3890
17872TIP3   OH275030   2.266   4.587   0.243 -0.7469 -0.0553 -0.0612
17872TIP3    H175031   2.221   4.540   0.172 -0.3586 -1.6132  0.7028
17872TIP3    H275032   2.259   4.680   0.219 -2.5210 -0.4214 -1.0171
17873TIP3   OH275033   0.342   2.506   3.333  0.0640 -0.4975  0.0497
17873TIP3    H175034   0.319   2.566   3.404 -0.3654  0.4901 -0.9174
17873TIP3    H275035   0.321   2.419   3.367 -1.4384  0.0846  0.6178
17874TIP3   OH275036   4.781   2.257   1.737 -0.0545 -0.3256 -0.2551
17874TIP3    H175037   4.762   2.256   1.830  2.1526 -0.6540  0.2183
17874TIP3    H275038   4.838   2.182   1.723 -0.4871 -0.3717 -1.9038
17875TIP3   OH275039   3.420   2.227  15.863 -0.0861 -0.0821  0.6004
17875TIP3    H175040   3.482   2.295  15.839 -1.5441  1.1345  0.1702
17875TIP3    H275041   3.446   2.151  15.810 -0.4182  1.1594 -1.4322
17876TIP3   OH275042   1.498   0.915   2.998  0.2309  0.0790  0.2578
17876TIP3    H175043   1.497   0.936   2.904 -2.1438 -0.4793  0.1299
17876TIP3    H275044   1.523   0.997   3.040  1.0524  0.4096 -0.8491
17877TIP3   OH275045   5.362   5.419  16.906 -0.7365 -0.1335 -0.3920
17877TIP3    H175046   5.340   5.512  16.911  2.2054  0.6202 -0.9205
17877TIP3    H275047   5.456   5.416  16.922 -1.1948 -3.2752  2.1864
17878TIP3   OH275048   0.476   4.685  15.552  0.3697 -0.0230  0.1764
17878TIP3    H175049   0.408   4.628  15.586  0.6427 -0.5393 -0.1383
17878TIP3    H275050   0.517   4.635  15.482  0.4743  0.6377 -0.2446
17879TIP3   OH275051   6.569   2.021   2.001  0.1780 -0.0311 -0.1479
17879TIP3    H175052   6.620   1.954   2.047  0.4970  0.3966  0.1269
17879TIP3    H275053   6.582   2.001   1.908  1.3720  0.4572 -0.0972
17880TIP3   OH275054   3.718   2.499   4.006 -0.4776  0.3158 -0.1055
17880TIP3    H175055   3.625   2.521   3.997  0.1606  2.5742 -1.7332
17880TIP3    H275056   3.754   2.509   3.918  1.4472  0.1088  0.6273
17881TIP3   OH275057   4.156   6.666  16.054  0.2895 -0.2263  0.0547
17881TIP3    H175058   4.150   6.573  16.076  2.1020 -0.6483 -1.1624
17881TIP3    H275059   4.226   6.700  16.109  0.9847 -0.0272 -0.9463
17882TIP3   OH275060   1.919   2.798   6.689  0.4282 -0.1256 -0.8600
17882TIP3    H175061   1.875   2.714   6.672  2.4290 -1.7436  1.6241
17882TIP3    H275062   2.005   2.774   6.722  0.1577  2.8443  2.3329
17883TIP3   OH275063   0.069   1.155  13.202  0.0259  0.0549  0.5862
17883TIP3    H175064   0.163   1.172  13.204  0.0045  0.0092  3.0446
17883TIP3    H275065   0.062   1.061  13.217 -0.4279  0.1298  0.8330
17884TIP3   OH275066   1.112   1.133   1.933  0.0231 -0.0552 -0.2760
17884TIP3    H175067   1.082   1.071   1.866 -0.6702  0.7424 -0.7165
17884TIP3    H275068   1.185   1.088   1.976 -0.5901 -1.2576 -0.4543
17885TIP3   OH275069   3.253   2.168  11.641 -0.4863 -0.2559 -0.6911
17885TIP3    H175070   3.168   2.209  11.658 -0.7142 -0.3216 -1.6400
17885TIP3    H275071   3.257   2.094  11.701  0.7646  2.2457  2.4726
17886TIP3   OH275072   3.624   1.079  11.254 -0.1608 -0.1693  0.3472
17886TIP3    H175073   3.684   1.075  11.328 -0.4049  1.1883  0.6249
17886TIP3    H275074   3.596   1.170  11.250 -1.5056 -0.5883 -0.3322
17887TIP3   OH275075   3.084   5.904  15.616  0.3395 -0.0143 -0.1713
17887TIP3    H175076   3.006   5.854  15.637  1.2019 -0.7621  1.3015
17887TIP3    H275077   3.121   5.860  15.539  0.3554 -0.8303  0.2989
17888TIP3   OH275078   5.407   3.566   4.280  0.7038  0.3229 -0.2286
17888TIP3    H175079   5.442   3.625   4.347  1.8886 -2.0387  1.3025
17888TIP3    H275080   5.480   3.551   4.220  0.5890 -0.0048 -0.2905
17889TIP3   OH275081   3.187   3.821   3.883  0.3462  0.3813  0.3674
17889TIP3    H175082   3.235   3.878   3.823 -0.6472  1.3444  0.4889
17889TIP3    H275083   3.100   3.811   3.844  0.0188  0.1953  1.1283
17890TIP3   OH275084   6.209   1.543  10.642 -0.1476  0.6522  0.4467
17890TIP3    H175085   6.175   1.629  10.618  0.1952  0.8113  0.5200
17890TIP3    H275086   6.270   1.560  10.714  0.9282  0.5109 -0.4048
17891TIP3   OH275087   3.487   6.572  15.516  0.7303  0.3703  0.2464
17891TIP3    H175088   3.442   6.656  15.503 -0.1517 -0.1517 -0.1450
17891TIP3    H275089   3.421   6.507  15.493  0.9792 -0.4638  1.8156
17892TIP3   OH275090   3.525   1.291  16.111  0.2560  0.1629 -0.1247
17892TIP3    H175091   3.519   1.383  16.086  1.1312  0.5813  1.1492
17892TIP3    H275092   3.446   1.275  16.163  1.4064  0.9347  1.9074
17893TIP3   OH275093   5.773   6.099  15.672  0.2771  0.1491  0.1255
17893TIP3    H175094   5.841   6.113  15.737  1.1920  1.1929 -1.0291
17893TIP3    H275095   5.692   6.126  15.715  0.9272  1.1968  0.7142
17894TIP3   OH275096   5.361   4.090   5.809 -0.0122 -0.3078  0.6847
17894TIP3    H175097   5.445   4.135   5.823 -0.5017  0.5645  0.8555
17894TIP3    H275098   5.383   4.014   5.756  0.7802  0.3339  0.0791
17895TIP3   OH275099   1.604   1.314  14.987  0.3716 -0.4497  0.2703
17895TIP3    H175100   1.613   1.275  14.901  2.7688 -1.1826  0.8007
17895TIP3    H275101   1.628   1.406  14.974  1.6899 -0.7769  0.3127
17896TIP3   OH275102   5.962   4.416  12.928 -0.0950  0.3279  0.0142
17896TIP3    H175103   5.937   4.465  13.006 -0.9879 -0.9410  0.5580
17896TIP3    H275104   5.950   4.477  12.855  2.1060  1.9847  0.9831
17897TIP3   OH275105   3.397   2.437   6.238 -0.0431 -0.3241 -0.4568
17897TIP3    H175106   3.476   2.454   6.186  0.1023 -0.0277 -0.1468
17897TIP3    H275107   3.353   2.522   6.241 -0.8640 -0.7106 -1.4320
17898TIP3   OH275108   2.824   1.300   2.606 -0.0235  0.6595  0.1997
17898TIP3    H175109   2.876   1.365   2.653  1.5300  0.4522 -1.1926
17898TIP3    H275110   2.855   1.216   2.642  2.8250  0.3627 -2.6977
17899TIP3   OH275111   0.123   2.156  13.618  0.1119  0.0195  0.0193
17899TIP3    H175112   0.179   2.106  13.557 -2.2228 -0.4282 -1.8180
17899TIP3    H275113   0.152   2.247  13.607  1.5302 -0.3855  0.2516
17900TIP3   OH275114   1.611   5.465  13.711 -0.0992  0.3051 -0.5812
17900TIP3    H175115   1.610   5.509  13.626  2.2139 -0.8707 -1.2476
17900TIP3    H275116   1.587   5.375  13.691  0.6570 -0.0218 -0.0147
17901TIP3   OH275117   2.246   4.214   1.043  0.3626  0.6025  0.3140
17901TIP3    H175118   2.161   4.171   1.051  0.6638  0.0256  0.4833
17901TIP3    H275119   2.227   4.300   1.008 -0.2928  0.4673  0.3412
17902TIP3   OH275120   4.988   6.126   3.645  0.4265  0.0822  0.0999
17902TIP3    H175121   5.076   6.125   3.609 -0.0673 -1.9917 -1.1328
17902TIP3    H275122   4.943   6.196   3.599  0.1450 -1.7732 -2.5898
17903TIP3   OH275123   6.042   1.492   0.160  0.0872 -0.7967 -0.2353
17903TIP3    H175124   6.057   1.532   0.074 -1.1394 -1.1235 -0.6118
17903TIP3    H275125   6.001   1.408   0.141  0.6274 -1.2731  0.6464
17904TIP3   OH275126   0.104   3.925   2.912 -0.5884  0.2862  0.4504
17904TIP3    H175127   0.128   3.966   2.995  0.9300  1.4406 -0.5272
17904TIP3    H275128   0.028   3.974   2.882 -0.1096  0.9733  0.3473
17905TIP3   OH275129   3.384   6.447  14.176 -0.4491  0.2327 -0.3039
17905TIP3    H175130   3.390   6.360  14.137  0.2657  0.5910 -0.9957
17905TIP3    H275131   3.474   6.475  14.188 -0.6822  1.1445 -0.6706
17906TIP3   OH275132   3.605   5.247  16.952 -0.2335  0.6175 -0.4392
17906TIP3    H175133   3.684   5.199  16.927 -0.2710  0.0215  0.5346
17906TIP3    H275134   3.546   5.237  16.878  1.3987  2.9130 -2.0955
17907TIP3   OH275135   5.262   1.334   0.891 -0.3718  0.1152  0.2065
17907TIP3    H175136   5.308   1.409   0.928  0.1182 -0.7406  1.3549
17907TIP3    H275137   5.171   1.348   0.914 -0.7296  1.7838 -2.0153
17908TIP3   OH275138   3.889   1.027  14.809 -0.4574 -0.0623 -0.1708
17908TIP3    H175139   3.795   1.020  14.822 -0.3798 -0.3089  0.2606
17908TIP3    H275140   3.906   0.980  14.728 -0.7134  0.0259 -0.2747
17909TIP3   OH275141   4.094   1.845   1.831 -0.5021  0.2072 -0.2746
17909TIP3    H175142   4.138   1.913   1.781 -0.7488 -0.6053 -1.6173
17909TIP3    H275143   4.007   1.881   1.849 -0.3473  0.5773 -0.2611
17910TIP3   OH275144   5.246   2.822  11.746 -0.1815 -0.0517 -0.3964
17910TIP3    H175145   5.261   2.916  11.754 -0.4742 -0.1849  2.4745
17910TIP3    H275146   5.154   2.809  11.772 -0.2944 -1.0639 -1.2528
17911TIP3   OH275147   4.978   6.693  11.048  0.2601 -0.0526 -0.5061
17911TIP3    H175148   4.971   6.641  11.127 -0.7837  0.6776 -0.1067
17911TIP3    H275149   4.888   6.712  11.023  0.5761 -0.2275 -1.8393
17912TIP3   OH275150   6.578   4.756   3.976  0.0558  0.3540  0.2813
17912TIP3    H175151   6.659   4.770   3.927 -0.6353  0.2978 -0.8920
17912TIP3    H275152   6.522   4.830   3.951 -1.0038 -0.7044 -0.4730
17913TIP3   OH275153   2.399   2.862   6.077  0.3834  0.1853 -0.1376
17913TIP3    H175154   2.415   2.779   6.121  1.2460  1.0122  1.1245
17913TIP3    H275155   2.325   2.901   6.124 -0.5714 -0.2310 -1.2572
17914TIP3   OH275156   5.668   0.488  16.730 -0.4812 -0.4324  0.2921
17914TIP3    H175157   5.708   0.418  16.678 -1.5013  1.6010 -3.3952
17914TIP3    H275158   5.726   0.564  16.716 -1.0828  0.2932  1.6825
17915TIP3   OH275159   2.959   2.623  11.683  0.5464  0.4187  0.3263
17915TIP3    H175160   2.867   2.598  11.695 -0.1170  1.9780 -1.3874
17915TIP3    H275161   2.968   2.640  11.590  1.8422  3.0537  0.8775
17916TIP3   OH275162   1.940   3.512  12.649  0.2887 -0.4040  0.0374
17916TIP3    H175163   1.926   3.506  12.555  0.3386 -3.6677  0.1835
17916TIP3    H275164   1.853   3.512  12.688  0.2934 -0.7655  0.0513
17917TIP3   OH275165   1.704   5.576  15.498 -0.7095 -0.6202 -0.7219
17917TIP3    H175166   1.656   5.511  15.550 -0.0475 -0.2663  0.3573
17917TIP3    H275167   1.637   5.618  15.444 -1.2938 -1.5148 -0.7040
17918TIP3   OH275168   5.780   2.694   5.394 -0.3978 -0.1980 -0.3180
17918TIP3    H175169   5.788   2.728   5.484 -0.1888  0.5696 -0.6248
17918TIP3    H275170   5.868   2.703   5.357 -0.5353 -0.3206 -0.6721
17919TIP3   OH275171   6.679   3.584  13.387  0.5633  0.0417 -0.0439
17919TIP3    H175172   6.706   3.587  13.479  0.6001  0.2118 -0.0615
17919TIP3    H275173   6.615   3.655  13.379 -0.5918 -0.9576  0.2284
17920TIP3   OH275174   1.820   4.597   1.473  0.1009  0.0249 -0.1302
17920TIP3    H175175   1.833   4.509   1.438  0.1268 -0.2098  0.4628
17920TIP3    H275176   1.761   4.585   1.548  1.0023  0.3602  0.6457
17921TIP3   OH275177   2.085   3.635  10.455 -0.3389 -0.1945  0.3342
17921TIP3    H175178   2.059   3.547  10.482  1.4572 -0.3318  1.6831
17921TIP3    H275179   2.122   3.675  10.534  0.9085  0.9879 -0.8187
17922TIP3   OH275180   4.894   6.519   0.147  0.0060 -0.5723 -0.7785
17922TIP3    H175181   4.903   6.542   0.055 -1.5236  0.2667 -0.7499
17922TIP3    H275182   4.818   6.570   0.176  0.9997 -0.1412  1.1570
17923TIP3   OH275183   0.188   0.789  17.148  1.1004 -0.7668  0.1236
17923TIP3    H175184   0.175   0.858  17.213 -0.9728 -0.0756 -0.9968
17923TIP3    H275185   0.109   0.735  17.154  1.9777 -2.1067 -0.1415
17924TIP3   OH275186   2.339   5.650   1.184 -0.0153 -0.4308  0.1544
17924TIP3    H175187   2.355   5.556   1.189  0.1146 -0.4348 -0.3244
17924TIP3    H275188   2.260   5.664   1.236 -1.2850 -1.1111 -1.5674
17925TIP3   OH275189   0.807   3.628  16.342 -0.7686 -0.0879  0.5126
17925TIP3    H175190   0.764   3.564  16.398  1.0498 -0.7471  1.2117
17925TIP3    H275191   0.900   3.603  16.344 -0.4093  1.0160 -1.2797
17926TIP3   OH275192   5.569   3.569   5.575 -0.3187  0.2588  0.3921
17926TIP3    H175193   5.495   3.508   5.574 -0.4430  0.4148 -0.1880
17926TIP3    H275194   5.642   3.519   5.538 -0.1284  0.1025  0.9743
17927TIP3   OH275195   4.507   1.047  11.724  0.8834  0.5540  0.4280
17927TIP3    H175196   4.537   1.138  11.719  0.6679  0.6642  1.1290
17927TIP3    H275197   4.581   0.998  11.758  0.6056  0.6677  1.2141
17928TIP3   OH275198   5.873   6.080  15.180  0.4534 -0.4385 -0.1660
17928TIP3    H175199   5.912   6.158  15.143 -0.5114  0.6282  1.0140
17928TIP3    H275200   5.898   6.083  15.273 -1.4170 -0.3473  0.3555
17929TIP3   OH275201   3.972   4.890   4.379 -0.3774  0.1994  0.3634
17929TIP3    H175202   3.917   4.955   4.423  0.0574  0.1599  0.9664
17929TIP3    H275203   4.054   4.936   4.360 -1.2031  0.7699 -2.0639
17930TIP3   OH275204   4.634   3.563  14.348  0.0486  0.7996  0.2136
17930TIP3    H175205   4.632   3.468  14.357 -0.0952  0.6207 -1.5641
17930TIP3    H275206   4.550   3.592  14.382  0.6010  0.4343  1.9909
17931TIP3   OH275207   4.251   0.046   0.955 -0.4458 -0.4154 -0.2196
17931TIP3    H175208   4.308   0.123   0.960 -0.5352 -0.4000  0.6358
17931TIP3    H275209   4.308  -0.023   0.920  0.9511 -1.1612  3.2550
17932TIP3   OH275210   4.201   5.910   5.365  0.4575 -0.2464  0.5805
17932TIP3    H175211   4.261   5.879   5.297 -0.7269 -0.5900 -0.3413
17932TIP3    H275212   4.243   5.987   5.402  1.0117  0.0857 -0.7344
17933TIP3   OH275213   5.334   0.497   0.089 -0.5922 -0.2446 -0.2140
17933TIP3    H175214   5.299   0.408   0.090 -0.7954 -0.1589  0.2439
17933TIP3    H275215   5.392   0.502   0.165 -1.3905  0.3323  0.3658
17934TIP3   OH275216   1.375   3.101   1.895 -0.1874 -0.2020 -0.4729
17934TIP3    H175217   1.384   3.192   1.925  0.1300  0.0752 -1.3638
17934TIP3    H275218   1.453   3.087   1.841 -0.1320 -1.0748 -0.1608
17935TIP3   OH275219   6.691   6.339  15.846  0.1406 -0.4463  0.9040
17935TIP3    H175220   6.598   6.323  15.857  0.3929 -0.9409  2.3731
17935TIP3    H275221   6.723   6.360  15.933  0.9490  2.2668  0.0099
17936TIP3   OH275222   1.848   5.071  11.384 -0.2524 -0.0676  0.2316
17936TIP3    H175223   1.885   5.058  11.471  0.8834 -0.3085 -0.2649
17936TIP3    H275224   1.769   5.122  11.399  1.0855  1.8162  1.2379
17937TIP3   OH275225   2.932   2.200   3.191 -0.4559  0.2451 -0.0708
17937TIP3    H175226   3.013   2.224   3.236 -1.7629  0.3810  2.3502
17937TIP3    H275227   2.912   2.112   3.223 -2.0808  0.8444  0.6195
17938TIP3   OH275228   0.376   4.614   5.178 -0.0611 -0.0891 -0.7819
17938TIP3    H175229   0.309   4.546   5.172  1.3276 -1.4341 -1.1746
17938TIP3    H275230   0.453   4.570   5.214  0.1465  1.8035  1.1564
17939TIP3   OH275231   5.990   2.949   1.275 -0.2555 -0.4790 -0.1062
17939TIP3    H175232   5.911   2.921   1.322  0.1678 -1.6207 -0.0703
17939TIP3    H275233   6.061   2.936   1.337  0.0401  0.0246 -0.3330
17940TIP3   OH275234   5.716   1.180  10.920  0.4498 -0.2210  0.4038
17940TIP3    H175235   5.715   1.122  10.844  1.5452 -2.1455  1.8352
17940TIP3    H275236   5.809   1.194  10.937  0.2001  0.4996  1.1951
17941TIP3   OH275237   1.295   2.091  14.308 -0.4240 -0.3473  0.5250
17941TIP3    H175238   1.204   2.094  14.336 -0.5090 -1.1846  0.3542
17941TIP3    H275239   1.340   2.154  14.365 -0.9412 -0.6181  1.2390
17942TIP3   OH275240   3.414   0.908  13.670  0.6091  0.1550 -0.0241
17942TIP3    H175241   3.497   0.945  13.699 -0.0266  0.6099  1.2388
17942TIP3    H275242   3.429   0.885  13.578  2.3024 -0.2903  0.3442
17943TIP3   OH275243   4.791   1.133  13.779 -0.3537  0.0433 -0.2030
17943TIP3    H175244   4.774   1.061  13.841  0.6054  0.2255  0.2911
17943TIP3    H275245   4.710   1.183  13.778 -0.9259 -0.8622 -0.3013
17944TIP3   OH275246   1.726   2.585   0.975  0.0039 -0.2310 -0.1231
17944TIP3    H175247   1.667   2.570   1.049  0.5431 -0.2887  0.2961
17944TIP3    H275248   1.747   2.497   0.944 -1.3879 -0.1797 -1.2819
17945TIP3   OH275249   5.393   0.541  11.483 -0.1430 -0.1375  0.0290
17945TIP3    H175250   5.329   0.584  11.540 -1.5407 -1.6137 -0.4123
17945TIP3    H275251   5.472   0.535  11.537 -0.7128  0.6526  0.9742
17946TIP3   OH275252   2.293   4.132   5.326  0.0172 -0.1311  0.5060
17946TIP3    H175253   2.381   4.170   5.330  0.3320 -0.5087 -1.9424
17946TIP3    H275254   2.269   4.118   5.417  2.6242 -0.2745  1.2175
17947TIP3   OH275255   4.056   5.731   1.788 -0.2688  0.2185  0.0958
17947TIP3    H175256   4.069   5.657   1.729  1.1072  0.5432 -0.0235
17947TIP3    H275257   3.973   5.770   1.759  0.0068 -0.0864 -1.1232
17948TIP3   OH275258   0.227   3.927  16.831 -0.4838  0.0579 -0.1145
17948TIP3    H175259   0.275   3.883  16.901 -1.1228 -0.1290  0.2140
17948TIP3    H275260   0.257   3.885  16.751  1.8294  1.6914 -0.1639
17949TIP3   OH275261   0.963   2.987  13.293 -0.7485  0.4912 -0.6216
17949TIP3    H175262   1.014   3.037  13.356 -0.2157 -0.1237 -0.5621
17949TIP3    H275263   0.928   3.052  13.233  0.1347  0.9101 -0.6839
17950TIP3   OH275264   0.237   1.683  11.277 -0.0648 -0.4220  0.0919
17950TIP3    H175265   0.234   1.702  11.183 -1.4827  1.0879  0.4083
17950TIP3    H275266   0.315   1.630  11.289  0.9494  0.6078 -1.7304
17951TIP3   OH275267   1.749   5.956  11.477  0.1725  0.0589  0.4004
17951TIP3    H175268   1.826   5.908  11.508 -0.3703 -2.0036 -1.2957
17951TIP3    H275269   1.679   5.890  11.474 -0.8923  1.2027 -0.9633
17952TIP3   OH275270   4.012   3.710  15.527  0.3504  0.1151 -0.2571
17952TIP3    H175271   3.919   3.731  15.523  0.1205 -0.6698  0.6436
17952TIP3    H275272   4.044   3.726  15.438 -1.0188 -1.2746 -1.0320
17953TIP3   OH275273   3.584   5.855  14.696  0.4951 -0.0777  0.3348
17953TIP3    H175274   3.570   5.836  14.788 -0.5906  1.0616  0.4282
17953TIP3    H275275   3.666   5.904  14.693 -0.0200  0.8132  0.8190
17954TIP3   OH275276   4.709   4.184   5.473 -0.0885 -0.2957 -0.2740
17954TIP3    H175277   4.618   4.185   5.444  0.0268 -0.3901 -0.6478
17954TIP3    H275278   4.760   4.183   5.392  0.2368 -0.7026 -0.0705
17955TIP3   OH275279   5.492   2.767  16.630  0.5322  0.0843 -0.1850
17955TIP3    H175280   5.547   2.689  16.622  0.6524 -0.1472  2.4302
17955TIP3    H275281   5.402   2.733  16.626  0.5687 -0.4499  2.7002
17956TIP3   OH275282   3.187   0.748  15.205  0.5994 -0.5994  0.4670
17956TIP3    H175283   3.267   0.738  15.257  2.3371 -0.7207 -2.0680
17956TIP3    H275284   3.183   0.668  15.152 -0.7101 -0.2027 -0.0414
17957TIP3   OH275285   1.516   1.702  14.867  0.4822  0.5982 -0.2773
17957TIP3    H175286   1.600   1.659  14.883 -0.3779 -0.4395  1.5674
17957TIP3    H275287   1.492   1.676  14.778  1.5490 -0.0194 -0.3957
17958TIP3   OH275288   5.112   4.325  15.059  0.0319  0.4874  0.5718
17958TIP3    H175289   5.118   4.233  15.082  0.3952  0.9246  2.3058
17958TIP3    H275290   5.021   4.349  15.078 -0.5750  0.0451 -1.6608
17959TIP3   OH275291   0.421   1.302   0.595  0.2859  0.3598 -0.5394
17959TIP3    H175292   0.355   1.358   0.635  0.9524  0.5481  0.3101
17959TIP3    H275293   0.505   1.339   0.623  0.7724  0.5547 -2.1810
17960TIP3   OH275294   5.073   6.679   1.878  0.0605  0.1804  0.1182
17960TIP3    H175295   5.117   6.594   1.870 -0.9117 -0.4074  0.9042
17960TIP3    H275296   4.988   6.658   1.917 -0.4781  1.4345 -0.3739
17961TIP3   OH275297   3.953   3.422   0.164  0.3396 -0.3102  0.5721
17961TIP3    H175298   3.980   3.377   0.084 -0.4364 -0.8555  0.6183
17961TIP3    H275299   3.886   3.366   0.202  0.7955 -0.1220  1.6759
17962TIP3   OH275300   3.180   3.070   0.741  0.5757 -0.0563  0.2800
17962TIP3    H175301   3.130   3.132   0.794  1.5744  0.0748  1.1049
17962TIP3    H275302   3.264   3.114   0.726  1.1327 -1.0269  0.5094
17963TIP3   OH275303   4.556   0.286  15.971  0.5795  0.2895  0.4103
17963TIP3    H175304   4.475   0.302  16.020 -0.4850 -0.0740 -1.1974
17963TIP3    H275305   4.588   0.203  16.005  1.1780  1.2308  2.2236
17964TIP3   OH275306   3.242   0.148  11.666 -0.1970  0.0387  0.1963
17964TIP3    H175307   3.169   0.191  11.711 -0.9669 -2.0436  0.9998
17964TIP3    H275308   3.268   0.078  11.725  1.8000  0.1072 -0.5626
17965TIP3   OH275309   2.444   0.557   3.571  0.6119  0.2379  0.1280
17965TIP3    H175310   2.492   0.481   3.604  0.7304  0.4444  0.4368
17965TIP3    H275311   2.376   0.520   3.515  1.3053 -0.0489 -0.5390
17966TIP3   OH275312   2.155   6.020   0.808 -0.3599 -0.0702  0.0746
17966TIP3    H175313   2.108   6.096   0.842 -2.5199 -1.5535  0.4986
17966TIP3    H275314   2.193   5.979   0.886 -1.7774 -1.1066  0.2504
17967TIP3   OH275315   3.387   3.184   5.889  0.0599  0.1930  0.1402
17967TIP3    H175316   3.309   3.202   5.942 -0.8798 -0.4532 -1.0002
17967TIP3    H275317   3.451   3.148   5.951 -0.4296  1.0293  1.1414
17968TIP3   OH275318   2.407   4.192   2.756  0.4013  0.2781 -0.6929
17968TIP3    H175319   2.357   4.166   2.834 -1.2175  1.0740 -1.4328
17968TIP3    H275320   2.478   4.246   2.790  0.0672  0.1062  0.2898
17969TIP3   OH275321   6.256   2.767  15.376 -0.3886 -0.4356  0.1770
17969TIP3    H175322   6.273   2.719  15.295 -1.5796 -0.5068 -0.0400
17969TIP3    H275323   6.327   2.830  15.382 -0.4064 -0.2875 -1.0402
17970TIP3   OH275324   2.633   3.348  14.113  0.0462  0.1248  0.7637
17970TIP3    H175325   2.538   3.351  14.107  0.0561 -0.4686  0.2241
17970TIP3    H275326   2.651   3.310  14.199 -0.2000  0.3142  0.9004
17971TIP3   OH275327   6.727   2.760  15.507  0.5034  0.1573 -0.4036
17971TIP3    H175328   6.674   2.813  15.567 -2.0023 -0.5045 -1.9687
17971TIP3    H275329   6.685   2.674  15.509  2.5622 -0.8748 -0.4038
17972TIP3   OH275330   2.780   1.748   2.443  0.4688  0.7172  0.0707
17972TIP3    H175331   2.844   1.799   2.393  0.0987  1.0597 -0.0577
17972TIP3    H275332   2.695   1.786   2.418  0.2988  1.0962  1.1921
17973TIP3   OH275333   2.062   5.616   3.941  0.0454  0.8249  0.0823
17973TIP3    H175334   2.131   5.680   3.927  1.9621 -1.1416  0.2108
17973TIP3    H275335   1.991   5.644   3.883  1.4182  2.2068 -0.9690
17974TIP3   OH275336   5.004   0.588   4.854  0.2787 -0.4933  0.1267
17974TIP3    H175337   5.054   0.537   4.791  1.9111  1.6994 -0.4270
17974TIP3    H275338   5.067   0.609   4.923 -0.1058  1.4907 -0.0916
17975TIP3   OH275339   3.047   4.907  15.789  0.1770 -0.0597 -0.4299
17975TIP3    H175340   2.994   4.829  15.803 -0.7430  0.6650  0.1940
17975TIP3    H275341   3.034   4.928  15.696  0.1290 -0.4301 -0.5083
17976TIP3   OH275342   0.319   5.655   3.177 -0.0638  0.6177  0.0916
17976TIP3    H175343   0.394   5.616   3.223 -0.0608 -1.1780 -1.3758
17976TIP3    H275344   0.316   5.745   3.208  2.5838  0.6512  0.3752
17977TIP3   OH275345   0.939   4.273  10.815 -0.1169  0.2680 -0.1618
17977TIP3    H175346   1.011   4.220  10.780 -1.8644 -2.5305  0.4030
17977TIP3    H275347   0.869   4.262  10.751 -1.9300 -1.5366  2.0972
17978TIP3   OH275348   5.809   0.038  14.705  0.3883  0.3929 -0.2211
17978TIP3    H175349   5.889   0.045  14.757  0.8735 -2.7060 -0.4311
17978TIP3    H275350   5.814   0.111  14.643  2.3616  1.0684  0.7016
17979TIP3   OH275351   4.481   2.279   5.965  0.2566  0.2661 -0.1564
17979TIP3    H175352   4.555   2.233   6.004  0.6144  1.4203  0.5328
17979TIP3    H275353   4.519   2.332   5.895 -0.1294 -0.3075 -0.8137
17980TIP3   OH275354   6.297   5.383  10.701  0.1423 -0.6855  0.1436
17980TIP3    H175355   6.294   5.383  10.797  2.8975  0.3118  0.2749
17980TIP3    H275356   6.368   5.444  10.679 -3.1088  2.2680 -2.6776
17981TIP3   OH275357   3.885   2.404   2.351  0.2540  0.4978 -0.1759
17981TIP3    H175358   3.953   2.466   2.375  0.1999  0.8719 -0.9796
17981TIP3    H275359   3.931   2.337   2.300  0.3242 -0.1560  0.7393
17982TIP3   OH275360   6.044   0.166  10.907 -0.3574  0.6207  1.0271
17982TIP3    H175361   6.091   0.227  10.850  1.1120 -0.4722  1.0319
17982TIP3    H275362   5.977   0.127  10.851 -0.0042  0.7720  0.4924
17983TIP3   OH275363   1.884   3.407  10.590  0.5129 -0.4241  0.3778
17983TIP3    H175364   1.801   3.385  10.549  1.2708 -0.6337 -1.0727
17983TIP3    H275365   1.887   3.354  10.670 -0.0591 -1.5885 -0.3606
17984TIP3   OH275366   0.507   5.388  15.567  0.8931  0.1764 -0.2276
17984TIP3    H175367   0.426   5.371  15.518  0.9085  0.2540 -0.2783
17984TIP3    H275368   0.575   5.392  15.499  1.3469 -2.4613 -0.0079
17985TIP3   OH275369   0.596   2.080  14.321  0.5119 -0.0541 -0.3106
17985TIP3    H175370   0.665   2.117  14.375  0.6759  1.9831 -1.8717
17985TIP3    H275371   0.632   2.082  14.232 -1.4640  0.8106 -1.1081
17986TIP3   OH275372   4.453   0.746  15.682  0.1208 -0.1048 -0.1170
17986TIP3    H175373   4.391   0.723  15.613  0.2214 -2.2545  0.4722
17986TIP3    H275374   4.524   0.793  15.637 -1.0276  0.7427 -1.0618
17987TIP3   OH275375   6.037   2.174  14.954 -0.1019 -0.7786  0.4659
17987TIP3    H175376   5.943   2.159  14.940 -0.3670  0.1969  1.1421
17987TIP3    H275377   6.079   2.142  14.874 -0.9458 -1.8894  0.4637
17988TIP3   OH275378   2.894   4.344   1.408 -0.2166 -0.4738 -0.6275
17988TIP3    H175379   2.951   4.413   1.374 -0.9113  0.0992 -0.6603
17988TIP3    H275380   2.816   4.349   1.352 -0.6890 -0.6154  0.0200
17989TIP3   OH275381   5.780   5.315  15.103 -0.0669  0.2901  0.3923
17989TIP3    H175382   5.766   5.400  15.142 -1.6580  0.5460 -0.6948
17989TIP3    H275383   5.692   5.279  15.090  0.5275 -0.9190 -0.4245
17990TIP3   OH275384   0.791   5.594   0.899  0.0804  0.1487  0.1683
17990TIP3    H175385   0.862   5.606   0.835 -0.7956 -2.5275 -1.3553
17990TIP3    H275386   0.835   5.561   0.977  0.6323 -0.6238 -0.4616
17991TIP3   OH275387   1.577   3.357  13.915  0.0079 -0.2814 -0.1567
17991TIP3    H175388   1.583   3.307  13.834  1.6302 -0.2479 -0.0805
17991TIP3    H275389   1.651   3.417  13.912 -0.6401  0.5940  0.7801
17992TIP3   OH275390   1.389   1.662   5.477  0.4051 -0.0710  0.4836
17992TIP3    H175391   1.473   1.667   5.430 -0.0217 -0.7562 -0.3605
17992TIP3    H275392   1.381   1.747   5.519  1.0141  0.3948 -0.3165
17993TIP3   OH275393   2.229   1.201  11.952 -0.8505  0.6902 -0.1075
17993TIP3    H175394   2.218   1.285  11.907  0.2426  0.7404 -0.3158
17993TIP3    H275395   2.324   1.196  11.969 -1.1153  0.2402  1.3483
17994TIP3   OH275396   0.752   3.160  17.079  0.8802 -0.4018  0.0251
17994TIP3    H175397   0.664   3.191  17.055  0.9193 -0.3378 -0.0370
17994TIP3    H275398   0.810   3.230  17.050  0.6853  1.1119  3.1251
17995TIP3   OH275399   6.417   1.191   4.796  0.0362  0.7433 -0.3082
17995TIP3    H175400   6.354   1.136   4.843 -0.2741  1.4775  0.1396
17995TIP3    H275401   6.385   1.191   4.705  0.6734 -0.7291 -0.5419
17996TIP3   OH275402   6.333   2.853  14.872  0.3780 -0.2342 -0.2150
17996TIP3    H175403   6.266   2.795  14.836 -0.2821 -0.0608  0.7271
17996TIP3    H275404   6.365   2.807  14.949  0.5056  0.2434  0.0166
17997TIP3   OH275405   1.819   6.418  13.283  0.6070 -0.0135 -0.1361
17997TIP3    H175406   1.846   6.468  13.207 -1.6341  2.0725  0.3967
17997TIP3    H275407   1.723   6.425  13.285  0.3918 -2.4659  1.2316
17998TIP3   OH275408   1.394   3.311   5.123  0.1410  0.2212  0.0905
17998TIP3    H175409   1.453   3.386   5.114 -1.3677  1.5793  1.3880
17998TIP3    H275410   1.308   3.344   5.101 -0.6604 -0.9585  1.3547
17999TIP3   OH275411   2.960   2.635   0.272 -0.0518  0.3791 -0.5582
17999TIP3    H175412   2.983   2.613   0.363 -1.5458 -2.1097 -0.7657
17999TIP3    H275413   2.920   2.722   0.279  1.1290  0.8401  0.9643
18000TIP3   OH275414   6.440   0.919   4.324 -0.1436  0.3706 -0.0516
18000TIP3    H175415   6.437   0.930   4.419 -1.5940  1.7174 -0.2384
18000TIP3    H275416   6.531   0.938   4.301  0.7001 -1.8273  1.2478
18001TIP3   OH275417   5.068   5.258  15.292  0.3473 -0.7173 -0.1943
18001TIP3    H175418   5.066   5.265  15.388 -1.3293 -1.5383 -0.1548
18001TIP3    H275419   5.016   5.181  15.273  0.5412 -0.4579 -1.8005
18002TIP3   OH275420   1.042   4.137  17.222 -0.0537 -0.2818  0.0030
18002TIP3    H175421   0.961   4.123  17.271 -0.4573  1.8333 -0.0090
18002TIP3    H275422   1.069   4.049  17.195 -1.3117 -1.1981  1.6331
18003TIP3   OH275423   6.107   0.006  13.696 -0.4778  0.2446  0.2467
18003TIP3    H175424   6.193   0.041  13.718  0.1337 -1.2089  0.2246
18003TIP3    H275425   6.045   0.068  13.735  0.5788  1.0464  0.6689
18004TIP3   OH275426   3.232   5.238  12.671  0.0074 -0.7576  0.1699
18004TIP3    H175427   3.286   5.177  12.720 -0.0345  0.1367  1.3370
18004TIP3    H275428   3.225   5.315  12.727 -0.6245  0.0026 -0.9313
18005TIP3   OH275429   3.660   1.577   0.782 -0.3340  0.6060  0.0617
18005TIP3    H175430   3.740   1.602   0.734  0.2196  0.0908  0.7026
18005TIP3    H275431   3.675   1.608   0.871 -1.6135  2.0910 -0.2162
18006TIP3   OH275432   5.129   1.087   3.301 -0.1665 -0.1494  0.0944
18006TIP3    H175433   5.217   1.122   3.316  0.7103 -1.5539 -1.6003
18006TIP3    H275434   5.113   1.102   3.208 -0.5680 -2.4449 -0.2310
18007TIP3   OH275435   3.214   6.381  16.376  0.3687 -0.1188  0.9854
18007TIP3    H175436   3.279   6.393  16.306  1.4205  0.1867  2.0097
18007TIP3    H275437   3.214   6.286  16.393  0.1366 -0.1895  0.5996
18008TIP3   OH275438   3.422   6.613  16.016 -0.0933  0.3891  0.4632
18008TIP3    H175439   3.460   6.696  15.987 -0.9141  0.8876  0.7814
18008TIP3    H275440   3.367   6.586  15.942  1.4518 -0.7129 -0.2961
18009TIP3   OH275441   3.623   3.917  16.601  0.0008  0.0463  0.7676
18009TIP3    H175442   3.638   4.010  16.584 -0.0080 -0.1148 -0.1787
18009TIP3    H275443   3.533   3.902  16.574  0.6346 -0.6610 -1.0274
18010TIP3   OH275444   0.338   3.467   3.330 -0.5639  0.8092  0.2475
18010TIP3    H175445   0.391   3.544   3.349  1.9668 -0.9873  0.8757
18010TIP3    H275446   0.338   3.417   3.412 -0.9310 -0.5312 -0.5446
18011TIP3   OH275447   1.920   6.293  13.038 -0.1375 -0.2018 -0.9216
18011TIP3    H175448   1.856   6.229  13.070 -1.0505  0.0761 -2.1671
18011TIP3    H275449   1.994   6.240  13.010  0.9779 -0.4141  2.2757
18012TIP3   OH275450   0.360   1.841   2.871 -0.3457  0.4100 -0.1000
18012TIP3    H175451   0.333   1.759   2.912  0.2200  0.8966  1.3012
18012TIP3    H275452   0.429   1.816   2.810  1.4567  0.0958  2.0107
18013TIP3   OH275453   6.529   1.911   0.362 -0.7090 -0.4290  0.1094
18013TIP3    H175454   6.612   1.951   0.388 -0.0112 -1.7156 -0.0790
18013TIP3    H275455   6.519   1.836   0.421 -1.8169 -0.1883  0.2318
18014TIP3   OH275456   4.518   1.288   2.099 -0.2430 -0.5476 -0.0507
18014TIP3    H175457   4.493   1.207   2.054 -0.5864  0.1067 -1.0719
18014TIP3    H275458   4.448   1.349   2.079  0.3433  0.2044  0.1547
18015TIP3   OH275459   0.192   3.095   2.599  0.3484  0.3740  0.2376
18015TIP3    H175460   0.111   3.079   2.648  1.2522 -1.3203  1.2346
18015TIP3    H275461   0.181   3.183   2.563 -2.5849 -0.3777 -0.9227
18016TIP3   OH275462   4.290   0.876   3.947  0.4316  0.1028 -0.0627
18016TIP3    H175463   4.211   0.928   3.935 -1.0142 -1.5813  1.8898
18016TIP3    H275464   4.358   0.940   3.969 -1.4900  1.1550  3.1409
18017TIP3   OH275465   5.334   6.716  11.154  0.7189  0.8284 -0.9047
18017TIP3    H175466   5.421   6.680  11.172  1.2931  2.4473 -0.3379
18017TIP3    H275467   5.280   6.640  11.136  2.5260 -0.1391 -2.4141
18018TIP3   OH275468   1.923   2.283   6.053  0.3118  0.0077 -0.2598
18018TIP3    H175469   1.966   2.263   5.970  1.0976  1.4746 -0.2253
18018TIP3    H275470   1.861   2.352   6.033  0.0441 -0.0784  0.2505
18019TIP3   OH275471   1.726   2.275  13.083 -0.2866 -0.3179 -0.1159
18019TIP3    H175472   1.790   2.327  13.131 -0.1635 -0.4725 -0.1099
18019TIP3    H275473   1.641   2.306  13.114 -0.3621  2.6857 -2.9878
18020TIP3   OH275474   2.907   3.324   0.574 -1.0059 -0.1460  0.7814
18020TIP3    H175475   2.841   3.255   0.573 -0.5516 -0.5918  0.6720
18020TIP3    H275476   2.872   3.393   0.518 -0.8676 -0.8740 -0.2164
18021TIP3   OH275477   6.568   2.058   5.314  0.0463 -0.4939  0.2220
18021TIP3    H175478   6.580   2.023   5.226 -0.1373 -2.4519  0.9431
18021TIP3    H275479   6.603   2.147   5.310  1.4500 -1.1008 -1.4324
18022TIP3   OH275480   4.426   5.489   2.135 -0.2260  0.3536  0.2155
18022TIP3    H175481   4.387   5.439   2.207 -1.2485 -0.0067 -0.5792
18022TIP3    H275482   4.516   5.457   2.130  0.3653  1.5713  2.4190
18023TIP3   OH275483   3.631   6.256   4.918 -0.0733  0.8058 -0.2435
18023TIP3    H175484   3.582   6.198   4.860 -0.4246  2.3151 -1.5009
18023TIP3    H275485   3.722   6.229   4.908 -0.2547  0.3346 -0.6438
18024TIP3   OH275486   3.044   5.913   2.706  0.1521 -0.7632  0.3463
18024TIP3    H175487   3.011   5.867   2.629  1.6341  0.8035 -1.2759
18024TIP3    H275488   2.980   5.982   2.722 -1.2916 -2.3947  1.8819
18025TIP3   OH275489   0.449   3.363  16.305  0.1806  0.1268  0.1695
18025TIP3    H175490   0.456   3.458  16.314 -3.5532  0.5554 -0.8503
18025TIP3    H275491   0.452   3.348  16.210 -0.6364 -0.6360  0.2630
18026TIP3   OH275492   5.023   2.890   4.658  0.7677  0.0314 -0.3828
18026TIP3    H175493   5.001   2.798   4.641 -0.1574 -0.4777  3.0060
18026TIP3    H275494   4.938   2.934   4.664  1.1018  0.5946  0.3707
18027TIP3   OH275495   3.598   6.522   3.208 -0.0037  0.0826 -0.4954
18027TIP3    H175496   3.635   6.603   3.244 -2.5277  0.2358  1.9313
18027TIP3    H275497   3.666   6.456   3.222  2.0176  1.6929 -2.3427
18028TIP3   OH275498   6.044   5.565  12.660  0.2805 -0.0221 -0.1726
18028TIP3    H175499   6.086   5.648  12.638  0.9165 -0.0941  0.7359
18028TIP3    H275500   5.964   5.563  12.606  2.0114 -0.4229 -2.8113
18029TIP3   OH275501   4.102   1.722  15.170  0.3350 -0.0013  0.0942
18029TIP3    H175502   4.103   1.680  15.256 -1.0598 -0.0371  0.1022
18029TIP3    H275503   4.128   1.813  15.187 -2.2515  0.6337  0.9317
18030TIP3   OH275504   0.209   3.990  11.916 -0.2889 -0.6729 -0.0150
18030TIP3    H175505   0.133   4.039  11.948  0.9030  1.4506 -0.3483
18030TIP3    H275506   0.221   3.920  11.980 -1.2689  0.2080  1.1442
18031TIP3   OH275507   3.552   6.349  15.238 -0.4161  0.4494 -0.8701
18031TIP3    H175508   3.579   6.368  15.328 -1.0627 -2.2515 -0.0545
18031TIP3    H275509   3.592   6.419  15.186  2.2319  0.5536  1.1673
18032TIP3   OH275510   3.476   6.158   0.675  0.1150  0.2139  0.4655
18032TIP3    H175511   3.550   6.099   0.657 -0.6378 -0.9464  1.1491
18032TIP3    H275512   3.486   6.183   0.767 -0.3857  0.0083  0.5758
18033TIP3   OH275513   5.488   3.884  13.947 -0.2625 -0.2079  0.2649
18033TIP3    H175514   5.546   3.950  13.909 -0.8153  0.2803  0.2607
18033TIP3    H275515   5.400   3.918  13.931 -0.5918 -1.5911 -0.9031
18034TIP3   OH275516   4.328   0.507   4.352 -0.3772  0.2644  0.0215
18034TIP3    H175517   4.398   0.567   4.323 -0.3807 -1.2332 -3.2937
18034TIP3    H275518   4.247   0.552   4.328 -0.3909 -0.8271 -1.9968
18035TIP3   OH275519   4.783   3.992   2.718  0.4400 -0.2598  0.1769
18035TIP3    H175520   4.716   3.987   2.786  0.6382  0.1185  0.4027
18035TIP3    H275521   4.865   3.971   2.764  0.5083 -0.4896 -0.0480
18036TIP3   OH275522   3.025   5.003   3.883  0.3551  0.1292 -0.5879
18036TIP3    H175523   3.003   5.090   3.918 -0.5180 -0.8371  1.3727
18036TIP3    H275524   3.114   4.987   3.913 -0.5561 -0.9001  1.7746
18037TIP3   OH275525   3.224   4.710   2.151 -0.3499  0.3297 -0.1482
18037TIP3    H175526   3.193   4.638   2.096 -0.7072 -0.9161  1.6373
18037TIP3    H275527   3.146   4.738   2.200  0.1479  0.8078  0.3743
18038TIP3   OH275528   5.267   6.531   0.792  0.0482  0.2109 -0.2826
18038TIP3    H175529   5.272   6.526   0.697  1.6088 -0.7118 -0.1674
18038TIP3    H275530   5.244   6.443   0.820 -2.3166  0.9211  0.1089
18039TIP3   OH275531   1.085   1.142  15.457 -0.5101 -0.0996 -0.1003
18039TIP3    H175532   1.086   1.079  15.529  1.0399 -0.8978 -0.7774
18039TIP3    H275533   1.114   1.091  15.381  0.5696  1.3753 -0.7026
18040TIP3   OH275534   1.388   4.041   5.088  0.2642 -0.1937  0.3133
18040TIP3    H175535   1.429   4.106   5.032 -1.5791 -0.7142 -1.7149
18040TIP3    H275536   1.294   4.056   5.076 -0.1592 -0.9566  2.5238
18041TIP3   OH275537   6.117   5.552  11.302  0.0199 -0.0951  0.0416
18041TIP3    H175538   6.103   5.458  11.314 -0.4815 -0.3607 -2.2749
18041TIP3    H275539   6.131   5.586  11.390 -1.4574 -2.0805  1.0895
18042TIP3   OH275540   5.860   0.332  10.710  0.0211  0.6303  0.0341
18042TIP3    H175541   5.770   0.342  10.741 -0.7622 -0.4804 -1.7961
18042TIP3    H275542   5.886   0.245  10.741  0.3928  0.8627  0.3725
18043TIP3   OH275543   6.053   5.723   3.840 -0.1538 -0.1878 -0.0974
18043TIP3    H175544   6.050   5.785   3.767  4.1862 -0.2557 -0.4906
18043TIP3    H275545   6.086   5.775   3.914  3.5499 -1.8895 -0.4322
18044TIP3   OH275546   0.282   3.834   2.514  0.1687 -0.0878  0.1867
18044TIP3    H175547   0.373   3.860   2.499 -0.7119  1.9315 -2.0584
18044TIP3    H275548   0.269   3.760   2.455  0.0533  0.3466 -0.3404
18045TIP3   OH275549   1.312   3.486  15.485  0.0767 -0.6587  0.2960
18045TIP3    H175550   1.383   3.549  15.501 -0.3009  0.3011 -1.5700
18045TIP3    H275551   1.357   3.406  15.458  0.4603  0.5922 -2.9914
18046TIP3   OH275552   4.723   6.508  11.359  0.1385  0.4922 -0.6246
18046TIP3    H175553   4.730   6.413  11.347 -0.6378  0.1262  1.5034
18046TIP3    H275554   4.660   6.518  11.430  0.5753  2.5982 -0.5075
18047TIP3   OH275555   5.808   2.815  13.665 -0.0387  0.5417  0.2437
18047TIP3    H175556   5.801   2.720  13.663  1.0074  0.4236  1.2275
18047TIP3    H275557   5.722   2.846  13.694 -0.2700 -0.1198  0.2578
18048TIP3   OH275558   6.613   5.686  16.516 -0.1805 -0.2486 -0.2589
18048TIP3    H175559   6.631   5.769  16.473  1.2415 -0.1076  0.5565
18048TIP3    H275560   6.651   5.620  16.457  0.2254 -0.1885 -0.0643
18049TIP3   OH275561   4.603   6.484  12.289 -0.1128 -0.2293 -0.2827
18049TIP3    H175562   4.518   6.527  12.298  0.1074  0.1727 -0.1138
18049TIP3    H275563   4.657   6.548  12.244  0.7455  0.3810  1.5915
18050TIP3   OH275564   0.239   0.072  15.938 -0.7219 -0.7550 -0.4494
18050TIP3    H175565   0.179   0.111  16.003 -0.7466 -1.3624 -0.1014
18050TIP3    H275566   0.326   0.091  15.972 -0.7436 -2.0071  0.3264
18051TIP3   OH275567   0.067   1.749  11.698  0.4128 -0.1879  0.6023
18051TIP3    H175568   0.093   1.680  11.759 -1.4185  0.1064  1.7675
18051TIP3    H275569   0.146   1.767  11.647  1.2213 -2.3472  1.0368
18052TIP3   OH275570   5.437   4.173  14.183 -0.8329 -0.0736 -0.0617
18052TIP3    H175571   5.416   4.122  14.261  2.9152 -1.6011  0.0715
18052TIP3    H275572   5.363   4.159  14.124 -1.8003 -2.2723  1.6084
18053TIP3   OH275573   3.680   1.994  16.443 -0.0416  0.1163  0.5929
18053TIP3    H175574   3.614   1.966  16.506 -0.7097 -0.7161 -0.4582
18053TIP3    H275575   3.640   2.068  16.397  0.8040  1.3175  1.7558
18054TIP3   OH275576   5.893   2.013  12.271  0.0212 -0.2380  0.0992
18054TIP3    H175577   5.827   1.987  12.335  0.5385 -0.8312  0.3919
18054TIP3    H275578   5.966   2.045  12.323 -0.0751  0.5282 -0.2308
18055TIP3   OH275579   3.686   0.422   1.774  0.5103 -0.1406 -0.0709
18055TIP3    H175580   3.625   0.383   1.836  0.0268 -0.8365 -0.9734
18055TIP3    H275581   3.649   0.507   1.754 -0.1900 -0.5822 -0.6515
18056TIP3   OH275582   0.947   5.174  13.769 -0.5175 -0.5394 -0.1932
18056TIP3    H175583   1.013   5.167  13.838  0.8654  0.0087 -1.4115
18056TIP3    H275584   0.974   5.251  13.719 -1.4562 -0.9651 -1.3676
18057TIP3   OH275585   4.911   4.625  17.135  0.3360 -0.1404  0.4793
18057TIP3    H175586   4.850   4.688  17.097  0.5344  0.2108  0.7394
18057TIP3    H275587   4.908   4.642  17.229  1.9317  0.8845  0.3690
18058TIP3   OH275588   6.467   2.816  11.879 -0.7160  0.8460  0.1833
18058TIP3    H175589   6.385   2.768  11.873 -0.6300  0.7543 -0.3345
18058TIP3    H275590   6.444   2.905  11.853 -0.7870  0.9795  0.7063
18059TIP3   OH275591   5.729   5.060   5.294  0.4454  0.2821 -0.0647
18059TIP3    H175592   5.734   5.078   5.200  0.3022  1.2803  0.1084
18059TIP3    H275593   5.663   5.122   5.326 -2.4493 -2.7395  0.0735
18060TIP3   OH275594   5.515   4.648   3.433  1.0081 -0.4542  0.0672
18060TIP3    H175595   5.535   4.556   3.449 -1.3513 -1.0870 -0.5127
18060TIP3    H275596   5.488   4.651   3.342 -0.2581  0.5866  0.4684
18061TIP3   OH275597   1.045   5.351  16.191 -0.1071  0.3559  0.2818
18061TIP3    H175598   1.063   5.275  16.246  0.8562  0.2214 -0.2061
18061TIP3    H275599   1.101   5.420  16.225  0.8304  0.1443 -0.7850
18062TIP3   OH275600   0.419   4.972  13.743 -0.2550  0.1082 -0.4083
18062TIP3    H175601   0.372   4.891  13.722 -0.7364  0.4396 -0.6244
18062TIP3    H275602   0.501   4.943  13.781 -0.4329 -0.4852 -0.4714
18063TIP3   OH275603   5.577   2.298  14.543  0.1660  0.2895  0.7395
18063TIP3    H175604   5.555   2.307  14.636  0.1704 -1.6819  0.9576
18063TIP3    H275605   5.494   2.278  14.500  0.1784  1.1091  0.3183
18064TIP3   OH275606   3.643   3.832   1.516  0.4064 -0.0560  0.1562
18064TIP3    H175607   3.663   3.840   1.422 -0.5197 -0.8314 -0.1259
18064TIP3    H275608   3.625   3.921   1.544  0.1367  0.1156 -0.5383
18065TIP3   OH275609   1.513   4.317   0.932  0.3026  0.5325  0.1894
18065TIP3    H175610   1.574   4.377   0.975 -2.2008  2.3310  1.3279
18065TIP3    H275611   1.519   4.236   0.982  0.5967  1.2129  1.2782
18066TIP3   OH275612   2.661   3.385   4.893  0.1382  0.3593 -0.5504
18066TIP3    H175613   2.725   3.408   4.826 -1.0394  1.3804 -1.3556
18066TIP3    H275614   2.578   3.420   4.860 -1.1949 -2.5502 -0.4223
18067TIP3   OH275615   2.805   5.534  16.884  0.2400  0.6171 -0.3153
18067TIP3    H175616   2.874   5.507  16.823  2.8521  0.6915  2.4609
18067TIP3    H275617   2.795   5.628  16.868  0.6732  0.5800 -0.8410
18068TIP3   OH275618   2.260   2.554  15.332 -0.1663 -0.0486 -0.1696
18068TIP3    H175619   2.176   2.588  15.301  0.8421  2.6831 -0.0355
18068TIP3    H275620   2.309   2.534  15.252  0.6355  2.4538 -0.3470
18069TIP3   OH275621   4.430   5.992   4.056 -0.2581  0.7182 -0.3728
18069TIP3    H175622   4.343   6.027   4.071  0.3458  1.8228  0.6683
18069TIP3    H275623   4.476   6.004   4.139  0.6428 -0.5676 -0.6700
18070TIP3   OH275624   1.924   2.749   4.151  0.0250  0.1299  0.0964
18070TIP3    H175625   1.970   2.813   4.096  0.1301  0.5159  0.6289
18070TIP3    H275626   1.853   2.798   4.191 -0.4065 -0.2912 -0.1410
18071TIP3   OH275627   4.324   0.241   6.458  0.0528 -0.5316  0.2729
18071TIP3    H175628   4.383   0.219   6.386  0.4571  0.2100  0.3757
18071TIP3    H275629   4.381   0.276   6.526 -0.3120 -1.4022  1.0271
18072TIP3   OH275630   1.618   4.416  15.571 -0.0275  0.1761  0.4225
18072TIP3    H175631   1.623   4.322  15.556 -0.0138  0.1918  0.3280
18072TIP3    H275632   1.638   4.455  15.486 -1.0700  0.2550  0.2100
18073TIP3   OH275633   1.743   5.939   5.605 -0.2403  0.0380 -0.3950
18073TIP3    H175634   1.749   5.849   5.572  0.6938  0.3691 -1.1458
18073TIP3    H275635   1.656   5.969   5.577  0.3465  0.1466 -2.1725
18074TIP3   OH275636   3.138   5.725   5.849  0.4048 -1.1405 -0.1883
18074TIP3    H175637   3.219   5.775   5.861 -0.7241  0.6477  0.2268
18074TIP3    H275638   3.114   5.696   5.937 -0.1527 -0.4435 -0.1048
18075TIP3   OH275639   1.945   2.544   5.147 -0.5069  0.0437  0.5625
18075TIP3    H175640   1.893   2.618   5.178  0.3368  0.2128  1.6204
18075TIP3    H275641   1.940   2.549   5.051 -4.2115 -1.2502  0.6253
18076TIP3   OH275642   2.831   6.147   2.355  0.1912  0.6084 -0.4671
18076TIP3    H175643   2.774   6.074   2.330  0.2177 -0.1993  1.7731
18076TIP3    H275644   2.772   6.223   2.360 -0.1127  0.4315 -1.2609
18077TIP3   OH275645   5.537   1.327   3.109  0.2236 -0.7429 -0.2716
18077TIP3    H175646   5.607   1.266   3.087 -0.5272 -1.3613 -0.9843
18077TIP3    H275647   5.582   1.404   3.143  1.2964 -0.7566 -1.6164
18078TIP3   OH275648   0.620   5.259  12.247  0.0979  0.3401  0.0052
18078TIP3    H175649   0.557   5.195  12.214  1.6800 -1.9163  1.1631
18078TIP3    H275650   0.639   5.316  12.173 -1.1960 -0.6796 -1.1135
18079TIP3   OH275651   6.656   6.613  13.662 -0.2092 -0.0630  0.6225
18079TIP3    H175652   6.626   6.541  13.606  0.0024  0.5974 -0.3612
18079TIP3    H275653   6.575   6.655  13.692 -0.3575 -1.2041  1.8867
18080TIP3   OH275654   0.203   4.357  13.909 -0.2702 -0.2017 -0.4102
18080TIP3    H175655   0.214   4.332  13.817  1.0896 -1.2515  0.0095
18080TIP3    H275656   0.224   4.450  13.911  2.0219 -0.6823 -0.7972
18081TIP3   OH275657   3.606   2.659   0.116  0.2116  0.4102  0.3124
18081TIP3    H175658   3.646   2.698   0.038  1.2192 -1.3086 -0.0522
18081TIP3    H275659   3.518   2.636   0.089 -0.3337  2.2384  0.4769
18082TIP3   OH275660   2.031   6.081  13.987  0.5722 -0.4535  0.2565
18082TIP3    H175661   2.102   6.036  14.032  0.2903  1.4590  2.6812
18082TIP3    H275662   1.968   6.102  14.056 -0.7017  1.0231 -1.3120
18083TIP3   OH275663   1.801   3.004   0.801  0.4504  0.0706 -0.2911
18083TIP3    H175664   1.751   2.923   0.792  1.5938 -1.1160  3.4165
18083TIP3    H275665   1.746   3.061   0.854  2.2709 -0.6370  2.4183
18084TIP3   OH275666   6.545   5.395  17.106  0.0763  0.0156  0.3100
18084TIP3    H175667   6.522   5.404  17.198 -0.4737  1.1886  0.0604
18084TIP3    H275668   6.509   5.473  17.064  0.9924 -0.1287 -0.7694
18085TIP3   OH275669   5.641   5.942   2.558 -0.0394 -0.3283  0.1881
18085TIP3    H175670   5.615   6.010   2.496 -0.2553 -0.0460  0.5870
18085TIP3    H275671   5.732   5.963   2.579  0.3240 -0.9628 -0.7409
18086TIP3   OH275672   1.092   3.357   2.934  0.0853  0.3986 -0.4812
18086TIP3    H175673   1.187   3.370   2.942  0.4207 -1.6863 -0.6440
18086TIP3    H275674   1.070   3.394   2.848  0.8011  0.6771 -0.5463
18087TIP3   OH275675   0.884   0.318   4.822 -0.2387  0.3152 -0.1827
18087TIP3    H175676   0.965   0.270   4.840 -0.4070  0.1384  0.1057
18087TIP3    H275677   0.826   0.296   4.895 -0.8224 -0.1547 -0.7754
18088TIP3   OH275678   0.148   5.731   2.701 -0.4591 -0.5780  0.0097
18088TIP3    H175679   0.241   5.753   2.713 -0.6499 -0.2491  0.9356
18088TIP3    H275680   0.105   5.816   2.691 -1.0216 -0.5526  2.3230
18089TIP3   OH275681   5.018   0.137   2.521 -0.4088  0.0676 -0.2114
18089TIP3    H175682   5.075   0.064   2.495  0.1601 -0.1279  1.5414
18089TIP3    H275683   5.061   0.175   2.597 -1.6220  1.1496 -0.0534
18090TIP3   OH275684   3.004   0.766   1.949  0.1625  0.2449 -0.4760
18090TIP3    H175685   3.044   0.773   2.036  0.6070 -1.3332 -0.5185
18090TIP3    H275686   2.968   0.852   1.931 -3.3872 -0.3882  2.9241
18091TIP3   OH275687   5.576   6.347  13.349  0.3041 -0.1069  0.3100
18091TIP3    H175688   5.543   6.401  13.421  1.4380  1.4047 -0.2651
18091TIP3    H275689   5.628   6.279  13.391  0.6913  0.5775  0.9401
18092TIP3   OH275690   6.041   1.410   0.572  0.3698 -0.3789 -0.1889
18092TIP3    H175691   6.070   1.378   0.658 -0.4417 -0.6826 -0.0204
18092TIP3    H275692   5.946   1.418   0.581  0.2719 -0.5073 -1.0956
18093TIP3   OH275693   1.468   6.228  14.154 -0.5136  0.5070  0.1036
18093TIP3    H175694   1.513   6.147  14.133  0.6746  1.1482  0.1270
18093TIP3    H275695   1.512   6.295  14.101 -3.3494  0.7019 -2.1128
18094TIP3   OH275696   0.903   5.021   0.068  0.3023  0.1988 -0.6182
18094TIP3    H175697   0.968   5.018   0.139 -0.4405  0.4416  0.0746
18094TIP3    H275698   0.840   4.952   0.090 -0.9535  1.5084 -0.0399
18095TIP3   OH275699   6.010   0.757   6.610 -0.3110 -0.2487  0.0288
18095TIP3    H175700   6.050   0.732   6.693 -0.6408 -0.3738  0.1521
18095TIP3    H275701   6.063   0.714   6.544  0.5131  0.5953  0.1205
18096TIP3   OH275702   5.299   2.925   5.405 -0.0505  0.0246 -0.2996
18096TIP3    H175703   5.315   2.877   5.324 -0.7083 -2.3248  0.9325
18096TIP3    H275704   5.360   2.887   5.468 -1.9479 -0.5985  1.2180
18097TIP3   OH275705   2.349   6.043  11.987  0.5345 -0.0260 -0.1030
18097TIP3    H175706   2.337   6.086  11.902  0.1227 -0.2506 -0.1627
18097TIP3    H275707   2.377   5.954  11.965 -0.3412 -0.3297 -0.0302
18098TIP3   OH275708   3.370   2.134  16.462 -0.3628 -0.7535  0.2297
18098TIP3    H175709   3.417   2.217  16.458 -1.3985 -0.0918  1.5398
18098TIP3    H275710   3.347   2.115  16.371 -0.0614  0.3616 -0.0827
18099TIP3   OH275711   6.551   2.019   1.007  0.1117  0.5424  0.5837
18099TIP3    H175712   6.596   1.975   0.936 -0.1718 -0.1047  0.7935
18099TIP3    H275713   6.518   1.948   1.062 -0.3969  1.0171  0.9051
18100TIP3   OH275714   1.392   4.410   0.070 -0.2818 -0.3449 -0.2599
18100TIP3    H175715   1.433   4.329   0.101  0.3387 -0.9141 -2.4108
18100TIP3    H275716   1.362   4.454   0.149  2.8733 -0.7910  1.2695
18101TIP3   OH275717   4.970   6.106  11.220 -0.3775  0.3227 -0.0992
18101TIP3    H175718   5.014   6.025  11.192 -2.3595 -1.3369  1.4357
18101TIP3    H275719   5.030   6.146  11.282  0.2871 -0.3737 -0.2857
18102TIP3   OH275720   2.474   2.389   2.590  0.5309 -0.1583  0.5151
18102TIP3    H175721   2.443   2.479   2.580  0.2045 -0.3068  0.1371
18102TIP3    H275722   2.425   2.339   2.524  0.8189 -0.5859  0.6161
18103TIP3   OH275723   0.460   0.917  13.338 -0.2486  0.3218  0.6633
18103TIP3    H175724   0.431   0.866  13.262  2.1356 -0.6927  0.3813
18103TIP3    H275725   0.430   0.867  13.413 -0.4964  0.0517  0.3867
18104TIP3   OH275726   3.550   4.974  11.436  0.7688 -0.0156 -0.0160
18104TIP3    H175727   3.521   4.927  11.514 -1.6475  1.1933 -0.1392
18104TIP3    H275728   3.594   4.908  11.383  0.7286 -1.2791  1.4943
18105TIP3   OH275729   1.541   5.257  15.545  0.2942  0.4556 -0.4981
18105TIP3    H175730   1.604   5.267  15.617  1.4429  1.1648 -1.5974
18105TIP3    H275731   1.455   5.252  15.589  1.0014  0.6511  0.9266
18106TIP3   OH275732   2.035   1.662  16.620  0.3109 -0.1206  0.3763
18106TIP3    H175733   1.941   1.672  16.604  0.5873  2.8673  0.4640
18106TIP3    H275734   2.055   1.728  16.686  2.7530  0.3162 -0.7635
18107TIP3   OH275735   1.886   1.216   2.174 -0.6383  0.4792 -0.7452
18107TIP3    H175736   1.899   1.298   2.127  1.4384  2.4856  3.0694
18107TIP3    H275737   1.804   1.227   2.222 -0.1371  0.5458  0.1189
18108TIP3   OH275738   2.659   6.366   4.921  0.3481 -0.0446 -0.1522
18108TIP3    H175739   2.638   6.295   4.982  1.3252  1.7713  2.3828
18108TIP3    H275740   2.575   6.388   4.881 -0.4500 -0.7804  1.0692
18109TIP3   OH275741   4.252   0.377  12.928  0.1975  0.7062  0.2762
18109TIP3    H175742   4.192   0.449  12.946 -0.6753  0.4972 -1.6436
18109TIP3    H275743   4.253   0.371  12.832  0.7525 -1.4128  0.4048
18110TIP3   OH275744   5.594   0.556  12.420 -0.2696  0.1573 -0.7243
18110TIP3    H175745   5.650   0.483  12.449  2.0336  2.0976 -0.1628
18110TIP3    H275746   5.535   0.571  12.493  0.8821  0.4457  0.1603
18111TIP3   OH275747   0.084   0.518   3.911  0.2076 -0.0818  0.0454
18111TIP3    H175748   0.016   0.479   3.965  0.0330  2.4870  1.7877
18111TIP3    H275749   0.161   0.519   3.968  1.4243 -1.9106 -1.5108
18112TIP3   OH275750   3.968   6.224  16.623 -0.1960  0.0577 -0.5611
18112TIP3    H175751   4.063   6.224  16.610 -0.2985  1.4015 -1.4414
18112TIP3    H275752   3.948   6.314  16.648 -1.1798 -0.3576  0.1718
18113TIP3   OH275753   0.662   1.450  14.673  0.5296  0.3229  0.2944
18113TIP3    H175754   0.696   1.439  14.762  1.8920 -1.9232 -0.4576
18113TIP3    H275755   0.569   1.426  14.680  0.6039  0.2611  1.1373
18114TIP3   OH275756   4.520   6.273   0.638  0.0717  0.4297  0.1328
18114TIP3    H175757   4.481   6.330   0.572 -1.0133  0.9919  1.2499
18114TIP3    H275758   4.501   6.184   0.607 -0.7644  0.6949 -0.1224
18115TIP3   OH275759   1.020   4.166   0.466 -0.4347 -0.2784 -0.0557
18115TIP3    H175760   0.934   4.125   0.473 -0.1861 -1.0013 -1.0378
18115TIP3    H275761   1.013   4.225   0.391 -0.2625  0.1352  0.2541
18116TIP3   OH275762   3.574   0.651  14.203 -0.0304 -0.1878 -0.6291
18116TIP3    H175763   3.506   0.715  14.183  0.3675  0.3599 -0.2512
18116TIP3    H275764   3.537   0.566  14.177 -0.9716  0.0702 -0.1297
18117TIP3   OH275765   5.982   1.875   1.547 -0.3575  0.4476 -0.3943
18117TIP3    H175766   5.888   1.890   1.561 -0.1060  0.6990  1.1089
18117TIP3    H275767   6.005   1.935   1.476 -1.5524 -0.3986 -1.5353
18118TIP3   OH275768   4.174   1.555   5.896  0.3013 -0.3692  0.2928
18118TIP3    H175769   4.119   1.629   5.920  0.6279  0.5841 -1.8088
18118TIP3    H275770   4.211   1.524   5.979 -0.0626  1.6443  1.2213
18119TIP3   OH275771   0.694   2.002  11.915 -0.4555 -0.7620 -0.1731
18119TIP3    H175772   0.697   2.096  11.932 -0.2479 -0.6585 -0.7912
18119TIP3    H275773   0.692   1.994  11.820  0.4854 -1.3988 -0.1533
18120TIP3   OH275774   1.694   2.191   3.450 -0.4914 -0.3286 -0.4544
18120TIP3    H175775   1.758   2.128   3.416 -1.1364 -1.1242 -0.2293
18120TIP3    H275776   1.732   2.223   3.532 -0.7166 -1.3715  0.0697
18121TIP3   OH275777   5.093   6.080   4.384 -0.6173  0.3181  0.1136
18121TIP3    H175778   5.061   6.106   4.298 -1.0153  0.8960  0.4382
18121TIP3    H275779   5.134   6.159   4.420  1.2822 -0.4270 -0.3423
18122TIP3   OH275780   2.465   0.478  16.668  0.2356  0.0510 -0.1882
18122TIP3    H175781   2.474   0.564  16.627 -1.7006  0.0067 -0.7305
18122TIP3    H275782   2.518   0.420  16.613 -0.0014  0.5413 -0.9457
18123TIP3   OH275783   3.484   5.144  13.387 -0.4329 -0.3532 -0.3447
18123TIP3    H175784   3.394   5.134  13.417 -0.2850 -1.3719 -0.2324
18123TIP3    H275785   3.537   5.133  13.466 -0.2487  1.4016 -0.1892
18124TIP3   OH275786   5.457   1.469   4.534 -0.5612  0.2399  0.0024
18124TIP3    H175787   5.382   1.520   4.564  0.9141  0.9878  2.6295
18124TIP3    H275788   5.433   1.378   4.549 -0.1893  0.5654  2.8315
18125TIP3   OH275789   2.194   6.602   1.508  0.2160  0.1706 -0.2041
18125TIP3    H175790   2.273   6.554   1.482  1.4854  1.6820  0.7968
18125TIP3    H275791   2.198   6.606   1.603 -0.4738  1.2468 -0.2080
18126TIP3   OH275792   0.114   5.973  12.605  0.3541  0.2012 -0.2042
18126TIP3    H175793   0.114   6.068  12.590  2.3574  0.2502  0.0838
18126TIP3    H275794   0.021   5.949  12.598 -0.1787  2.1599 -0.3514
18127TIP3   OH275795   1.847   5.088   5.530 -0.2893  0.8304  0.1974
18127TIP3    H175796   1.759   5.050   5.529 -0.3468  0.9171  1.3415
18127TIP3    H275797   1.847   5.149   5.456 -0.7231 -0.2026 -0.6775
18128TIP3   OH275798   5.342   0.565   1.308  0.7054  0.1972  0.4561
18128TIP3    H175799   5.267   0.607   1.351  0.1184 -1.3700  0.9716
18128TIP3    H275800   5.403   0.637   1.293  0.3767  1.0063  2.7597
18129TIP3   OH275801   1.039   0.297   0.767  0.5452 -0.1562 -0.1894
18129TIP3    H175802   1.053   0.391   0.777 -1.8521  0.1873  0.1225
18129TIP3    H275803   1.127   0.259   0.777  1.8166  2.1585 -2.0625
18130TIP3   OH275804   4.410   1.627  16.026 -0.2511 -0.7191  0.1669
18130TIP3    H175805   4.454   1.558  15.976  0.5871 -0.6798  0.8199
18130TIP3    H275806   4.482   1.682  16.058 -0.7812 -0.6778  1.3049
18131TIP3   OH275807   1.389   2.444   1.766  0.2777 -0.2261 -0.4725
18131TIP3    H175808   1.461   2.498   1.799 -0.2649  0.8520 -1.0345
18131TIP3    H275809   1.354   2.402   1.844  0.1622  0.9045  0.1000
18132TIP3   OH275810   0.526   5.707  14.256 -0.3642 -0.2935  0.3111
18132TIP3    H175811   0.506   5.801  14.252 -1.0464 -0.5072 -1.9411
18132TIP3    H275812   0.619   5.703  14.277  0.0992  0.9519 -1.3772
18133TIP3   OH275813   4.147   0.344   3.687 -0.5023  0.0088 -0.4070
18133TIP3    H175814   4.221   0.384   3.642  0.8433 -1.0016  0.8516
18133TIP3    H275815   4.129   0.265   3.637  1.8812 -1.8433  1.5024
18134TIP3   OH275816   5.384   6.512  15.344  0.0124  0.1316  0.3249
18134TIP3    H175817   5.298   6.543  15.373 -0.0442  0.1997  0.0854
18134TIP3    H275818   5.447   6.562  15.396 -0.0995 -0.3197  0.8986
18135TIP3   OH275819   5.487   2.720   0.620  0.2904 -0.0355 -0.1901
18135TIP3    H175820   5.472   2.627   0.603  2.7462 -0.3558 -0.8650
18135TIP3    H275821   5.459   2.764   0.540 -0.0187 -0.2901 -0.2221
18136TIP3   OH275822   5.609   5.404   4.954 -0.3804  0.0039 -0.4126
18136TIP3    H175823   5.633   5.401   4.862 -0.5670  0.0739 -0.4634
18136TIP3    H275824   5.536   5.342   4.962  1.3364 -2.0395  0.1932
18137TIP3   OH275825   3.137   4.119   4.132 -0.1840 -0.3062 -0.9531
18137TIP3    H175826   3.064   4.088   4.186 -0.4749 -0.5118 -1.4657
18137TIP3    H275827   3.095   4.163   4.058  0.2239  1.2454 -0.2791
18138TIP3   OH275828   6.441   6.563   4.734  0.4429  0.4978  0.1980
18138TIP3    H175829   6.408   6.531   4.818 -0.5476  0.6403 -0.1295
18138TIP3    H275830   6.508   6.499   4.709 -0.4609 -0.4996  0.2753
18139TIP3   OH275831   3.469   3.820  10.978 -0.3440  0.5579 -0.7192
18139TIP3    H175832   3.378   3.822  10.950 -0.6442  0.2235  0.2198
18139TIP3    H275833   3.499   3.731  10.956 -1.3765 -0.6216  2.4779
18140TIP3   OH275834   1.014   0.259   3.300 -0.1355 -0.3921 -0.6165
18140TIP3    H175835   1.066   0.307   3.364 -0.1988 -2.1605  0.8145
18140TIP3    H275836   1.061   0.176   3.288 -2.1163 -1.6434  0.0097
18141TIP3   OH275837   2.050   5.467   1.079 -0.5169 -0.0105  0.1512
18141TIP3    H175838   2.032   5.450   0.987  0.1081 -0.3347  0.0826
18141TIP3    H275839   2.142   5.443   1.090 -0.3675  0.7848  0.6782
18142TIP3   OH275840   2.930   6.771   5.586 -0.8774 -0.7145  0.3628
18142TIP3    H175841   3.004   6.803   5.639 -2.3437 -0.5303  2.3600
18142TIP3    H275842   2.896   6.697   5.636 -0.9899 -1.9129 -1.4380
18143TIP3   OH275843   5.941   3.110  17.106 -0.4184 -0.1057  0.2711
18143TIP3    H175844   5.980   3.032  17.146 -0.4287 -0.0478  0.3918
18143TIP3    H275845   5.980   3.113  17.018 -1.2819 -0.8791 -0.1413
18144TIP3   OH275846   5.923   0.647   5.836  0.1270  1.1164 -0.3684
18144TIP3    H175847   5.870   0.725   5.855  0.6094  1.1262  1.0471
18144TIP3    H275848   5.869   0.574   5.867  1.5750  1.2440  2.5889
18145TIP3   OH275849   2.234   0.560  13.920  0.0428 -0.4080  0.1668
18145TIP3    H175850   2.236   0.622  13.847 -0.4570 -0.9379 -0.2957
18145TIP3    H275851   2.318   0.574  13.965 -0.1927  0.8127  0.2469
18146TIP3   OH275852   5.426   5.330  12.153  0.0415  0.5824  0.0051
18146TIP3    H175853   5.475   5.250  12.136  0.6148  0.9178  0.0663
18146TIP3    H275854   5.343   5.318  12.106  2.1360  2.0483 -4.3151
18147TIP3   OH275855   1.726   2.883   1.109 -0.6267 -0.1467 -0.6472
18147TIP3    H175856   1.638   2.922   1.102 -0.8268 -0.8482 -2.1674
18147TIP3    H275857   1.715   2.811   1.171 -1.0545 -0.0011 -0.5496
18148TIP3   OH275858   2.775   3.459   3.089  0.0001 -0.4031  0.0343
18148TIP3    H175859   2.749   3.551   3.098 -1.3074 -0.8841  1.4820
18148TIP3    H275860   2.747   3.435   3.001 -2.3030 -0.2002  0.6717
18149TIP3   OH275861   5.891   5.051  11.789 -1.3673 -0.3091 -0.0529
18149TIP3    H175862   5.958   4.995  11.751  0.2270  1.7811 -0.3709
18149TIP3    H275863   5.884   5.022  11.880 -0.8257 -1.2491 -0.3036
18150TIP3   OH275864   6.208   6.010   1.241 -0.1366 -0.1936 -0.0428
18150TIP3    H175865   6.208   6.102   1.215 -1.9326 -0.6174 -1.5622
18150TIP3    H275866   6.276   5.970   1.187  0.8112  0.2631  0.7872
18151TIP3   OH275867   2.370   3.104   1.063 -0.2895  0.0249 -0.4056
18151TIP3    H175868   2.339   3.189   1.033 -0.5606 -0.2502 -0.9142
18151TIP3    H275869   2.464   3.107   1.050 -0.0536  0.9721  1.4106
18152TIP3   OH275870   3.264   1.570  15.842 -0.0124 -0.1780  0.1093
18152TIP3    H175871   3.180   1.590  15.883 -1.6746 -1.4107 -2.6160
18152TIP3    H275872   3.269   1.474  15.842  1.3899 -0.1215  0.2176
18153TIP3   OH275873   3.311   4.259   5.312  0.3237  0.0059 -0.0825
18153TIP3    H175874   3.327   4.181   5.365 -0.9409 -0.1953  0.0260
18153TIP3    H275875   3.216   4.264   5.306  0.4506 -0.1357 -2.6058
18154TIP3   OH275876   0.265   6.385  17.137  0.3199 -0.3292  0.7381
18154TIP3    H175877   0.194   6.356  17.194  0.9773 -0.8365  1.3156
18154TIP3    H275878   0.291   6.470  17.172  2.1940 -1.6096  2.6077
18155TIP3   OH275879   3.836   5.522  16.069  0.3758  0.0899  0.0448
18155TIP3    H175880   3.773   5.575  16.118  1.6568  1.6757  0.0061
18155TIP3    H275881   3.886   5.476  16.136 -0.3195 -0.6080  0.0945
18156TIP3   OH275882   2.303   6.359   0.764  0.0617  0.1388 -0.1609
18156TIP3    H175883   2.388   6.391   0.733  0.1147  2.0940  1.8566
18156TIP3    H275884   2.325   6.299   0.835 -0.2151 -0.1773 -0.3425
18157TIP3   OH275885   2.972   3.028   0.522 -0.0158 -0.8419 -0.4759
18157TIP3    H175886   3.039   3.013   0.589 -0.1966  0.7007  0.0650
18157TIP3    H275887   3.018   3.073   0.452  0.4645 -3.5519 -1.9795
18158TIP3   OH275888   1.363   1.373  17.151  0.4550  0.1773  0.1356
18158TIP3    H175889   1.276   1.355  17.187  0.6779 -1.2906 -0.0332
18158TIP3    H275890   1.389   1.291  17.108  1.4588  0.9495 -0.7690
18159TIP3   OH275891   1.910   4.851  11.956 -0.0293 -0.2671 -0.6441
18159TIP3    H175892   1.994   4.805  11.954 -0.0819 -0.4382  0.6691
18159TIP3    H275893   1.932   4.943  11.939  0.3921 -0.3657 -0.6332
18160TIP3   OH275894   2.774   3.765   3.127  0.3403  0.2464  0.5118
18160TIP3    H175895   2.852   3.768   3.072 -0.6361  1.4730 -0.8573
18160TIP3    H275896   2.750   3.857   3.140 -1.7430 -0.1295 -0.4195
18161TIP3   OH275897   3.882   4.183   5.558  0.1063 -0.4558  0.0166
18161TIP3    H175898   3.894   4.195   5.652 -0.6890 -1.1481  0.2191
18161TIP3    H275899   3.904   4.268   5.520  0.0320 -0.0477  0.8681
18162TIP3   OH275900   4.174   3.173   1.862  0.2489 -0.0952  0.7471
18162TIP3    H175901   4.110   3.175   1.791  0.9041 -0.5265  0.1347
18162TIP3    H275902   4.125   3.201   1.939 -0.5739 -0.0232  0.2077
18163TIP3   OH275903   4.746   3.391   5.377  0.2810 -0.1947  0.0371
18163TIP3    H175904   4.796   3.413   5.298 -0.0244 -0.0217 -0.1086
18163TIP3    H275905   4.735   3.476   5.421  0.1243 -0.2355  0.0737
18164TIP3   OH275906   5.096   5.335  16.651 -0.1369 -0.3721  0.0645
18164TIP3    H175907   5.074   5.419  16.610 -1.9514 -1.4642 -1.2967
18164TIP3    H275908   5.159   5.295  16.591 -0.4386 -0.6279 -0.0877
18165TIP3   OH275909   2.241   5.681  11.465  0.2850  0.2067  0.5122
18165TIP3    H175910   2.216   5.762  11.420  0.3917  0.7885  1.4890
18165TIP3    H275911   2.258   5.619  11.394 -1.2603  0.5930 -0.2148
18166TIP3   OH275912   6.330   6.721  12.129  0.2421  0.6995 -0.3261
18166TIP3    H175913   6.246   6.677  12.140 -2.1155  4.4062 -2.3168
18166TIP3    H275914   6.352   6.705  12.037  3.0485 -2.2791  0.7669
18167TIP3   OH275915   1.220   1.465   2.941  0.4178 -0.1314 -0.4976
18167TIP3    H175916   1.227   1.559   2.928  0.4889  0.1446  1.4684
18167TIP3    H275917   1.130   1.444   2.915 -0.1851  0.7835  0.7836
18168TIP3   OH275918   6.685   0.542  13.350 -0.4527  0.2735  0.3660
18168TIP3    H175919   6.768   0.555  13.304  0.7568  0.7612  2.6493
18168TIP3    H275920   6.665   0.449  13.338  1.5570 -0.3446  1.6829
18169TIP3   OH275921   4.294   5.379  12.759  0.6384 -0.0811  0.3812
18169TIP3    H175922   4.344   5.451  12.797 -0.3874  0.6546  0.3563
18169TIP3    H275923   4.237   5.349  12.830 -0.3430  0.4422 -0.1598
18170TIP3   OH275924   3.345   5.267   2.798 -0.6772 -0.1416  0.3057
18170TIP3    H175925   3.356   5.361   2.812 -0.3526 -0.1018 -0.1802
18170TIP3    H275926   3.296   5.237   2.874  0.1464  0.2376  1.0017
18171TIP3   OH275927   3.878   6.583  14.591 -0.3516  0.1672  0.1147
18171TIP3    H175928   3.893   6.510  14.651  2.4289  0.5926  0.0118
18171TIP3    H275929   3.846   6.543  14.511 -0.7512 -0.7413  0.7177
18172TIP3   OH275930   2.573   6.551  11.935 -0.4900 -0.4041 -0.0467
18172TIP3    H175931   2.628   6.473  11.925 -0.3098 -0.1430 -1.0921
18172TIP3    H275932   2.499   6.536  11.877 -0.2937  0.3504 -0.4925
18173TIP3   OH275933   2.486   5.700   5.456  0.1557  0.1715 -0.3983
18173TIP3    H175934   2.426   5.760   5.413  1.4011  1.6108 -0.1722
18173TIP3    H275935   2.573   5.728   5.427  1.1661  2.0565  4.0122
18174TIP3   OH275936   2.226   3.928  13.739  0.2168  0.4387  0.2925
18174TIP3    H175937   2.149   3.955  13.688 -1.6403 -1.9818  1.7204
18174TIP3    H275938   2.218   3.833  13.745  2.5217  0.3238  1.7783
18175TIP3   OH275939   4.896   1.012  12.529 -0.1284 -0.0286  0.1016
18175TIP3    H175940   4.875   0.938  12.585 -0.6559 -0.4851 -0.6806
18175TIP3    H275941   4.851   1.087  12.570  0.9560  0.0034  1.2583
18176TIP3   OH275942   4.707   6.538  13.201 -0.3472  0.4662 -0.8419
18176TIP3    H175943   4.796   6.545  13.238  0.4101  2.3752 -2.9246
18176TIP3    H275944   4.709   6.458  13.149 -0.3634 -0.3700  0.4235
18177TIP3   OH275945   1.158   1.906  11.727  0.4315 -0.4703 -0.0367
18177TIP3    H175946   1.148   1.919  11.822  1.1000 -0.9137  0.0935
18177TIP3    H275947   1.135   1.991  11.690  3.4591  0.7678  0.7474
18178TIP3   OH275948   4.471   2.334   4.310  0.0695  0.3277  0.3148
18178TIP3    H175949   4.380   2.333   4.338  0.0075  0.8133  0.1240
18178TIP3    H275950   4.519   2.300   4.385 -0.2501  0.2186  0.4709
18179TIP3   OH275951   5.038   1.923  14.031  0.4267  0.1801 -0.4237
18179TIP3    H175952   5.115   1.865  14.028  0.3722  0.0472  0.5872
18179TIP3    H275953   4.964   1.865  14.014  0.0326 -0.7272  3.8802
18180TIP3   OH275954   1.431   1.890  14.163  0.0903  0.2089  1.0723
18180TIP3    H175955   1.417   1.957  14.230 -2.5202  1.9852 -1.1544
18180TIP3    H275956   1.495   1.928  14.104  0.1580 -0.1211  0.9349
18181TIP3   OH275957   1.434   0.600  10.866 -0.2137 -0.8039 -0.1326
18181TIP3    H175958   1.416   0.547  10.944  0.8019 -0.2901  0.4613
18181TIP3    H275959   1.414   0.689  10.893  1.2029 -0.4844 -0.1020
18182TIP3   OH275960   1.936   1.476  15.353  0.4840 -0.3178  0.6061
18182TIP3    H175961   1.960   1.513  15.267 -0.0844 -0.0826  0.5481
18182TIP3    H275962   1.963   1.542  15.416  0.5458 -0.3217  0.5836
18183TIP3   OH275963   0.962   1.746   4.671 -0.3171 -0.3049 -0.0057
18183TIP3    H175964   0.968   1.730   4.765 -0.6967 -0.8564 -0.0790
18183TIP3    H275965   1.011   1.828   4.658 -0.6528  0.0203  0.7336
18184TIP3   OH275966   0.212   4.600  14.047 -0.2877  0.3632  0.5086
18184TIP3    H175967   0.206   4.597  14.143 -0.5679  0.2661  0.4867
18184TIP3    H275968   0.281   4.664  14.030  0.4181 -0.3083  0.8004
18185TIP3   OH275969   0.269   2.835  10.707 -0.4397  0.1432  0.7009
18185TIP3    H175970   0.349   2.800  10.668 -0.1469  0.2749  1.1774
18185TIP3    H275971   0.267   2.796  10.795  0.2641  1.8653  1.5165
18186TIP3   OH275972   1.055   0.004   3.713 -0.1477 -0.9902  0.1867
18186TIP3    H175973   1.039  -0.075   3.661  0.0218 -0.9371  0.0502
18186TIP3    H275974   0.978   0.059   3.698  0.2269 -0.6588 -0.6057
18187TIP3   OH275975   5.828   6.192  14.059  0.2633 -0.3606  0.5561
18187TIP3    H175976   5.855   6.203  14.151  2.4899 -1.4499  0.0557
18187TIP3    H275977   5.794   6.103  14.054 -0.1222 -0.2053  0.3773
18188TIP3   OH275978   3.866   0.948   0.845 -0.2642 -0.1972  0.2653
18188TIP3    H175979   3.820   1.032   0.852  0.0271 -0.1799  2.4949
18188TIP3    H275980   3.861   0.911   0.933  0.9328 -1.8257 -0.3266
18189TIP3   OH275981   0.199   0.978  16.362 -0.4819 -0.4241 -0.1430
18189TIP3    H175982   0.149   1.024  16.294 -0.0005  1.4152  0.7258
18189TIP3    H275983   0.290   1.005  16.347 -0.2922 -0.5247  0.8205
18190TIP3   OH275984   2.332   5.372   1.232  0.2613  0.1201  0.7111
18190TIP3    H175985   2.303   5.299   1.178  0.0938  0.3081  0.5488
18190TIP3    H275986   2.428   5.364   1.235  0.6444  2.3324 -2.7859
18191TIP3   OH275987   0.763   3.409   4.861 -0.1440  0.1031  0.6651
18191TIP3    H175988   0.801   3.424   4.947  1.0223 -0.7220  0.3126
18191TIP3    H275989   0.785   3.318   4.841 -0.4674  0.2673 -0.4722
18192TIP3   OH275990   2.630   0.298  10.613 -0.6435  0.7688  0.5549
18192TIP3    H175991   2.725   0.289  10.623 -0.2716  2.4523 -1.0916
18192TIP3    H275992   2.610   0.383  10.653 -1.4463  0.4769  0.7767
18193TIP3   OH275993   5.752   2.150   0.495  0.2471  0.2841  0.1711
18193TIP3    H175994   5.841   2.152   0.529  0.7929  1.0633 -1.2718
18193TIP3    H275995   5.741   2.061   0.461  0.3148  0.0610  0.7194
18194TIP3   OH275996   0.230   1.056   4.206  0.2047 -0.3832 -0.1869
18194TIP3    H175997   0.318   1.067   4.243 -0.4359 -0.1918  1.3443
18194TIP3    H275998   0.226   0.964   4.182  0.7852 -0.4234 -0.1399
18195TIP3   OH275999   2.792   5.706   2.619 -0.3431 -0.1474  0.2352
18195TIP3    H176000   2.701   5.731   2.601 -0.3399 -0.7574 -0.6439
18195TIP3    H276001   2.841   5.734   2.541  0.1554 -0.2331  0.5127
18196TIP3   OH276002   4.749   1.807   1.067  0.1393 -0.4210 -0.2336
18196TIP3    H176003   4.730   1.769   1.152  0.1230  1.5119  0.6439
18196TIP3    H276004   4.743   1.734   1.006 -1.1136 -1.5655  1.2444
18197TIP3   OH276005   0.188   4.806   1.134 -0.6760 -0.1034  0.1655
18197TIP3    H176006   0.223   4.894   1.124  0.9305 -0.5100  1.9557
18197TIP3    H276007   0.139   4.808   1.216 -2.3330 -0.3574 -0.7963
18198TIP3   OH276008   1.536   3.219  11.074 -0.5067  0.4378 -0.7009
18198TIP3    H176009   1.503   3.242  10.987  0.2808 -0.5948 -1.2710
18198TIP3    H276010   1.492   3.138  11.096 -0.2763  0.3985 -0.3800
18199TIP3   OH276011   5.312   6.245  15.309  0.6256 -0.6953 -0.2082
18199TIP3    H176012   5.360   6.327  15.321 -0.2279 -0.2938  0.5370
18199TIP3    H276013   5.371   6.178  15.344  1.0161 -0.3059 -0.1117
18200TIP3   OH276014   2.103   0.828  15.658 -0.3040  0.2892  0.2818
18200TIP3    H176015   2.018   0.815  15.616  0.9110  0.7264 -2.4069
18200TIP3    H276016   2.162   0.852  15.587  2.1938 -0.4652  2.0173
18201TIP3   OH276017   5.494   2.017  17.188 -0.2343  0.2462  0.3436
18201TIP3    H176018   5.498   2.061  17.273  0.1248 -0.2557  0.5915
18201TIP3    H276019   5.467   1.928  17.209  1.0787 -0.2287  0.0641
18202TIP3   OH276020   2.704   0.516   3.734 -0.0323 -0.0895 -0.4881
18202TIP3    H176021   2.684   0.427   3.764 -0.0393 -0.0667 -0.4269
18202TIP3    H276022   2.790   0.536   3.772  1.2205 -1.1067 -2.6807
18203TIP3   OH276023   3.436   3.294   1.213  0.1287  0.0180  0.3281
18203TIP3    H176024   3.391   3.374   1.186  0.1252 -0.2177 -0.3782
18203TIP3    H276025   3.522   3.324   1.243  0.0478  0.3132  0.2706
18204TIP3   OH276026   1.850   1.371   6.139  0.1131  0.1121  0.0441
18204TIP3    H176027   1.912   1.406   6.075  1.1763 -0.3376  0.8208
18204TIP3    H276028   1.819   1.449   6.187  1.7724  0.1081  1.1484
18205TIP3   OH276029   5.208   1.353  16.366  0.9592 -0.4532 -0.4591
18205TIP3    H176030   5.195   1.321  16.455 -0.6712  2.0649  0.2666
18205TIP3    H276031   5.135   1.315  16.316  0.9595 -0.5910 -0.3553
18206TIP3   OH276032   2.708   0.056   4.897  0.0656 -0.6415  0.4301
18206TIP3    H176033   2.786   0.035   4.948  0.2879 -1.1633 -0.1175
18206TIP3    H276034   2.707  -0.009   4.826  0.1689  0.5287 -0.6720
18207TIP3   OH276035   6.035   1.271  13.845  0.1471  0.3113 -0.2735
18207TIP3    H176036   6.085   1.346  13.875  1.1298 -0.0631 -0.9296
18207TIP3    H276037   6.081   1.242  13.765 -0.1768 -1.0080  0.0006
18208TIP3   OH276038   1.112   5.537   3.780 -0.1628  0.6211 -0.1231
18208TIP3    H176039   1.198   5.576   3.770 -0.6345  1.9288  0.8035
18208TIP3    H276040   1.082   5.522   3.690  0.8747  0.4665 -0.4471
18209TIP3   OH276041   3.064   2.882   5.489 -0.0611  0.1202  0.8023
18209TIP3    H176042   3.060   2.913   5.579 -1.1455  0.2284  0.7237
18209TIP3    H276043   3.124   2.942   5.445  1.0328 -0.3675  1.6149
18210TIP3   OH276044   1.348   6.401   0.912 -0.0051  0.2988  0.2772
18210TIP3    H176045   1.363   6.486   0.954 -3.2439  1.2788 -0.3458
18210TIP3    H276046   1.272   6.416   0.855  0.4215 -2.6034 -1.1583
18211TIP3   OH276047   5.580   4.524  13.587 -0.2868  0.1323 -0.2608
18211TIP3    H176048   5.558   4.479  13.669 -1.5538  2.3673  0.6624
18211TIP3    H276049   5.501   4.517  13.534 -0.7360  1.8202  0.1588
18212TIP3   OH276050   4.834   3.277   5.121 -1.0350  0.0663  0.2000
18212TIP3    H176051   4.912   3.292   5.068  1.1414 -1.7624  2.7989
18212TIP3    H276052   4.784   3.212   5.071  0.6022 -1.0364 -0.0557
18213TIP3   OH276053   0.858   5.001   2.256 -0.0784 -0.3631  0.1794
18213TIP3    H176054   0.804   5.032   2.329 -0.1291  1.0561 -0.4590
18213TIP3    H276055   0.833   4.909   2.245 -1.4848 -0.0482  0.6726
18214TIP3   OH276056   3.319   5.053  14.803  1.0363 -0.2659 -0.2094
18214TIP3    H176057   3.284   5.077  14.889 -1.4520 -1.7361 -0.7600
18214TIP3    H276058   3.367   4.972  14.818  0.4461 -0.6230 -0.2113
18215TIP3   OH276059   1.152   1.757   5.294 -0.2599 -0.1838  0.0833
18215TIP3    H176060   1.233   1.726   5.334  0.3442  2.9292  1.4574
18215TIP3    H276061   1.180   1.806   5.217 -0.9037  0.1456  0.0537
18216TIP3   OH276062   6.371   5.016   3.502  0.6858 -0.1510 -0.3875
18216TIP3    H176063   6.310   5.060   3.442 -0.3489 -1.2254 -0.1394
18216TIP3    H276064   6.375   5.074   3.578 -0.1743 -0.1615 -0.3304
18217TIP3   OH276065   5.975   3.345  13.550 -0.2757 -0.0593 -0.1496
18217TIP3    H176066   5.904   3.347  13.487  0.9978  1.5083 -1.5638
18217TIP3    H276067   6.010   3.434  13.551  1.0264 -0.5496  1.2627
18218TIP3   OH276068   4.099   0.521   0.855  0.1470 -0.2719 -0.1350
18218TIP3    H176069   4.090   0.534   0.761 -0.1981  0.3992 -0.0096
18218TIP3    H276070   4.035   0.453   0.876  0.0619 -0.2569 -0.3424
18219TIP3   OH276071   2.287   1.275   0.013 -0.4306 -0.7563 -0.4459
18219TIP3    H176072   2.209   1.323  -0.014 -0.6926 -0.6676  0.4801
18219TIP3    H276073   2.307   1.308   0.100  1.6508  0.4949 -1.3522
18220TIP3   OH276074   6.028   5.758  12.437 -0.2191 -0.0423  0.1109
18220TIP3    H176075   6.073   5.677  12.413  0.7119  0.2793  0.7022
18220TIP3    H276076   6.091   5.827  12.418 -0.6009  0.4535  0.6061
18221TIP3   OH276077   2.228   2.008  14.936  0.5676 -0.2224 -0.2111
18221TIP3    H176078   2.244   1.957  14.857  3.1878 -1.4875  1.0812
18221TIP3    H276079   2.212   1.943  15.004 -1.2257  0.8426  0.4504
18222TIP3   OH276080   2.457   4.198  14.537  0.3076  0.7863  0.0130
18222TIP3    H176081   2.415   4.247  14.608 -0.2738  0.9066 -0.4071
18222TIP3    H276082   2.525   4.147  14.581 -1.8734 -1.3152  1.1265
18223TIP3   OH276083   3.533   1.414   2.024  0.4599 -0.3484 -0.1590
18223TIP3    H176084   3.482   1.486   1.987 -0.3585 -1.2922 -0.8523
18223TIP3    H276085   3.505   1.336   1.977  0.9330 -1.2341  0.9853
18224TIP3   OH276086   4.265   1.176  12.174  0.5047  0.0109 -0.3336
18224TIP3    H176087   4.196   1.225  12.219  2.7476  1.2825  1.8197
18224TIP3    H276088   4.321   1.243  12.135  1.5331 -0.9498 -0.5472
18225TIP3   OH276089   0.998   0.958  11.011 -0.2644  0.0642  0.3567
18225TIP3    H176090   1.091   0.981  11.005 -0.5743  0.8625 -2.2340
18225TIP3    H276091   0.993   0.868  10.979 -0.4593  0.2271 -0.0724
18226TIP3   OH276092   3.288   2.997  10.849  0.2490  0.2966  0.1576
18226TIP3    H176093   3.344   2.954  10.914 -1.2995 -0.6802  0.8555
18226TIP3    H276094   3.282   2.934  10.777  2.8143  1.7934 -1.4541
18227TIP3   OH276095   0.413   6.173  12.810  0.4615  0.2298  0.2863
18227TIP3    H176096   0.473   6.239  12.845  1.8430  0.6158 -2.7379
18227TIP3    H276097   0.385   6.208  12.726 -2.5261 -0.8709  0.7581
18228TIP3   OH276098   5.214   5.810  13.401  0.2092 -0.3777  0.3365
18228TIP3    H176099   5.208   5.869  13.326  1.2987 -0.9990 -0.2510
18228TIP3    H276100   5.248   5.728  13.365 -0.6557 -1.1508  1.2640
18229TIP3   OH276101   0.812   4.775  15.976 -0.1503 -0.4002  0.2560
18229TIP3    H176102   0.721   4.793  15.951  0.1166  0.3822 -0.1840
18229TIP3    H276103   0.864   4.824  15.912  0.5657  0.4385  1.4667
18230TIP3   OH276104   1.527   5.424  16.761 -0.4418 -0.2676 -0.2504
18230TIP3    H176105   1.615   5.461  16.760  0.0691 -1.4190  1.3673
18230TIP3    H276106   1.497   5.433  16.670  1.2873  0.2377 -0.7929
18231TIP3   OH276107   0.604   1.962   1.264 -0.4673 -0.0290 -0.3058
18231TIP3    H176108   0.555   1.927   1.339 -0.1231 -0.0871 -0.1104
18231TIP3    H276109   0.557   1.928   1.188 -1.0962  0.4175 -0.1194
18232TIP3   OH276110   3.644   6.500   0.649 -0.5365 -0.0218 -0.0508
18232TIP3    H176111   3.656   6.435   0.580 -1.5831 -0.8685  0.5444
18232TIP3    H276112   3.696   6.467   0.723 -0.0782  0.4589 -0.1526
18233TIP3   OH276113   6.630   5.928   0.535  0.3396 -0.4086 -0.4665
18233TIP3    H176114   6.587   5.961   0.613  2.1662  0.2662  0.2869
18233TIP3    H276115   6.708   5.882   0.567  1.3883  0.3187 -1.8936
18234TIP3   OH276116   3.175   2.805  12.504  0.2358 -0.6777  0.3745
18234TIP3    H176117   3.181   2.896  12.533 -3.0173 -0.5661  0.8946
18234TIP3    H276118   3.178   2.810  12.408  1.5575 -0.1821  0.4332
18235TIP3   OH276119   0.462   0.753   0.212  0.1047 -0.7486 -0.3423
18235TIP3    H176120   0.527   0.715   0.270  0.9767  3.3067  1.5175
18235TIP3    H276121   0.504   0.755   0.126  1.6645 -0.0249  0.4247
18236TIP3   OH276122   1.436   5.487  13.026  0.4689 -0.1852  0.1748
18236TIP3    H176123   1.478   5.404  13.051 -0.3207  0.1417  2.7365
18236TIP3    H276124   1.343   5.471  13.040  0.0441  0.2694 -1.9999
18237TIP3   OH276125   6.294   2.727   0.058 -0.0569  0.3747  0.1254
18237TIP3    H176126   6.281   2.740   0.152 -1.9676 -0.3297 -0.0218
18237TIP3    H276127   6.338   2.642   0.052 -1.0482 -0.1542  0.3195
18238TIP3   OH276128   1.645   3.412  14.576 -0.1923  0.4985 -0.4050
18238TIP3    H176129   1.675   3.498  14.546 -0.2629  0.5729 -0.2590
18238TIP3    H276130   1.550   3.417  14.573 -0.2042  0.5667  0.0064
18239TIP3   OH276131   3.208   2.502   0.662  0.2821  0.2657  0.2756
18239TIP3    H176132   3.234   2.592   0.683 -0.4799  0.8745 -1.2823
18239TIP3    H276133   3.251   2.484   0.578  0.6956 -0.9529  0.7354
18240TIP3   OH276134   3.072   1.817  11.389 -0.4282 -0.0371 -0.2413
18240TIP3    H176135   3.073   1.768  11.306 -0.1042  0.1946 -0.3754
18240TIP3    H276136   3.158   1.859  11.393 -1.0924  1.4031 -0.6549
18241TIP3   OH276137   1.357   6.560  16.578 -0.5277  0.5838 -0.8133
18241TIP3    H176138   1.293   6.529  16.641  1.9802 -0.3591  1.3290
18241TIP3    H276139   1.363   6.654  16.593 -1.1158  0.6111 -0.7617
18242TIP3   OH276140   3.384   1.892   3.321 -0.2542  0.3890 -0.5502
18242TIP3    H176141   3.348   1.979   3.341  1.9992  1.2630 -0.1209
18242TIP3    H276142   3.421   1.862   3.404 -2.6961 -1.8658 -0.1968
18243TIP3   OH276143   2.250   1.738  11.132  0.0550 -0.2105  0.7970
18243TIP3    H176144   2.230   1.765  11.221 -1.6465 -1.0066  0.6747
18243TIP3    H276145   2.337   1.699  11.137  0.7327  1.3549  1.7606
18244TIP3   OH276146   3.592   1.016  16.029  0.4808  0.4419  0.3812
18244TIP3    H176147   3.564   1.107  16.038 -0.0001  0.2333  1.0998
18244TIP3    H276148   3.527   0.976  15.971 -0.4162  0.0907  1.6126
18245TIP3   OH276149   5.578   3.499   6.245 -0.0442  0.5968 -0.0733
18245TIP3    H176150   5.654   3.444   6.226  0.3778  0.6778  1.3581
18245TIP3    H276151   5.555   3.480   6.336 -0.7196  1.7844  0.0266
18246TIP3   OH276152   4.781   0.014  15.277 -0.2040  0.2602  0.7447
18246TIP3    H176153   4.807   0.100  15.244  0.3842  0.2587  1.1897
18246TIP3    H276154   4.704  -0.009  15.225  0.8667  0.1218 -0.8118
18247TIP3   OH276155   6.532   6.310   3.889 -0.2774  1.0133  0.3921
18247TIP3    H176156   6.597   6.342   3.951 -2.5326  1.5033  2.5673
18247TIP3    H276157   6.477   6.251   3.939 -1.0793  0.0116 -1.6015
18248TIP3   OH276158   1.878   4.242  14.612  0.0605 -0.2265 -0.4150
18248TIP3    H176159   1.821   4.288  14.674  1.8124  3.1344 -1.1592
18248TIP3    H276160   1.824   4.232  14.533 -0.1240  1.2649 -0.4962
18249TIP3   OH276161   5.394   5.783  12.114 -0.4335 -0.2037  0.1052
18249TIP3    H176162   5.399   5.852  12.180  1.5673 -1.2890  1.1388
18249TIP3    H276163   5.486   5.767  12.090 -1.0202 -1.0946 -1.5936
18250TIP3   OH276164   4.703   2.292  12.413 -0.2045 -0.2024 -0.4602
18250TIP3    H176165   4.695   2.387  12.420  5.1302  0.5104 -1.4165
18250TIP3    H276166   4.713   2.275  12.320  1.9997 -1.2977 -0.0571
18251TIP3   OH276167   4.294   6.535   3.712 -0.2247 -0.4238 -0.1289
18251TIP3    H176168   4.328   6.625   3.713 -0.1200 -0.4621 -0.5784
18251TIP3    H276169   4.219   6.539   3.653 -1.4731 -0.1644  1.4455
18252TIP3   OH276170   4.427   1.650  15.165  0.2296  0.4803 -0.5855
18252TIP3    H176171   4.396   1.563  15.140 -0.5052  0.0423  1.7542
18252TIP3    H276172   4.371   1.710  15.115 -0.2348 -0.3626 -1.0966
18253TIP3   OH276173   5.254   4.971  17.011 -0.3434  0.6988 -1.0114
18253TIP3    H176174   5.262   5.052  16.960  0.1946  0.4167 -1.3754
18253TIP3    H276175   5.319   4.912  16.974 -2.2037 -0.6650 -2.1688
18254TIP3   OH276176   6.521   5.649  16.978  0.3793  0.5079  0.4288
18254TIP3    H176177   6.497   5.637  16.886  0.3714 -0.7716  0.5983
18254TIP3    H276178   6.522   5.744  16.990  0.1855  0.6761 -0.8428
18255TIP3   OH276179   5.073   1.964  12.991  0.2576  0.7441 -0.5444
18255TIP3    H176180   5.084   2.000  13.079  0.2061  1.4670 -0.8252
18255TIP3    H276181   5.007   2.020  12.950 -1.6272 -1.1744 -0.1889
18256TIP3   OH276182   0.616   5.223   2.737  0.0939  0.4029  0.0834
18256TIP3    H176183   0.645   5.215   2.827 -0.3998  0.4209  0.2458
18256TIP3    H276184   0.533   5.174   2.734  0.1947  0.2553 -0.3980
18257TIP3   OH276185   3.485   2.160   5.437  0.5909 -0.1479 -0.3846
18257TIP3    H176186   3.511   2.086   5.493 -1.2618 -0.3997  0.1581
18257TIP3    H276187   3.496   2.237   5.494 -1.7152 -0.4448  0.5146
18258TIP3   OH276188   4.826   3.570  11.524 -0.1376 -0.2781 -0.1598
18258TIP3    H176189   4.865   3.622  11.453  1.8255 -0.5603  0.6818
18258TIP3    H276190   4.886   3.496  11.535  0.8592  0.9425  3.3010
18259TIP3   OH276191   6.579   4.959  12.320 -0.7598 -0.3306  0.5481
18259TIP3    H176192   6.637   4.965  12.395  1.3725 -0.1156 -1.0824
18259TIP3    H276193   6.513   4.894  12.345  1.5419 -2.3261  1.5453
18260TIP3   OH276194   2.726   5.904  13.888 -0.4856  0.5804  0.1428
18260TIP3    H176195   2.650   5.861  13.929  0.0662  0.2445  0.8309
18260TIP3    H276196   2.701   5.914  13.797 -1.2686  0.2469  0.3123
18261TIP3   OH276197   6.690   2.377  16.907  0.3162  0.3939  0.2932
18261TIP3    H176198   6.685   2.470  16.885 -1.0209  0.0215 -1.0287
18261TIP3    H276199   6.615   2.363  16.966 -0.5854 -0.2167 -0.9689
18262TIP3   OH276200   0.009   6.786   0.026  0.9283 -0.1428 -0.2994
18262TIP3    H176201   0.089   6.836   0.011 -0.6270  2.3181 -0.6665
18262TIP3    H276202  -0.054   6.821  -0.036 -1.1847 -0.2585  1.6807
18263TIP3   OH276203   3.130   3.756  15.058  0.6292 -0.4078  0.2474
18263TIP3    H176204   3.075   3.827  15.024  1.5750  0.6545  0.8986
18263TIP3    H276205   3.180   3.727  14.982 -0.4427 -1.0324 -0.2361
18264TIP3   OH276206   5.366   2.705   1.747  0.8209  0.3565 -0.6130
18264TIP3    H176207   5.295   2.726   1.807  0.0305  0.6781 -1.6416
18264TIP3    H276208   5.342   2.620   1.709  1.4560  0.0169 -0.2668
18265TIP3   OH276209   2.324   5.906  13.636 -0.0832 -0.2583  0.1697
18265TIP3    H176210   2.364   5.964  13.571  1.0501 -0.4146  0.7103
18265TIP3    H276211   2.282   5.965  13.699  0.5317 -0.0392  0.3769
18266TIP3   OH276212   0.488   6.083   4.098 -0.0296 -0.1346 -0.8449
18266TIP3    H176213   0.454   6.150   4.038  0.3895 -0.5751 -1.5734
18266TIP3    H276214   0.582   6.098   4.100 -0.1345  0.5095  0.4888
18267TIP3   OH276215   0.695   0.232   5.033  0.0571 -0.4975 -0.1005
18267TIP3    H176216   0.625   0.231   5.099  1.5402  1.8256  1.5860
18267TIP3    H276217   0.698   0.143   4.999 -2.9255 -0.9233  0.6351
18268TIP3   OH276218   0.321   6.635  11.138  0.7391 -0.0920  0.2326
18268TIP3    H176219   0.247   6.595  11.184  0.3054  1.2571  0.7142
18268TIP3    H276220   0.298   6.628  11.045  1.7263 -3.0419  0.1396
18269TIP3   OH276221   0.985   0.729   1.184  0.4580  0.1166 -0.4232
18269TIP3    H176222   1.013   0.789   1.253 -0.1994  1.3062 -1.1839
18269TIP3    H276223   0.950   0.654   1.231  1.3859  0.2643  0.5371
18270TIP3   OH276224   5.585   2.791  14.364 -0.2702 -0.4834 -0.2414
18270TIP3    H176225   5.550   2.868  14.410 -1.8671 -0.7009 -1.0385
18270TIP3    H276226   5.637   2.828  14.293 -1.2648 -0.1222 -0.7944
18271TIP3   OH276227   4.703   1.568  15.093  0.0688 -0.0872  0.2906
18271TIP3    H176228   4.615   1.605  15.103  0.5516  0.8222  1.2535
18271TIP3    H276229   4.692   1.497  15.030 -1.7060 -1.1244  1.7048
18272TIP3   OH276230   4.431   6.535  16.556  0.1627  0.0536 -0.1659
18272TIP3    H176231   4.465   6.593  16.624  2.4077  1.4445 -2.3844
18272TIP3    H276232   4.344   6.570  16.536  1.1444  2.1993 -0.8678
18273TIP3   OH276233   2.926   0.558  16.089 -0.3162 -0.0221 -0.1355
18273TIP3    H176234   2.945   0.548  16.182  0.3197 -3.3171 -0.5701
18273TIP3    H276235   3.011   0.550  16.046 -0.8981 -0.8870 -1.1554
18274TIP3   OH276236   3.979   6.329   2.635 -1.0005  0.1649 -0.0157
18274TIP3    H176237   4.048   6.268   2.660 -0.1526  1.3621  0.6241
18274TIP3    H276238   3.956   6.304   2.545 -1.2690 -1.6128  0.5238
18275TIP3   OH276239   6.417   5.097   2.202 -0.8115  0.5027 -0.8004
18275TIP3    H176240   6.494   5.150   2.185  0.2847 -0.5299  0.7412
18275TIP3    H276241   6.451   5.008   2.214 -2.2754 -0.0390 -0.5274
18276TIP3   OH276242   2.318   4.025  14.039  0.1638 -0.5480  0.2704
18276TIP3    H176243   2.377   3.953  14.059 -0.6413 -1.9104 -2.0345
18276TIP3    H276244   2.241   4.009  14.094  0.0632 -1.3623 -0.0943
18277TIP3   OH276245   1.931   4.187   3.150 -0.1192  0.1362 -0.0123
18277TIP3    H176246   1.854   4.195   3.094  0.3664  1.0937 -0.5532
18277TIP3    H276247   1.968   4.102   3.128 -0.9555 -0.2766  0.1681
18278TIP3   OH276248   1.996   1.132  14.478 -0.8685  0.5271  0.1392
18278TIP3    H176249   2.091   1.119  14.482 -0.7631  1.6550  1.6792
18278TIP3    H276250   1.964   1.055  14.431  0.8776  0.5414 -1.1333
18279TIP3   OH276251   5.920   1.800  12.993 -0.0094  0.0522 -0.2085
18279TIP3    H176252   5.892   1.804  13.085  1.5254  0.1700  0.2807
18279TIP3    H276253   6.008   1.837  12.994  0.2893 -0.5862 -1.6232
18280TIP3   OH276254   2.081   6.196  13.307  0.1717 -0.7025  0.5463
18280TIP3    H176255   2.034   6.278  13.295 -0.4971 -1.0608  0.6686
18280TIP3    H276256   2.020   6.129  13.276  0.4223 -1.2113  1.1403
18281TIP3   OH276257   6.670   4.411  10.730  0.3611  0.4731  0.3802
18281TIP3    H176258   6.717   4.456  10.800  1.3135 -1.6230  1.1556
18281TIP3    H276259   6.702   4.451  10.650  1.6661  0.7489  1.0270
18282TIP3   OH276260   1.897   2.226   3.647  0.5156  0.0114  0.0777
18282TIP3    H176261   1.925   2.157   3.708  1.5312 -0.8288 -1.3117
18282TIP3    H276262   1.974   2.281   3.635  0.6739 -0.4783 -1.3029
18283TIP3   OH276263   1.909   0.508   1.818 -0.0200  0.0387 -0.8397
18283TIP3    H176264   1.935   0.504   1.910  0.9478 -0.8065 -1.1425
18283TIP3    H276265   1.982   0.552   1.774 -1.6878  2.9902 -0.7882
18284TIP3   OH276266   3.362   5.534   2.864 -0.2744 -0.2310 -0.1208
18284TIP3    H176267   3.436   5.547   2.923  0.7058  1.0790 -1.5765
18284TIP3    H276268   3.286   5.558   2.916  0.5155  0.2831  0.8298
18285TIP3   OH276269   4.141   5.209  15.179 -0.1307  0.4276 -0.1706
18285TIP3    H176270   4.163   5.170  15.264  2.3227 -0.2245 -1.0567
18285TIP3    H276271   4.142   5.304  15.196  0.0486  0.2938  0.5968
18286TIP3   OH276272   0.177   1.311  12.552  0.2071  0.2143  0.1174
18286TIP3    H176273   0.215   1.399  12.563 -0.1031  0.5323 -1.2070
18286TIP3    H276274   0.158   1.282  12.641  2.4054  0.5618  0.7365
18287TIP3   OH276275   1.489   1.325   2.512 -0.1430 -0.0790 -0.1576
18287TIP3    H176276   1.459   1.373   2.589  0.2961 -0.2437  0.1135
18287TIP3    H276277   1.452   1.374   2.438  1.5184  1.5357  0.0585
18288TIP3   OH276278   6.481   3.382  13.067  0.0565  0.2012 -0.1197
18288TIP3    H176279   6.398   3.421  13.042 -1.3617 -3.2241 -1.0196
18288TIP3    H276280   6.470   3.357  13.159 -0.0057 -0.4337 -0.2960
18289TIP3   OH276281   3.467   0.625   4.013  0.1129  0.6680 -0.1893
18289TIP3    H176282   3.380   0.659   3.994 -0.4062 -0.0295  0.8934
18289TIP3    H276283   3.457   0.530   4.008  1.1053  0.5997 -1.2741
18290TIP3   OH276284   4.380   6.371  14.538  0.0960 -0.2348 -0.1786
18290TIP3    H176285   4.408   6.329  14.619  1.4863 -0.0416 -0.5406
18290TIP3    H276286   4.355   6.298  14.480  0.3666 -0.4473 -0.0301
18291TIP3   OH276287   1.763   2.035   5.739 -0.4529 -0.1910 -0.5031
18291TIP3    H176288   1.785   1.942   5.738  0.4463  0.0112 -0.1940
18291TIP3    H276289   1.735   2.052   5.829 -0.0548 -0.0396 -0.4065
18292TIP3   OH276290   5.458   0.898  11.370 -0.3272  0.0530 -0.4358
18292TIP3    H176291   5.523   0.839  11.332  1.7400  2.4098 -0.7149
18292TIP3    H276292   5.394   0.912  11.300  0.9113  0.6657 -1.4605
18293TIP3   OH276293   1.696   2.762  12.437 -0.2298 -0.4876 -0.0634
18293TIP3    H176294   1.660   2.845  12.470 -0.5908 -0.7269  0.1546
18293TIP3    H276295   1.648   2.747  12.355 -0.9661 -1.0496  0.4720
18294TIP3   OH276296   0.125   3.252  11.713  0.1592  0.2613  0.2505
18294TIP3    H176297   0.086   3.239  11.627 -0.2267  1.0206  0.3047
18294TIP3    H276298   0.115   3.168  11.757  0.2279 -0.0878 -0.3898
18295TIP3   OH276299   3.618   4.565   3.984  0.1355 -0.3837  0.0758
18295TIP3    H176300   3.631   4.504   3.911  0.1099 -1.6300  1.1025
18295TIP3    H276301   3.695   4.621   3.981 -0.7289  0.7709 -2.0318
18296TIP3   OH276302   3.385   0.733   3.749  1.0124  0.1484 -0.0571
18296TIP3    H176303   3.303   0.778   3.731  1.4485  0.6002 -0.9298
18296TIP3    H276304   3.441   0.801   3.787  1.7503  0.4198 -1.5886
18297TIP3   OH276305   6.454   3.039  15.051  0.0471 -0.3196  0.0250
18297TIP3    H176306   6.505   3.045  14.970 -0.3053 -3.2550 -0.4798
18297TIP3    H276307   6.368   3.006  15.024 -1.0671  1.4565  1.2666
18298TIP3   OH276308   2.855   0.370   0.254  0.1105  0.0270 -0.0091
18298TIP3    H176309   2.932   0.361   0.310 -0.1951  0.1920  0.4434
18298TIP3    H276310   2.806   0.443   0.292 -0.9256 -0.8986  0.4986
18299TIP3   OH276311   2.013   4.545  12.553  0.3417  0.4126 -0.2076
18299TIP3    H176312   1.936   4.536  12.497  2.0648  0.2954 -2.6309
18299TIP3    H276313   2.074   4.598  12.501  3.5131 -2.9391 -0.1102
18300TIP3   OH276314   2.833   2.871  16.317  0.1213 -0.1153 -0.4253
18300TIP3    H176315   2.919   2.872  16.275 -1.0303  1.6070 -2.8684
18300TIP3    H276316   2.849   2.902  16.406  1.9066  1.2965 -1.2076
18301TIP3   OH276317   2.197   2.491  16.561 -0.2379 -0.2759  0.2749
18301TIP3    H176318   2.259   2.509  16.490  0.0778  0.5384  0.7545
18301TIP3    H276319   2.157   2.407  16.537  0.0723 -0.1453 -0.7204
18302TIP3   OH276320   6.659   1.859   3.284 -0.0729  0.1081 -0.4298
18302TIP3    H176321   6.620   1.924   3.343  1.6351  2.3203 -1.6631
18302TIP3    H276322   6.752   1.859   3.306  0.2267 -0.6408 -1.6337
18303TIP3   OH276323   1.508   0.975   2.408 -0.5655  0.0521  0.2592
18303TIP3    H176324   1.587   0.953   2.359 -0.3006 -1.2983  1.2646
18303TIP3    H276325   1.538   1.030   2.480 -0.6275  0.0263  0.3047
18304TIP3   OH276326   0.536   2.412   4.855  0.0008 -0.6213 -0.4667
18304TIP3    H176327   0.599   2.380   4.791  0.2755 -0.0180 -0.4948
18304TIP3    H276328   0.560   2.368   4.937  1.0797  0.3771 -0.2404
18305TIP3   OH276329   3.395   5.878   3.121 -0.2190 -0.2962  0.1233
18305TIP3    H176330   3.327   5.882   3.054  1.5307  2.9246 -1.6255
18305TIP3    H276331   3.471   5.840   3.076  0.8182  1.4046  0.3868
18306TIP3   OH276332   5.676   2.836   1.905 -0.0260  0.0335  0.6446
18306TIP3    H176333   5.686   2.768   1.838 -2.0612  0.1294  0.2050
18306TIP3    H276334   5.583   2.858   1.903  0.5456  2.6946  0.9209
18307TIP3   OH276335   2.389   0.355   5.047  0.1230 -0.4315  0.5177
18307TIP3    H176336   2.375   0.286   4.982 -0.1558 -0.7341  0.8955
18307TIP3    H276337   2.347   0.432   5.009  0.6673 -0.3988 -0.0293
18308TIP3   OH276338   1.599   6.006   4.483 -0.1243 -0.0496  0.2934
18308TIP3    H176339   1.602   6.090   4.528 -0.1318 -0.7078  1.5355
18308TIP3    H276340   1.690   5.978   4.477 -0.2459 -0.6801  1.2788
18309TIP3   OH276341   5.572   1.332  14.672  0.3179 -0.2974  0.1633
18309TIP3    H176342   5.615   1.382  14.741 -0.4595  1.8616 -0.8552
18309TIP3    H276343   5.488   1.305  14.711  0.5883 -0.5213  0.5975
18310TIP3   OH276344   6.095   4.924   2.709  0.0727 -0.8042  0.6489
18310TIP3    H176345   6.061   4.839   2.680  0.2066 -0.5749 -0.1716
18310TIP3    H276346   6.029   4.988   2.681  1.0124 -0.3966 -0.6601
18311TIP3   OH276347   3.317   2.468   4.726 -0.3506 -0.0592 -0.2055
18311TIP3    H176348   3.293   2.387   4.681 -0.3787 -0.2462  0.1477
18311TIP3    H276349   3.345   2.527   4.655 -0.5649 -0.2911 -0.4864
18312TIP3   OH276350   4.908   5.117   0.084  0.0962  0.0871  0.8295
18312TIP3    H176351   4.838   5.109   0.019  3.6172  0.3527 -3.2216
18312TIP3    H276352   4.907   5.209   0.110 -1.2954 -0.0031  1.1241
18313TIP3   OH276353   5.183   6.732  16.231  0.1068 -0.5033  0.0241
18313TIP3    H176354   5.089   6.748  16.237  0.1322  0.0428 -0.9145
18313TIP3    H276355   5.221   6.818  16.215  0.5791 -0.9983 -1.5671
18314TIP3   OH276356   1.054   0.361   0.292  0.0784  0.0205  0.2429
18314TIP3    H176357   1.137   0.316   0.310  0.0846  0.2021  0.6834
18314TIP3    H276358   1.056   0.379   0.198 -0.1082 -1.2637 -0.0076
18315TIP3   OH276359   5.493   4.195   1.822  0.0220  0.1817 -0.0788
18315TIP3    H176360   5.549   4.126   1.857  1.1899  0.0918 -2.0669
18315TIP3    H276361   5.500   4.267   1.884 -0.1540 -0.9860  1.3126
18316TIP3   OH276362   3.044   1.233  12.170  0.0745  0.1245 -0.2105
18316TIP3    H176363   2.975   1.221  12.236 -0.0515  0.5319 -0.2619
18316TIP3    H276364   3.034   1.158  12.111  1.0133 -0.9219  0.9513
18317TIP3   OH276365   0.569   2.175  13.648  0.1646  0.3047  0.3222
18317TIP3    H176366   0.498   2.111  13.645 -1.3972  2.0081 -0.2075
18317TIP3    H276367   0.608   2.163  13.735 -1.7512  0.3284  1.2208
18318TIP3   OH276368   2.518   4.931   4.119  0.3768  0.4771  0.0306
18318TIP3    H176369   2.604   4.961   4.090  1.0813  0.0505  1.6493
18318TIP3    H276370   2.512   4.842   4.086  0.3669  0.6557 -0.4585
18319TIP3   OH276371   4.853   3.838   5.765 -0.2539 -0.0608  0.0880
18319TIP3    H176372   4.901   3.867   5.843  0.6434 -0.6197 -0.2629
18319TIP3    H276373   4.778   3.790   5.801 -0.9105  1.3188  0.6462
18320TIP3   OH276374   1.064   4.421  14.362 -0.0256  0.2469 -0.0723
18320TIP3    H176375   1.006   4.455  14.294 -0.7829  0.3380  0.6224
18320TIP3    H276376   1.007   4.372  14.421  1.2364 -3.6899 -1.9063
18321TIP3   OH276377   2.174   5.077  11.765 -0.1457 -0.2539 -0.1730
18321TIP3    H176378   2.090   5.052  11.803  1.0763 -2.0989  1.3920
18321TIP3    H276379   2.151   5.139  11.696 -2.6382  0.7464  1.4814
18322TIP3   OH276380   5.592   2.760   4.998  0.1931  0.1488  0.0250
18322TIP3    H176381   5.631   2.843   4.971 -0.7203  0.7749  0.5689
18322TIP3    H276382   5.626   2.696   4.937  2.0009  0.6849  0.4281
18323TIP3   OH276383   0.260   0.801  13.959 -0.0180  0.6394 -0.4863
18323TIP3    H176384   0.228   0.728  13.906  1.1212 -1.0046  1.0597
18323TIP3    H276385   0.187   0.821  14.018 -0.2511  0.6121 -0.7629
18324TIP3   OH276386   6.037   6.693   5.468  0.4156  0.2186 -0.0483
18324TIP3    H176387   5.952   6.650   5.467  0.7126 -0.4152  0.9932
18324TIP3    H276388   6.043   6.737   5.383 -0.1964 -1.2012 -0.8528
18325TIP3   OH276389   2.227   3.951   2.045 -0.1542 -0.5131 -0.1384
18325TIP3    H176390   2.262   3.989   2.126 -1.9763 -2.0763  1.4128
18325TIP3    H276391   2.157   3.892   2.074 -1.4406 -0.4196 -2.9102
18326TIP3   OH276392   3.128   0.038   3.985 -0.4870 -0.3413 -0.2484
18326TIP3    H176393   3.066   0.108   3.963  1.5466  1.2581 -1.0650
18326TIP3    H276394   3.075  -0.041   3.986 -2.3449  0.8120 -2.1093
18327TIP3   OH276395   1.318   0.106  14.080  0.4068 -0.5260  0.3274
18327TIP3    H176396   1.267   0.171  14.032 -1.4199 -2.0374  0.1414
18327TIP3    H276397   1.320   0.030  14.022  2.2295 -0.7801  0.6761
18328TIP3   OH276398   3.202   1.644   6.498 -0.4603  0.0142 -0.6531
18328TIP3    H176399   3.279   1.692   6.527 -0.6697  0.7527 -1.3258
18328TIP3    H276400   3.128   1.700   6.522 -0.9025 -1.4026  1.4462
18329TIP3   OH276401   5.623   1.768  14.105  0.1609  0.0087 -0.5122
18329TIP3    H176402   5.534   1.736  14.119  0.6453 -1.6402 -0.9727
18329TIP3    H276403   5.629   1.780  14.010  0.1548  0.9476 -0.3901
18330TIP3   OH276404   3.262   2.895   1.720  0.2074  0.0937  0.7097
18330TIP3    H176405   3.300   2.969   1.673 -1.8600  0.0258 -1.1461
18330TIP3    H276406   3.186   2.932   1.765 -3.3625 -1.4987 -3.5424
18331TIP3   OH276407   5.212   2.782  12.052 -0.0872  0.3245 -0.2440
18331TIP3    H176408   5.263   2.818  11.980 -0.4292  0.6506 -0.3225
18331TIP3    H276409   5.239   2.690  12.057 -1.9545 -0.3988 -2.4826
18332TIP3   OH276410   4.749   6.267   0.795  1.0908  0.4800 -0.3516
18332TIP3    H176411   4.741   6.343   0.853  0.5279  0.4206 -0.3446
18332TIP3    H276412   4.700   6.293   0.716 -1.5568 -0.9671  0.7678
18333TIP3   OH276413   5.520   6.650   1.514  0.6279 -0.2658  0.2836
18333TIP3    H176414   5.531   6.745   1.517  0.8724 -0.2231 -1.4303
18333TIP3    H276415   5.604   6.614   1.540  1.1042  0.0087 -0.8478
18334TIP3   OH276416   1.081   4.559   4.058  0.2195 -0.2576 -0.0372
18334TIP3    H176417   1.055   4.467   4.056  0.8041 -0.4127 -1.2199
18334TIP3    H276418   1.175   4.557   4.080  0.0307  0.1039  0.8108
18335TIP3   OH276419   4.754   3.853  13.389 -0.1447  0.0997  0.3027
18335TIP3    H176420   4.792   3.784  13.444  0.1759  0.0055 -0.0311
18335TIP3    H276421   4.764   3.820  13.299 -1.1173  0.0302  0.2214
18336TIP3   OH276422   1.990   4.963   5.848 -0.1996  0.3526 -0.2939
18336TIP3    H176423   2.057   4.894   5.851  0.0864  0.6752  1.0049
18336TIP3    H276424   2.006   5.009   5.765  0.6870 -0.0612 -0.3542
18337TIP3   OH276425   3.041   1.268   4.277  0.3700 -0.2188 -0.3480
18337TIP3    H176426   2.955   1.231   4.256  0.2164 -0.5800  0.8644
18337TIP3    H276427   3.097   1.192   4.293  0.5905  0.0270  0.0872
18338TIP3   OH276428   0.633   1.809  16.340 -1.0065  0.0338 -0.3388
18338TIP3    H176429   0.595   1.772  16.420 -1.9716  2.5407  0.3772
18338TIP3    H276430   0.558   1.838  16.288 -0.2788  0.7086 -1.0349
18339TIP3   OH276431   2.131   4.521   1.233  0.4779  0.0181 -0.0039
18339TIP3    H176432   2.073   4.450   1.261  1.7028 -0.8180  0.4442
18339TIP3    H276433   2.149   4.569   1.314  2.3889 -1.2017  0.3396
18340TIP3   OH276434   0.786   5.108  16.930 -0.2178 -0.0791 -0.7124
18340TIP3    H176435   0.729   5.044  16.888 -1.0415 -0.2689  0.6936
18340TIP3    H276436   0.874   5.072  16.917 -0.3568  0.3255 -3.0668
18341TIP3   OH276437   3.953   4.880   3.766  0.0612  0.1870  0.2646
18341TIP3    H176438   3.921   4.950   3.709 -2.7101 -0.3659  1.0942
18341TIP3    H276439   3.983   4.812   3.705  0.0291  0.8733 -0.5279
18342TIP3   OH276440   4.925   5.995  12.480  0.2384 -0.0639  0.3188
18342TIP3    H176441   5.012   5.984  12.442 -1.2341 -1.1307 -2.8796
18342TIP3    H276442   4.907   5.912  12.524  0.8608  0.2068  1.0982
18343TIP3   OH276443   4.339   3.054   2.210  0.6794 -0.3860  0.0983
18343TIP3    H176444   4.374   2.985   2.154  1.0984 -0.1943  0.1218
18343TIP3    H276445   4.273   3.098   2.156  0.5178 -0.7035  0.0328
18344TIP3   OH276446   1.734   5.304   0.645 -0.2598 -0.0621 -0.0475
18344TIP3    H176447   1.770   5.241   0.708 -0.9250 -1.3147 -0.8998
18344TIP3    H276448   1.668   5.255   0.596 -0.0709  1.0115 -1.4269
18345TIP3   OH276449   4.943   5.842  10.725 -0.2262 -0.3477  0.3191
18345TIP3    H176450   4.907   5.753  10.724 -0.9751 -0.0535  0.3544
18345TIP3    H276451   4.932   5.871  10.816 -1.7557  0.4770 -0.1139
18346TIP3   OH276452   5.871   4.729   1.396 -0.0823 -0.1746  0.4409
18346TIP3    H176453   5.834   4.801   1.447 -0.8330 -0.7952  0.7852
18346TIP3    H276454   5.823   4.652   1.425 -0.3966 -0.5754 -1.0728
18347TIP3   OH276455   2.152   2.266  13.108 -0.0385  0.3550  0.3302
18347TIP3    H176456   2.193   2.293  13.190 -0.5436 -0.8941  0.9997
18347TIP3    H276457   2.134   2.348  13.062  0.3208  1.0525  1.4214
18348TIP3   OH276458   6.674   2.527   1.497 -0.1676 -0.3509  0.1356
18348TIP3    H176459   6.729   2.578   1.437 -0.9582  2.2489  1.5288
18348TIP3    H276460   6.721   2.531   1.581 -1.0914 -0.4863  0.6639
18349TIP3   OH276461   5.571   2.932   4.071  0.1262  0.7675  0.5094
18349TIP3    H176462   5.550   2.851   4.025  1.9016 -0.0785  1.1251
18349TIP3    H276463   5.494   2.950   4.125 -0.5667 -0.1238 -0.1705
18350TIP3   OH276464   5.060   0.963  17.104 -0.4498  0.6503  0.3535
18350TIP3    H176465   4.997   0.906  17.149 -0.4524  1.1029  0.9304
18350TIP3    H276466   5.014   1.047  17.096 -0.1737  0.7821  0.1610
18351TIP3   OH276467   3.083   6.734   2.596  0.0657  0.3907 -0.3607
18351TIP3    H176468   3.090   6.640   2.611 -1.4680  0.6093  1.9352
18351TIP3    H276469   3.119   6.747   2.508 -0.0805 -2.3739 -0.8737
18352TIP3   OH276470   1.829   1.321  13.315 -0.3972  0.2245  0.3330
18352TIP3    H176471   1.750   1.266  13.312  0.5407 -1.1873  0.9191
18352TIP3    H276472   1.896   1.269  13.271  0.3286  1.2149  0.2492
18353TIP3   OH276473   6.774   0.208  14.743  0.4293  0.4207 -0.3984
18353TIP3    H176474   6.760   0.113  14.737 -1.1128  0.6382 -0.4368
18353TIP3    H276475   6.695   0.246  14.706  0.9486  1.7375 -0.1753
18354TIP3   OH276476   2.867   5.250   2.757 -0.4268  0.7824 -0.1309
18354TIP3    H176477   2.882   5.210   2.843 -2.0674  0.4243  0.0081
18354TIP3    H276478   2.772   5.249   2.747 -0.2979  1.7808 -1.5069
18355TIP3   OH276479   6.588   3.154  13.479 -0.2413 -0.1983 -0.1503
18355TIP3    H176480   6.674   3.194  13.471 -0.8366  0.8699 -1.5913
18355TIP3    H276481   6.557   3.179  13.566  0.9485 -0.7019  0.4160
18356TIP3   OH276482   2.721   6.173  11.532 -0.0929  0.1981 -0.5049
18356TIP3    H176483   2.646   6.190  11.475  1.1186 -1.0638 -2.5542
18356TIP3    H276484   2.726   6.078  11.538  1.5161  0.2525 -0.6800
18357TIP3   OH276485   1.018   4.125  11.864  0.4892  0.0862  0.0621
18357TIP3    H176486   1.076   4.183  11.914  1.9596  0.0949 -1.5892
18357TIP3    H276487   0.951   4.184  11.830  1.4407  0.6934 -0.8152
18358TIP3   OH276488   4.106   0.527   5.297  0.2609 -0.3609 -0.0867
18358TIP3    H176489   4.115   0.622   5.305  1.9334 -0.4942 -0.3752
18358TIP3    H276490   4.194   0.493   5.312 -0.2955 -1.8581 -0.1823
18359TIP3   OH276491   5.405   2.081   3.314 -0.0630  0.3427 -0.0747
18359TIP3    H176492   5.433   2.015   3.377  0.3797  0.4805 -0.1234
18359TIP3    H276493   5.415   2.164   3.360 -0.0007  0.4238 -0.2334
18360TIP3   OH276494   6.569   3.373  17.111 -0.1299 -0.1699 -0.5963
18360TIP3    H176495   6.648   3.340  17.153 -0.1432  0.9231  0.2894
18360TIP3    H276496   6.501   3.309  17.132  0.0513 -0.0489  0.3556
18361TIP3   OH276497   0.505   6.566  10.876  0.2132 -0.1937  0.2563
18361TIP3    H176498   0.420   6.610  10.877  0.2995 -0.0193  0.0493
18361TIP3    H276499   0.531   6.567  10.784  0.7341  0.3252  0.4002
18362TIP3   OH276500   0.346   3.651  10.428 -0.4333  0.1939 -0.1389
18362TIP3    H176501   0.422   3.612  10.386 -1.0136  0.6016 -1.5885
18362TIP3    H276502   0.344   3.612  10.516  0.6670 -0.8155 -0.5601
18363TIP3   OH276503   4.925   4.783   1.480 -0.4239 -0.8251  0.1829
18363TIP3    H176504   4.888   4.784   1.568  0.4158 -0.6697  0.5471
18363TIP3    H276505   4.947   4.691   1.465  0.5604 -0.6746  0.6347
18364TIP3   OH276506   0.078   5.166   0.039 -0.4664 -0.3577  0.1272
18364TIP3    H176507   0.094   5.221  -0.038 -0.4877 -0.2948  0.1690
18364TIP3    H276508   0.148   5.102   0.037  0.7749  0.9438  1.2370
18365TIP3   OH276509   2.871   5.490  11.638  0.6098  0.2477  0.4069
18365TIP3    H176510   2.873   5.420  11.704  1.2685 -2.3557 -2.2408
18365TIP3    H276511   2.962   5.518  11.630  0.7855 -0.5008 -0.4011
18366TIP3   OH276512   0.393   0.418   0.301 -0.0060 -0.0295 -0.1402
18366TIP3    H176513   0.323   0.451   0.245  0.3272 -0.5642 -0.8644
18366TIP3    H276514   0.419   0.335   0.262  0.1065 -0.4951  0.9030
18367TIP3   OH276515   4.796   2.852  17.128 -0.1448  0.2982 -0.0812
18367TIP3    H176516   4.783   2.937  17.084 -0.8652  0.2974  0.1214
18367TIP3    H276517   4.796   2.788  17.057  2.2152  0.6339 -0.4144
18368TIP3   OH276518   6.708   0.334   0.759  0.2688  0.1275  0.0629
18368TIP3    H176519   6.767   0.397   0.718  0.2999  0.4773  0.6380
18368TIP3    H276520   6.765   0.262   0.786  0.3808  0.3170  0.3255
18369TIP3   OH276521   2.901   0.378  13.938 -0.0109 -0.1468 -0.0970
18369TIP3    H176522   2.863   0.400  13.853 -1.3299  1.2066  0.8107
18369TIP3    H276523   2.949   0.297  13.923  0.4521  0.5038 -2.3144
18370TIP3   OH276524   0.004   3.840  14.145 -0.1927  0.2027 -0.0764
18370TIP3    H176525   0.042   3.811  14.062  0.3693  0.1011  0.2133
18370TIP3    H276526  -0.086   3.863  14.124  0.1802  0.9412 -0.8803
18371TIP3   OH276527   5.469   4.629   4.992  0.0035 -0.1060  0.3246
18371TIP3    H176528   5.375   4.641   4.982  0.1006  0.1632 -0.3090
18371TIP3    H276529   5.503   4.718   5.005  0.2884 -0.0828 -0.5359
18372TIP3   OH276530   3.070   4.383  15.621 -0.6809  0.1131 -0.0356
18372TIP3    H176531   3.002   4.343  15.675  1.6840 -2.0954  1.4120
18372TIP3    H276532   3.107   4.452  15.675 -0.6438  0.2107 -0.1835
18373TIP3   OH276533   2.851   4.944   4.756  0.4885 -0.2192  0.2822
18373TIP3    H176534   2.941   4.913   4.749  0.5852  0.0869  0.1832
18373TIP3    H276535   2.821   4.953   4.666  0.9032  1.2721  0.2910
18374TIP3   OH276536   0.346   1.569   3.949 -0.4755  0.1805 -0.3362
18374TIP3    H176537   0.290   1.608   3.882 -0.8969 -1.1463 -0.7804
18374TIP3    H276538   0.288   1.507   3.995  0.3949 -0.5881 -0.2517
18375TIP3   OH276539   4.614   6.541  14.298  0.0609  1.0496 -0.0420
18375TIP3    H176540   4.641   6.507  14.383 -0.0923  2.3287  0.5269
18375TIP3    H276541   4.671   6.496  14.235  0.3836  0.3311  0.7550
18376TIP3   OH276542   3.326   6.325  15.563 -0.5341 -0.0480 -0.3533
18376TIP3    H176543   3.376   6.245  15.547 -0.1060  0.0320  0.5248
18376TIP3    H276544   3.252   6.297  15.617  1.0127  0.5177  2.1744
18377TIP3   OH276545   3.283   3.023   3.131  0.0119 -0.7371 -0.2276
18377TIP3    H176546   3.327   3.105   3.153 -2.5726  0.0470  2.2723
18377TIP3    H276547   3.326   2.957   3.186 -0.8873 -0.2424  1.0870
18378TIP3   OH276548   3.670   2.022   5.252  0.6278 -0.7601  0.0673
18378TIP3    H176549   3.581   2.045   5.278  1.3374  1.2403  0.8423
18378TIP3    H276550   3.689   1.942   5.300 -0.9537 -1.5463 -0.5726
18379TIP3   OH276551   5.240   0.931  14.958  0.4822 -0.1609  0.3217
18379TIP3    H176552   5.198   0.850  14.928 -0.4652  0.2358  0.5890
18379TIP3    H276553   5.168   0.990  14.979  1.1714  0.7071  0.2806
18380TIP3   OH276554   2.586   4.618   1.440 -0.0286  0.5263 -0.2261
18380TIP3    H176555   2.665   4.649   1.396  0.6871 -2.2350 -1.0295
18380TIP3    H276556   2.521   4.610   1.369 -0.9090  2.3131  0.3488
18381TIP3   OH276557   2.954   5.626   5.367 -0.2435 -0.7482  0.0543
18381TIP3    H176558   2.998   5.652   5.285  0.1697  1.1029  0.8330
18381TIP3    H276559   2.992   5.542   5.389 -0.7442 -1.5396 -1.9401
18382TIP3   OH276560   5.225   6.613  10.371 -0.0229  0.3478 -0.0097
18382TIP3    H176561   5.264   6.534  10.408  0.3044  0.1622 -0.7538
18382TIP3    H276562   5.293   6.650  10.316 -0.4529  0.7197 -0.2959
18383TIP3   OH276563   2.031   4.559  17.021  0.8315  0.0406 -0.2166
18383TIP3    H176564   2.112   4.537  16.974 -0.7852 -2.7262 -1.8148
18383TIP3    H276565   1.977   4.605  16.956 -0.0597 -0.7602 -0.0452
18384TIP3   OH276566   2.656   6.200   3.951 -1.4651  0.3596 -0.5341
18384TIP3    H176567   2.676   6.108   3.967 -1.9145  0.4011  0.2699
18384TIP3    H276568   2.722   6.228   3.888 -1.3862 -0.5397 -0.8630
18385TIP3   OH276569   3.698   1.850  16.151  0.0045  0.4311  0.5189
18385TIP3    H176570   3.715   1.928  16.204  0.7502  0.7958 -0.2519
18385TIP3    H276571   3.784   1.816  16.130 -0.3129 -0.3397  0.4453
18386TIP3   OH276572   4.349   3.603   5.195 -0.4434  0.8449  0.6221
18386TIP3    H176573   4.425   3.547   5.203  0.0541  1.8253  3.3424
18386TIP3    H276574   4.276   3.550   5.229 -0.5867  0.6562  0.0204
18387TIP3   OH276575   2.702   4.700  12.291  0.2105  0.4004 -0.4311
18387TIP3    H176576   2.714   4.795  12.292  0.0567  0.4257 -0.8704
18387TIP3    H276577   2.641   4.685  12.219 -0.6560  0.0701  0.3687
18388TIP3   OH276578   3.643   0.606   2.768  0.6089 -0.0434  0.2568
18388TIP3    H176579   3.559   0.652   2.766  0.2259 -0.7509 -0.2604
18388TIP3    H276580   3.706   0.668   2.731  0.0852  0.0400 -0.4885
18389TIP3   OH276581   5.715   6.309  12.087 -0.0607 -1.1072  0.0285
18389TIP3    H176582   5.697   6.342  12.175 -0.6842  1.0707 -0.8941
18389TIP3    H276583   5.811   6.304  12.083  0.0787  0.9461  0.1028
18390TIP3   OH276584   0.324   3.410   4.549 -0.7322  0.0422  0.8595
18390TIP3    H176585   0.340   3.437   4.458 -1.3702 -0.8270  0.4785
18390TIP3    H276586   0.406   3.431   4.595  0.7654 -2.3288 -0.5918
18391TIP3   OH276587   3.135   0.481  14.063  0.3725 -0.0327  0.4801
18391TIP3    H176588   3.058   0.462  14.010  1.2903 -3.4544  0.2780
18391TIP3    H276589   3.101   0.490  14.152 -0.3508 -0.9891  0.3139
18392TIP3   OH276590   2.645   6.653   1.683 -0.5995  0.8719 -0.3307
18392TIP3    H176591   2.682   6.575   1.724  1.0621  0.9875 -1.5750
18392TIP3    H276592   2.688   6.726   1.728 -0.4662  1.0328 -0.7172
18393TIP3   OH276593   2.093   0.223   5.038  0.0796  0.7236 -0.3586
18393TIP3    H176594   2.046   0.139   5.035  1.3650 -0.1202  2.1697
18393TIP3    H276595   2.176   0.205   4.996  0.0808  0.9051 -0.4310
18394TIP3   OH276596   4.954   6.552  13.291 -0.2150 -0.0329  0.2317
18394TIP3    H176597   4.980   6.619  13.228  0.5108  1.0088  1.6225
18394TIP3    H276598   5.009   6.476  13.270  1.2425  0.8879  0.7149
18395TIP3   OH276599   2.544   5.689  13.915  0.0648  0.8933  0.0264
18395TIP3    H176600   2.615   5.675  13.977 -1.0651  0.7241  1.3040
18395TIP3    H276601   2.477   5.625  13.939 -0.2513  0.6087 -1.5767
18396TIP3   OH276602   4.590   1.407   3.873  0.3326  0.6529  0.3806
18396TIP3    H176603   4.593   1.502   3.880 -0.1149  0.6230  1.0246
18396TIP3    H276604   4.581   1.390   3.779 -3.0010  1.3560  0.5053
18397TIP3   OH276605   5.353   2.674  14.869 -0.3744 -0.0160  0.1120
18397TIP3    H176606   5.342   2.755  14.917  0.3757 -0.8922  1.7982
18397TIP3    H276607   5.372   2.702  14.779  0.8474  1.6824  0.8756
18398TIP3   OH276608   5.600   0.740   2.075 -0.6876 -0.0964  0.1672
18398TIP3    H176609   5.541   0.758   2.002 -0.5782 -0.3377  0.0177
18398TIP3    H276610   5.593   0.645   2.090 -1.3381  0.0789  1.0151
18399TIP3   OH276611   4.399   0.632   4.081  0.6511  0.6936 -0.3439
18399TIP3    H176612   4.367   0.717   4.051 -3.9580 -0.1316  1.8198
18399TIP3    H276613   4.431   0.649   4.170 -0.5228  0.1182  0.1890
18400TIP3   OH276614   5.387   0.660  16.419  0.8098  0.4873 -0.1078
18400TIP3    H176615   5.401   0.750  16.391  0.4036  0.6469  0.2054
18400TIP3    H276616   5.309   0.664  16.475 -0.4726 -0.3626 -1.7586
18401TIP3   OH276617   6.219   3.028  12.707  0.3848  0.4239  0.0208
18401TIP3    H176618   6.170   3.024  12.789 -1.5933  0.2392 -1.1372
18401TIP3    H276619   6.288   2.963  12.717  0.1587  0.4007  1.5331
18402TIP3   OH276620   4.275   6.185  12.819 -0.1025 -0.3508 -0.0121
18402TIP3    H176621   4.339   6.255  12.829 -0.2963  0.2532 -2.5849
18402TIP3    H276622   4.191   6.226  12.840 -0.3178  0.4737 -2.2916
18403TIP3   OH276623   2.447   2.880   1.713  0.0495 -0.4431  0.2460
18403TIP3    H176624   2.402   2.846   1.636 -0.2396 -0.2493  0.3262
18403TIP3    H276625   2.467   2.971   1.691 -0.6037 -0.2001  0.6455
18404TIP3   OH276626   5.849   0.471   3.978 -0.6433 -0.5761 -0.5703
18404TIP3    H176627   5.781   0.514   4.030 -0.3291  0.1358 -0.7463
18404TIP3    H276628   5.913   0.442   4.043 -0.2774  0.2669 -0.5510
18405TIP3   OH276629   3.385   1.734  15.603 -0.6331  0.1406 -0.3120
18405TIP3    H176630   3.378   1.681  15.523  1.0303 -1.1170  0.3375
18405TIP3    H276631   3.334   1.685  15.668  0.1934 -0.2362  0.0630
18406TIP3   OH276632   2.079   6.285  15.495 -0.1599 -0.1862  0.2562
18406TIP3    H176633   2.145   6.312  15.559  0.4424 -2.3438  0.6004
18406TIP3    H276634   2.016   6.234  15.546 -0.4916 -0.6369 -0.5942
18407TIP3   OH276635   0.094   5.915  17.091  0.0939 -0.0066  0.4938
18407TIP3    H176636   0.033   5.909  17.165 -0.2305  0.1573  0.2403
18407TIP3    H276637   0.050   5.869  17.019 -0.4322  1.4398 -0.1383
18408TIP3   OH276638   6.475   6.249   0.551 -0.5741  0.2574 -0.1535
18408TIP3    H176639   6.555   6.240   0.497 -1.1754 -1.2349 -0.8196
18408TIP3    H276640   6.497   6.205   0.633 -0.4522  0.5362 -0.0339
18409TIP3   OH276641   2.781   1.451   1.501 -0.5467  0.1725 -0.7157
18409TIP3    H176642   2.831   1.438   1.581 -2.9803 -0.1121  0.7887
18409TIP3    H276643   2.835   1.511   1.449  0.4405  1.3991  1.6568
18410TIP3   OH276644   4.552   5.893  17.222  0.2357  0.6960  0.4227
18410TIP3    H176645   4.516   5.923  17.139 -2.0135 -1.7501  0.4683
18410TIP3    H276646   4.503   5.940  17.288  0.7348  1.2343  0.4189
18411TIP3   OH276647   5.875   3.933  15.665 -0.8080 -0.4562  0.0349
18411TIP3    H176648   5.889   4.012  15.716 -1.6100  0.5272 -1.2300
18411TIP3    H276649   5.800   3.890  15.706 -2.7762  1.3971 -1.5330
18412TIP3   OH276650   6.313   4.552   1.893  0.7077 -0.6267  0.4413
18412TIP3    H176651   6.223   4.578   1.872  0.5027 -0.4649  1.5132
18412TIP3    H276652   6.311   4.456   1.891  1.9790 -0.7394 -5.7372
18413TIP3   OH276653   5.026   3.822   2.063  0.3409  0.0421 -0.1549
18413TIP3    H176654   5.081   3.758   2.109 -0.0465  0.3213  0.7140
18413TIP3    H276655   5.088   3.887   2.029  0.7487 -0.8838 -1.1848
18414TIP3   OH276656   3.356   1.364  11.958  0.1647 -0.0470  0.5207
18414TIP3    H176657   3.384   1.314  12.034  1.5855  0.1679  0.1525
18414TIP3    H276658   3.267   1.393  11.980 -0.2776 -1.8167  1.1708
18415TIP3   OH276659   4.630   5.793  10.946  0.1891 -0.7385 -0.0957
18415TIP3    H176660   4.596   5.747  11.022 -1.9678  0.7979 -0.0653
18415TIP3    H276661   4.664   5.876  10.981  0.4116 -0.6049 -0.6172
18416TIP3   OH276662   3.009   3.729   5.308 -0.5332  0.2376  0.0093
18416TIP3    H176663   3.103   3.714   5.307 -0.5148  0.3162  0.3587
18416TIP3    H276664   2.998   3.807   5.363 -0.8832 -0.3952  0.8662
18417TIP3   OH276665   6.480   0.999   5.834  0.3239 -0.0935  0.1805
18417TIP3    H176666   6.537   0.957   5.770  1.4230  1.4620  0.1169
18417TIP3    H276667   6.496   0.951   5.915 -0.0794 -1.2095 -0.3975
18418TIP3   OH276668   4.815   3.689   2.940 -0.0056  0.0767 -0.1608
18418TIP3    H176669   4.892   3.659   2.892 -0.7295 -0.5081 -0.9896
18418TIP3    H276670   4.770   3.608   2.966 -0.7592  0.4115 -0.3998
18419TIP3   OH276671   3.161   2.672   2.290 -0.2564  0.2323 -0.0005
18419TIP3    H176672   3.157   2.678   2.386  0.4304 -0.5418  0.0723
18419TIP3    H276673   3.250   2.644   2.271 -0.4686  0.1364 -0.8605
18420TIP3   OH276674   5.123   6.688   2.367  0.3178  0.1428  0.0723
18420TIP3    H176675   5.088   6.703   2.279  1.3953 -0.4476 -0.4553
18420TIP3    H276676   5.078   6.609   2.397  1.0554 -0.5027 -0.5273
18421TIP3   OH276677   1.009   1.879  16.689 -0.4950 -0.4807 -0.6130
18421TIP3    H176678   1.022   1.847  16.778 -1.7215  0.1570 -0.1867
18421TIP3    H276679   1.045   1.810  16.633  2.4761  0.1665  0.4030
18422TIP3   OH276680   1.184   3.329  11.290 -0.3037  0.0978 -0.2923
18422TIP3    H176681   1.236   3.383  11.230  1.7883  0.3371  1.6583
18422TIP3    H276682   1.166   3.386  11.365  0.4172 -1.3336  1.0078
18423TIP3   OH276683   6.027   4.385   4.238 -0.7114  0.0552 -0.2656
18423TIP3    H176684   5.951   4.343   4.277 -0.5284 -1.3027 -1.3149
18423TIP3    H276685   6.100   4.362   4.296 -0.6762 -0.8031 -0.6330
18424TIP3   OH276686   2.600   4.967  15.940  0.1073  0.8983  0.3024
18424TIP3    H176687   2.644   4.980  16.024  0.2395 -0.6149  0.4824
18424TIP3    H276688   2.551   4.886  15.951  1.2925 -0.1029 -1.5528
18425TIP3   OH276689   1.020   3.659   4.072  0.5705 -0.0765  0.0254
18425TIP3    H176690   0.930   3.683   4.094  0.5198  0.0327 -0.3011
18425TIP3    H276691   1.073   3.722   4.121  0.4228  1.0693 -1.2557
18426TIP3   OH276692   6.757   2.047   4.536  0.1358  0.3459  0.1316
18426TIP3    H176693   6.686   2.030   4.473  0.9761  0.0206 -0.7336
18426TIP3    H276694   6.713   2.090   4.610 -1.0241 -0.1546 -0.2443
18427TIP3   OH276695   5.385   6.400  14.278 -0.4032  0.5034 -0.0897
18427TIP3    H176696   5.347   6.353  14.352  0.9909 -1.4521 -0.5829
18427TIP3    H276697   5.358   6.491  14.291 -1.0519  0.0075  2.2380
18428TIP3   OH276698   4.511   4.655  16.472  0.1288  0.1415  0.4223
18428TIP3    H176699   4.491   4.743  16.441 -0.3335 -0.2357 -0.3591
18428TIP3    H276700   4.426   4.612  16.480  0.3308 -0.1374  1.1070
18429TIP3   OH276701   6.703   2.730   6.145  0.3895  0.4991  0.1698
18429TIP3    H176702   6.791   2.713   6.179 -0.0072 -0.4430  0.7384
18429TIP3    H276703   6.646   2.675   6.198 -0.6980  2.0704  0.6798
18430TIP3   OH276704   6.247   2.896   1.106 -0.0815  0.5708 -0.2891
18430TIP3    H176705   6.216   2.852   1.026  1.4658 -1.9201  0.4345
18430TIP3    H276706   6.215   2.841   1.177  0.3092  1.6680  0.7376
18431TIP3   OH276707   6.778   6.399  12.786  0.2650  0.1649  0.1774
18431TIP3    H176708   6.729   6.479  12.770  1.6974  0.9993 -0.1647
18431TIP3    H276709   6.817   6.412  12.873 -0.2330 -0.5479  0.5104
18432TIP3   OH276710   0.466   3.677  13.536  0.1895 -0.4724 -0.1031
18432TIP3    H176711   0.501   3.589  13.549  3.3265  0.6949 -0.1577
18432TIP3    H276712   0.485   3.723  13.618  0.7576  0.7989 -0.9244
18433TIP3   OH276713   0.013   1.950   4.128 -0.1964  0.0327 -0.1277
18433TIP3    H176714   0.047   2.017   4.188 -2.0645 -1.3938  2.6260
18433TIP3    H276715   0.063   1.872   4.149  0.1650 -0.0990 -1.4881
18434TIP3   OH276716   0.706   2.269  11.887  0.0261  0.1839 -0.0541
18434TIP3    H176717   0.694   2.327  11.812 -1.3559 -1.0696 -0.8374
18434TIP3    H276718   0.801   2.269  11.903  0.1376  1.8102 -0.6985
18435TIP3   OH276719   4.090   2.844  11.987  0.6636  0.5324 -0.6339
18435TIP3    H176720   4.010   2.896  11.997 -1.3677 -2.7019  0.5354
18435TIP3    H276721   4.110   2.849  11.893  0.0253  2.6304 -0.6931
18436TIP3   OH276722   5.932   4.183  12.759  0.0100  0.6732  0.3653
18436TIP3    H176723   5.937   4.260  12.816  0.3052  1.1465 -0.2823
18436TIP3    H276724   5.838   4.166  12.751 -0.0433  0.7705  0.7721
18437TIP3   OH276725   0.098   3.206  15.466 -0.3096 -0.3006 -0.3690
18437TIP3    H176726   0.110   3.111  15.462  0.3132 -0.3000  1.2938
18437TIP3    H276727   0.055   3.222  15.550 -0.4977  0.8821 -0.6809
18438TIP3   OH276728   5.653   4.341  10.926 -0.0707 -0.1219 -0.8242
18438TIP3    H176729   5.716   4.360  10.856  2.0551 -1.0903  0.7812
18438TIP3    H276730   5.626   4.251  10.909  0.1184 -0.2135 -0.6339
18439TIP3   OH276731   4.090   4.404  15.735 -0.5177  0.1565  0.2634
18439TIP3    H176732   4.095   4.368  15.824 -0.2494  0.5151  0.3963
18439TIP3    H276733   4.070   4.497  15.748 -0.5084  0.2035 -0.0540
18440TIP3   OH276734   3.100   1.024  16.647 -0.7712  0.9531  0.0833
18440TIP3    H176735   3.022   1.052  16.695  0.8844  0.4066  3.2240
18440TIP3    H276736   3.157   1.100  16.648 -0.4062  0.6874 -0.4039
18441TIP3   OH276737   2.414   4.856  14.884 -0.2372 -0.3571  0.1207
18441TIP3    H176738   2.361   4.832  14.809  0.5443  0.3619 -0.6833
18441TIP3    H276739   2.353   4.894  14.947 -0.7797 -0.2438 -0.4787
18442TIP3   OH276740   2.438   2.548   2.911  0.4438  0.2055  0.2437
18442TIP3    H176741   2.496   2.475   2.935 -0.1351  0.4450  2.5361
18442TIP3    H276742   2.357   2.530   2.958 -0.8860  0.5949 -1.8698
18443TIP3   OH276743   3.057   2.854  13.380 -0.6052  0.3297  0.0195
18443TIP3    H176744   3.023   2.838  13.468 -0.2755 -1.2769 -0.1291
18443TIP3    H276745   3.152   2.851  13.389 -0.5857 -2.5145 -0.8358
18444TIP3   OH276746   5.728   4.679   0.155 -0.0211 -0.1714 -0.0292
18444TIP3    H176747   5.767   4.758   0.118  0.3019 -0.8561 -1.1819
18444TIP3    H276748   5.803   4.629   0.190  0.0102 -0.8849 -1.0901
18445TIP3   OH276749   0.532   5.448   3.632  0.2661  0.5850 -0.6427
18445TIP3    H176750   0.622   5.418   3.649  0.0673 -0.5206 -1.4728
18445TIP3    H276751   0.491   5.374   3.587 -2.0286 -0.1910  2.5189
18446TIP3   OH276752   1.400   2.740  13.590  0.1038 -0.2615 -0.4166
18446TIP3    H176753   1.351   2.694  13.658  1.6065 -0.4133  0.5876
18446TIP3    H276754   1.491   2.739  13.621  0.6884  0.3452 -2.0552
18447TIP3   OH276755   2.539   6.559  13.808 -0.8999 -0.3659  0.6011
18447TIP3    H176756   2.603   6.491  13.787 -1.7889 -1.3222  0.9673
18447TIP3    H276757   2.553   6.579  13.900  0.3088  0.9803  0.1557
18448TIP3   OH276758   2.158   3.535  15.359 -0.2152 -0.4597 -0.2765
18448TIP3    H176759   2.154   3.579  15.444 -3.4155  2.1083 -1.6392
18448TIP3    H276760   2.124   3.447  15.376  2.3720 -1.1131  1.7134
18449TIP3   OH276761   4.130   1.473   4.733  0.1389 -0.4634 -0.5374
18449TIP3    H176762   4.089   1.440   4.813 -0.0680 -0.9140 -0.8302
18449TIP3    H276763   4.178   1.551   4.762  0.4442 -0.8883  0.1128
18450TIP3   OH276764   1.067   4.442  11.822  0.1760 -0.4055 -0.9052
18450TIP3    H176765   0.980   4.415  11.849 -0.0577 -0.8535 -2.0629
18450TIP3    H276766   1.065   4.439  11.726  1.3399 -0.0530 -0.9575
18451TIP3   OH276767   5.446   4.120   5.126  0.0591 -0.3209 -0.2289
18451TIP3    H176768   5.507   4.120   5.200 -0.4147  1.3316  0.1902
18451TIP3    H276769   5.442   4.212   5.099 -0.9829 -0.6767 -1.3049
18452TIP3   OH276770   0.603   3.897   4.791  0.4575  0.0971 -0.1688
18452TIP3    H176771   0.566   3.948   4.863  1.6127  0.0447  0.4769
18452TIP3    H276772   0.644   3.822   4.834 -3.8824 -3.1318 -1.2704
18453TIP3   OH276773   3.477   0.278  16.771 -0.3868  0.0287  0.2808
18453TIP3    H176774   3.511   0.345  16.830 -2.4283  0.9322  0.4914
18453TIP3    H276775   3.522   0.198  16.797 -1.4851  0.3212  3.3694
18454TIP3   OH276776   6.616   4.234  11.139  0.1759 -0.5598 -0.0742
18454TIP3    H176777   6.628   4.327  11.157 -0.9030 -0.4750  0.2740
18454TIP3    H276778   6.685   4.212  11.077  2.2281 -0.2051  2.0064
18455TIP3   OH276779   5.357   6.040   2.720  0.1370  0.2948 -0.6112
18455TIP3    H176780   5.349   5.985   2.798 -2.7845 -0.2440 -1.2516
18455TIP3    H276781   5.428   6.101   2.741 -1.3234  0.9083  2.9184
18456TIP3   OH276782   0.733   4.328  16.015 -0.2464  0.2662 -0.4201
18456TIP3    H176783   0.757   4.401  16.073  1.9874 -0.5769 -0.2380
18456TIP3    H276784   0.695   4.371  15.938 -0.1069  1.5791  0.2250
18457TIP3   OH276785   0.240   5.513   1.086 -0.4409  0.0119 -0.0778
18457TIP3    H176786   0.277   5.601   1.076 -1.3195  0.4785  0.6804
18457TIP3    H276787   0.312   5.454   1.062  0.7588  0.9026  1.2155
18458TIP3   OH276788   2.811   4.064  14.197  0.3062  0.0360 -0.0361
18458TIP3    H176789   2.820   4.128  14.126 -0.7522 -0.4074 -0.5840
18458TIP3    H276790   2.723   4.078  14.230  0.6294 -0.0884  0.8860
18459TIP3   OH276791   1.153   3.843   0.932 -0.4880 -0.9656 -0.3517
18459TIP3    H176792   1.121   3.858   0.844  0.1574  1.2725 -0.2276
18459TIP3    H276793   1.102   3.768   0.964 -0.8243 -1.6948 -2.5408
18460TIP3   OH276794   2.020   6.579   3.691 -0.0254 -0.4465 -0.1783
18460TIP3    H176795   2.013   6.631   3.611  2.0933 -0.3544 -0.3361
18460TIP3    H276796   1.959   6.620   3.752 -1.1180 -0.0686 -1.4943
18461TIP3   OH276797   4.911   2.930   2.485  0.3244  0.1889  0.2549
18461TIP3    H176798   4.901   2.922   2.580  0.7201  0.4952  0.3205
18461TIP3    H276799   4.980   2.868   2.463 -0.4531 -0.6028  0.0358
18462TIP3   OH276800   4.623   6.046   2.800 -0.1733  0.2497 -0.3865
18462TIP3    H176801   4.714   6.034   2.827 -0.1815 -3.7898 -1.8084
18462TIP3    H276802   4.629   6.084   2.712  0.1040  1.1853  0.0333
18463TIP3   OH276803   0.966   4.833   5.435  0.2853  0.0405 -0.1604
18463TIP3    H176804   0.944   4.852   5.344 -1.4511  2.0176  0.6107
18463TIP3    H276805   0.884   4.800   5.473  0.8867 -0.4181  0.7526
18464TIP3   OH276806   5.013   3.135  11.950  0.1728  0.1644 -0.1011
18464TIP3    H176807   4.989   3.218  11.990 -1.5550  0.0867 -0.9074
18464TIP3    H276808   5.082   3.100  12.006 -0.6009  1.1281  1.4935
18465TIP3   OH276809   4.685   4.376   6.806  0.2446  0.4608 -0.5339
18465TIP3    H176810   4.712   4.403   6.718 -0.7663 -0.3041 -1.0944
18465TIP3    H276811   4.682   4.280   6.801 -0.4645  0.4509  0.1355
18466TIP3   OH276812   2.765   1.337  11.680  0.1190 -0.4490 -0.2410
18466TIP3    H176813   2.687   1.345  11.735 -0.3295  1.6470 -1.1679
18466TIP3    H276814   2.830   1.297  11.738 -0.1431  2.3501  2.0521
18467TIP3   OH276815   0.385   3.534   1.956 -0.3996  0.0982  0.2981
18467TIP3    H176816   0.304   3.483   1.963  0.9874 -2.2707 -0.4365
18467TIP3    H276817   0.419   3.513   1.869  1.1448  0.8804  0.6883
18468TIP3   OH276818   3.471   4.634  12.592 -0.1993 -0.4890  0.5035
18468TIP3    H176819   3.529   4.595  12.526 -1.4678  0.2157 -1.0543
18468TIP3    H276820   3.531   4.678  12.652  0.9548 -0.5915 -0.5319
18469TIP3   OH276821   6.401   6.630  13.342  0.2460 -0.3655  0.9111
18469TIP3    H176822   6.342   6.659  13.273 -0.4510 -0.1475  1.5918
18469TIP3    H276823   6.358   6.656  13.423  2.5262  2.1672  1.3763
18470TIP3   OH276824   0.740   3.124  12.854  0.0739 -0.0623 -0.0325
18470TIP3    H176825   0.665   3.067  12.837  1.8405 -2.2130 -0.8241
18470TIP3    H276826   0.727   3.199  12.796  0.2913 -2.0675 -2.7843
18471TIP3   OH276827   6.544   5.100  14.139 -0.2416 -0.6079 -0.4555
18471TIP3    H176828   6.601   5.078  14.212  0.7602  0.0404 -1.0274
18471TIP3    H276829   6.538   5.196  14.140 -3.7117 -0.7496  1.3787
18472TIP3   OH276830   2.954   2.482  14.701  0.5291  0.2250 -0.6378
18472TIP3    H176831   3.004   2.465  14.781 -0.4306  2.3280  0.4531
18472TIP3    H276832   2.972   2.406  14.645  0.6328 -1.6507  1.8472
18473TIP3   OH276833   0.779   1.008   5.450 -0.4073  0.1404 -0.3358
18473TIP3    H176834   0.851   0.966   5.402  0.1672  0.9599 -0.2003
18473TIP3    H276835   0.754   1.082   5.394  0.1841  1.0266  0.5688
18474TIP3   OH276836   3.716   5.425   3.254 -0.2734  0.0037 -0.2465
18474TIP3    H176837   3.770   5.455   3.181 -1.2263  1.0959 -0.5374
18474TIP3    H276838   3.672   5.505   3.284 -0.4281 -0.5691  1.0626
18475TIP3   OH276839   2.270   2.232  13.372  0.1766 -0.3685  0.2471
18475TIP3    H176840   2.264   2.200  13.462 -1.1639  1.2348  0.7544
18475TIP3    H276841   2.201   2.185  13.325 -1.0174  0.8600  0.7283
18476TIP3   OH276842   0.788   6.308   3.294  0.6647  0.3830  0.3518
18476TIP3    H176843   0.800   6.229   3.346 -0.6049 -0.2643 -0.3368
18476TIP3    H276844   0.716   6.354   3.337  1.4849  1.2378  0.8271
18477TIP3   OH276845   5.159   0.470   1.864 -0.5524  0.0131 -0.4200
18477TIP3    H176846   5.179   0.376   1.859 -1.0804 -0.2150  1.2659
18477TIP3    H276847   5.070   0.477   1.828  0.3425  0.2231 -2.6883
18478TIP3   OH276848   3.378   1.102   2.038 -0.4667 -0.1274 -0.1022
18478TIP3    H176849   3.285   1.117   2.018 -0.3301 -0.4146 -0.9798
18478TIP3    H276850   3.425   1.147   1.967  0.0990  1.0241  0.9896
18479TIP3   OH276851   5.166   6.111  15.894  0.0662  0.6589  0.0013
18479TIP3    H176852   5.100   6.180  15.889 -1.4742 -0.8607 -0.8401
18479TIP3    H276853   5.195   6.099  15.804  0.1900  0.0629  0.1159
18480TIP3   OH276854   1.202   2.256  13.320  0.1953  0.7860 -0.2755
18480TIP3    H176855   1.217   2.307  13.241  0.1719 -0.8412 -1.3457
18480TIP3    H276856   1.274   2.193  13.323  0.8783  1.6209  1.6581
18481TIP3   OH276857   3.009   5.937   3.975 -0.4804 -0.3122 -0.0030
18481TIP3    H176858   3.036   5.928   4.066  0.8518  1.9385 -0.1632
18481TIP3    H276859   2.915   5.916   3.976 -0.2505 -1.3575  1.6782
18482TIP3   OH276860   4.749   6.658  14.782 -0.1506  0.1302 -0.1468
18482TIP3    H176861   4.671   6.700  14.746  0.0368 -1.2780 -2.2502
18482TIP3    H276862   4.715   6.589  14.839 -0.4466  0.3950 -0.0040
18483TIP3   OH276863   0.284   6.551  13.963  0.4009  0.0310  0.7121
18483TIP3    H176864   0.348   6.598  13.910  1.1465  0.4708  1.9855
18483TIP3    H276865   0.333   6.522  14.040 -0.7560 -0.2775  1.3379
18484TIP3   OH276866   1.622   3.213  11.729  0.5199 -0.0131 -0.5098
18484TIP3    H176867   1.708   3.201  11.689  1.1485  0.7836  0.5892
18484TIP3    H276868   1.564   3.157  11.677  1.6983 -0.5837 -1.2357
18485TIP3   OH276869   4.986   6.306  11.012 -0.2443 -0.5733 -0.0424
18485TIP3    H176870   5.057   6.363  11.042  2.2607 -3.6711  0.2060
18485TIP3    H276871   4.957   6.260  11.090 -0.9259 -1.0558 -0.5723
18486TIP3   OH276872   1.481   6.567   5.658 -0.5746 -0.2635  0.3358
18486TIP3    H176873   1.450   6.655   5.635  0.1173 -0.2506 -0.5761
18486TIP3    H276874   1.479   6.566   5.753  0.0074  0.9639  0.3771
18487TIP3   OH276875   6.567   0.564  11.881  0.1027 -0.7990 -0.0675
18487TIP3    H176876   6.536   0.584  11.969 -0.9009 -3.0121  0.1322
18487TIP3    H276877   6.543   0.640  11.829  0.4658  0.4241  1.4934
18488TIP3   OH276878   4.999   1.575  15.888  0.2722  0.1787  0.5179
18488TIP3    H176879   5.063   1.596  15.956  0.3147 -0.6950  0.7475
18488TIP3    H276880   5.012   1.481  15.871  1.5537  0.7426 -1.9809
18489TIP3   OH276881   0.936   0.237   4.009  0.3180 -0.7476 -0.3836
18489TIP3    H176882   0.984   0.305   4.056  0.9058 -0.7436 -0.9814
18489TIP3    H276883   0.854   0.279   3.983  0.4263 -0.4444 -0.2349
18490TIP3   OH276884   0.061   2.882   5.309 -0.1027 -0.5048 -0.0644
18490TIP3    H176885   0.133   2.821   5.290 -0.8478 -1.6078  0.5713
18490TIP3    H276886   0.095   2.968   5.285  1.5732 -0.9626  0.5817
18491TIP3   OH276887   6.449   1.900  14.103  0.9191  0.6460  0.0384
18491TIP3    H176888   6.474   1.965  14.038 -0.8306  0.2716 -1.0233
18491TIP3    H276889   6.385   1.945  14.159 -0.8096 -0.3315 -1.1068
18492TIP3   OH276890   0.807   4.802   3.506 -0.4401  0.7277 -0.3157
18492TIP3    H176891   0.896   4.775   3.483 -0.7808 -2.2355  1.5401
18492TIP3    H276892   0.819   4.869   3.573  0.3988  0.1813  0.0846
18493TIP3   OH276893   3.613   6.406  15.951 -0.1996 -0.9775  0.3942
18493TIP3    H176894   3.579   6.488  15.986  2.6827  0.3547  0.2223
18493TIP3    H276895   3.614   6.419  15.856  1.5683 -0.6387  0.4433
18494TIP3   OH276896   2.832   4.078  15.867  0.2625 -0.0531  0.6176
18494TIP3    H176897   2.906   4.130  15.837 -0.9741  1.1080 -0.4525
18494TIP3    H276898   2.844   3.993  15.826 -1.3661  1.4818 -3.2661
18495TIP3   OH276899   5.296   3.644   6.294 -0.1778 -0.2786  0.1972
18495TIP3    H176900   5.329   3.719   6.244 -0.9955  0.5502  0.8764
18495TIP3    H276901   5.351   3.571   6.267 -0.5331  0.1761 -1.8370
18496TIP3   OH276902   0.797   1.648  14.390  0.0698  0.0588 -0.5524
18496TIP3    H176903   0.786   1.715  14.458  0.1055  1.3019 -1.7377
18496TIP3    H276904   0.865   1.590  14.424  1.4724  1.7697 -0.3319
18497TIP3   OH276905   1.067   2.739   0.091 -0.7584 -0.2405 -0.5061
18497TIP3    H176906   1.133   2.771   0.030 -3.6328  1.9306 -2.5964
18497TIP3    H276907   1.100   2.764   0.177  0.6264  1.7563 -1.5813
18498TIP3   OH276908   2.276   2.849   0.992  0.0318 -0.1589 -0.7302
18498TIP3    H176909   2.186   2.866   1.019  0.4872 -0.3775  0.9869
18498TIP3    H276910   2.322   2.931   1.012  0.5799 -0.6613  0.0998
18499TIP3   OH276911   1.258   5.278   1.557  0.3115 -0.1196  0.1833
18499TIP3    H176912   1.322   5.235   1.613 -0.1581 -1.9739 -0.6644
18499TIP3    H276913   1.189   5.213   1.544 -0.2511  0.7478 -1.4176
18500TIP3   OH276914   2.044   3.525   4.910 -0.4747  0.0382 -0.2765
18500TIP3    H176915   2.100   3.448   4.913 -1.3714 -0.6199 -0.4744
18500TIP3    H276916   2.058   3.568   4.995  1.2773  0.5752 -0.7949
18501TIP3   OH276917   0.140   5.158   1.835  0.2679  0.1931  0.0227
18501TIP3    H176918   0.154   5.132   1.926 -1.3925 -0.1520  0.2032
18501TIP3    H276919   0.069   5.101   1.805 -1.9626  2.9706 -0.2463
18502TIP3   OH276920   6.244   0.318   0.132 -0.1867  0.1152 -0.2415
18502TIP3    H176921   6.240   0.395   0.074 -0.1976  0.3209  0.0334
18502TIP3    H276922   6.337   0.296   0.136 -0.3517 -0.9233 -1.6850
18503TIP3   OH276923   1.054   6.089   4.702  0.0516  0.2276  0.1886
18503TIP3    H176924   1.065   6.062   4.793 -0.3044 -0.8591 -0.0917
18503TIP3    H276925   1.003   6.019   4.662  0.2777  0.6631 -0.8704
18504TIP3   OH276926   6.074   0.518   4.624  0.0581  0.1457 -0.1750
18504TIP3    H176927   6.076   0.458   4.550  0.3584  0.6669 -0.5872
18504TIP3    H276928   6.134   0.589   4.600  1.4156 -0.4793  1.2305
18505TIP3   OH276929   5.076   2.637  15.285  1.0490 -0.0665 -0.0193
18505TIP3    H176930   5.042   2.720  15.252  1.4145  0.3133  0.5514
18505TIP3    H276931   5.050   2.573  15.219  1.1647  0.5745 -0.6990
18506TIP3   OH276932   6.755   1.576   1.659 -0.1116 -0.3850  0.2802
18506TIP3    H176933   6.675   1.530   1.632 -0.2707 -0.2948  0.5968
18506TIP3    H276934   6.742   1.593   1.752  0.9556 -1.7635  0.6921
18507TIP3   OH276935   1.655   2.671   1.396  0.4525 -1.0672  0.3054
18507TIP3    H176936   1.631   2.593   1.447 -0.3434 -1.9827 -1.4108
18507TIP3    H276937   1.750   2.662   1.382  0.1244 -2.5435 -1.1555
18508TIP3   OH276938   1.195   3.334   1.894 -0.6094  0.6392 -0.3558
18508TIP3    H176939   1.239   3.384   1.825  1.1633  0.6276  0.7271
18508TIP3    H276940   1.165   3.255   1.850 -0.0318  0.9104 -1.2592
18509TIP3   OH276941   5.077   4.892  16.469 -0.2744  0.0368 -0.4333
18509TIP3    H176942   5.014   4.880  16.541 -0.7484 -0.4941 -0.9254
18509TIP3    H276943   5.162   4.888  16.511 -0.4677 -2.5825 -0.1756
18510TIP3   OH276944   2.543   1.458  13.402 -0.1503  0.4714 -0.2239
18510TIP3    H176945   2.607   1.462  13.474 -1.2151  0.9060  0.7031
18510TIP3    H276946   2.562   1.535  13.349  0.2135  0.5030 -0.0508
18511TIP3   OH276947   2.579   5.791   5.719  0.0214  0.0798  0.1856
18511TIP3    H176948   2.561   5.742   5.639 -0.7381  0.7293 -0.0491
18511TIP3    H276949   2.501   5.780   5.772  0.9025 -1.1386  1.2538
18512TIP3   OH276950   4.225   1.738  11.995  0.2221  1.1736  0.1926
18512TIP3    H176951   4.150   1.704  11.945  1.6119 -0.7090 -0.6503
18512TIP3    H276952   4.247   1.820  11.950  0.7183  0.0826 -1.6081
18513TIP3   OH276953   4.720   6.484  16.759 -0.0874 -0.0068 -1.0081
18513TIP3    H176954   4.769   6.565  16.769 -2.2562  1.4510 -1.8228
18513TIP3    H276955   4.732   6.438  16.842 -0.5416  2.1071  0.2509
18514TIP3   OH276956   1.834   0.127   4.422 -0.0027 -0.3643  0.0489
18514TIP3    H176957   1.891   0.051   4.406  0.6884  0.1371  0.1240
18514TIP3    H276958   1.757   0.110   4.368  0.5160 -0.7037 -0.5996
18515TIP3   OH276959   3.811   3.074   0.575 -0.0064 -0.2608 -0.1093
18515TIP3    H176960   3.799   3.168   0.589 -0.3272 -0.2132 -0.6732
18515TIP3    H276961   3.903   3.057   0.594 -0.0612  0.0851  0.4511
18516TIP3   OH276962   2.126   5.697  16.884  0.2003 -0.2228  0.4857
18516TIP3    H176963   2.144   5.606  16.858  0.0094  0.5457 -2.4212
18516TIP3    H276964   2.187   5.750  16.833  0.8320  1.2748  2.7307
18517TIP3   OH276965   0.465   1.174   4.423  0.1895  0.5209 -0.1148
18517TIP3    H176966   0.513   1.257   4.421  0.5760  0.3404  1.0199
18517TIP3    H276967   0.438   1.164   4.514 -0.1326 -0.4423 -0.3079
18518TIP3   OH276968   5.792   3.456  13.347 -0.0555  0.1753 -0.3489
18518TIP3    H176969   5.761   3.518  13.413 -0.8674  0.2219 -0.7644
18518TIP3    H276970   5.828   3.512  13.277 -0.0416  0.1537 -0.3592
18519TIP3   OH276971   2.752   1.855  16.495 -0.2148 -0.2559 -0.7335
18519TIP3    H176972   2.761   1.766  16.530 -0.4377 -0.6843 -1.7606
18519TIP3    H276973   2.842   1.882  16.475 -0.3005 -0.8874 -1.9866
18520TIP3   OH276974   1.344   3.922   1.451 -0.3014  0.4914 -0.1039
18520TIP3    H176975   1.434   3.892   1.462 -0.9021 -1.9343 -1.5024
18520TIP3    H276976   1.306   3.917   1.539  0.6873  0.8148  0.3526
18521TIP3   OH276977   4.385   3.754  15.365 -0.0534  0.3545  0.1385
18521TIP3    H176978   4.418   3.813  15.433  1.7470 -1.5132  0.9291
18521TIP3    H276979   4.457   3.750  15.301 -0.6945  0.0543 -0.5651
18522TIP3   OH276980   5.332   5.124  12.584  0.0007 -0.6021  0.0859
18522TIP3    H176981   5.308   5.098  12.672 -0.2810 -2.5213 -0.5327
18522TIP3    H276982   5.348   5.042  12.538  0.6155  0.3833 -1.5198
18523TIP3   OH276983   3.477   3.649   5.616 -0.1507 -0.3749  0.0799
18523TIP3    H176984   3.543   3.652   5.686  0.3405 -1.0127 -0.3478
18523TIP3    H276985   3.396   3.626   5.661 -0.7956  3.6029  1.0877
18524TIP3   OH276986   0.105   3.178  12.916  0.4850 -0.2292 -0.0233
18524TIP3    H176987   0.160   3.232  12.972  0.4209  1.8779 -1.9240
18524TIP3    H276988   0.029   3.157  12.970  0.7294  1.2203  0.9148
18525TIP3   OH276989   6.685   4.069   4.178  0.1482 -0.7023 -0.1299
18525TIP3    H176990   6.618   4.012   4.218  0.4021 -0.4147  0.7197
18525TIP3    H276991   6.753   4.076   4.245  0.5188 -0.0976 -0.5697
18526TIP3   OH276992   4.592   1.547   1.179  0.4417 -0.0711  0.1852
18526TIP3    H176993   4.513   1.583   1.219 -0.8043 -1.2070 -1.1758
18526TIP3    H276994   4.663   1.574   1.237 -1.1646 -0.6909  2.5230
18527TIP3   OH276995   4.852   1.152  11.751 -0.1753  0.0993 -0.6784
18527TIP3    H176996   4.930   1.205  11.768 -0.9404  0.9919  0.1080
18527TIP3    H276997   4.863   1.121  11.661  0.5948  1.0777 -0.9335
18528TIP3   OH276998   2.440   2.306   5.279  0.4519 -0.2100 -0.3257
18528TIP3    H176999   2.507   2.308   5.348 -0.4006 -2.1598  0.6070
18528TIP3    H277000   2.376   2.372   5.305  1.1025  0.3972 -0.2597
18529TIP3   OH277001   0.008   4.849   0.402 -0.1100  0.0397 -0.2922
18529TIP3    H177002   0.021   4.942   0.383  1.6332  0.2361  1.7714
18529TIP3    H277003   0.072   4.804   0.347 -0.3781  0.0935 -0.6540
18530TIP3   OH277004   3.732   0.984   0.341 -0.2107 -0.2902  0.0220
18530TIP3    H177005   3.713   1.049   0.408 -1.3068  1.4210 -1.9031
18530TIP3    H277006   3.826   0.994   0.323 -0.3968  0.8329 -0.3257
18531TIP3   OH277007   1.818   1.439  14.725 -0.0560 -0.2233  0.2227
18531TIP3    H177008   1.885   1.489  14.771 -0.2167  0.4297 -0.2474
18531TIP3    H277009   1.781   1.501  14.662  0.9928 -1.4295 -1.6352
18532TIP3   OH277010   2.561   5.368  14.177 -0.4484  0.1627  0.3354
18532TIP3    H177011   2.649   5.333  14.188 -0.4005  0.1881  0.0520
18532TIP3    H277012   2.504   5.303  14.217 -0.3199  0.0139  0.2781
18533TIP3   OH277013   1.570   0.754   4.632  0.3331  0.1630 -0.6438
18533TIP3    H177014   1.491   0.709   4.661  0.2746 -0.0650 -1.1623
18533TIP3    H277015   1.616   0.691   4.577  1.4751 -0.1307  0.6060
18534TIP3   OH277016   5.250   0.698   0.305 -0.4339 -0.2775 -0.5489
18534TIP3    H177017   5.246   0.672   0.397  0.0571 -1.3629 -0.8267
18534TIP3    H277018   5.181   0.647   0.263 -0.0269 -0.5048 -0.9499
18535TIP3   OH277019   2.670   5.687  17.128 -0.1920 -0.0944  0.3999
18535TIP3    H177020   2.764   5.700  17.120 -0.5668  1.3103 -2.1875
18535TIP3    H277021   2.637   5.767  17.169 -0.5233  0.3817 -0.7763
18536TIP3   OH277022   3.172   5.213   3.016 -0.8881 -0.3934 -0.2217
18536TIP3    H177023   3.195   5.136   3.068 -0.0359 -1.0815 -1.5996
18536TIP3    H277024   3.077   5.218   3.022 -0.7382  0.0913  2.1664
18537TIP3   OH277025   5.054   4.159  10.816 -0.0434  0.0934  0.1083
18537TIP3    H177026   5.133   4.110  10.795 -0.8998 -1.1925 -0.1293
18537TIP3    H277027   5.079   4.251  10.803  0.7498 -0.4129 -2.1383
18538TIP3   OH277028   1.392   3.443  11.633  0.0483 -0.2143  0.4726
18538TIP3    H177029   1.365   3.458  11.724 -0.3551 -0.2737  0.3651
18538TIP3    H277030   1.483   3.414  11.639 -0.0927 -0.5804  0.8826
18539TIP3   OH277031   5.175   4.372   2.278 -0.0466  0.0869 -0.4489
18539TIP3    H177032   5.121   4.296   2.298 -0.5801  0.2709 -1.1813
18539TIP3    H277033   5.244   4.371   2.345 -0.2707 -0.8188 -0.2287
18540TIP3   OH277034   3.677   3.922  16.112 -0.0156  0.7726 -0.1419
18540TIP3    H177035   3.760   3.970  16.113  0.6058 -0.2476 -0.9828
18540TIP3    H277036   3.702   3.832  16.089 -1.3691  0.4979 -0.5676
18541TIP3   OH277037   6.636   4.710  12.594 -0.2081 -0.0385 -0.5289
18541TIP3    H177038   6.587   4.662  12.528  0.8004 -0.9722 -0.6228
18541TIP3    H277039   6.702   4.648  12.625 -0.8162  0.3104  1.5361
18542TIP3   OH277040   5.569   0.841   3.464 -0.3584 -0.4766 -0.0360
18542TIP3    H177041   5.616   0.885   3.393 -1.2563  0.3101 -0.1584
18542TIP3    H277042   5.578   0.901   3.538 -1.9071  0.1141 -0.3051
18543TIP3   OH277043   5.425   0.597   4.191 -0.2844  0.1693 -0.5505
18543TIP3    H177044   5.382   0.626   4.272  0.6753  0.1239 -0.0221
18543TIP3    H277045   5.357   0.549   4.144 -0.4138 -1.1766  0.9581
18544TIP3   OH277046   6.458   4.705  16.573 -0.0891 -0.2285 -0.1360
18544TIP3    H177047   6.417   4.718  16.487 -0.7938  1.4911  0.4338
18544TIP3    H277048   6.427   4.619  16.601 -0.7905 -0.3070 -1.0985
18545TIP3   OH277049   2.662   3.195  10.976  0.1992 -0.0822 -0.4234
18545TIP3    H177050   2.591   3.134  10.993 -1.0183  1.6177  0.7557
18545TIP3    H277051   2.734   3.140  10.945 -1.5082 -1.8557 -1.3271
18546TIP3   OH277052   4.399   1.961   4.424 -0.3646  0.2376  0.1882
18546TIP3    H177053   4.367   2.043   4.461 -1.0491  0.1814 -0.2715
18546TIP3    H277054   4.367   1.961   4.334 -0.0786 -0.3753  0.0841
18547TIP3   OH277055   0.103   3.348   1.132  0.3558 -0.1254  0.2270
18547TIP3    H177056   0.062   3.299   1.061 -0.3103 -0.4324  0.8086
18547TIP3    H277057   0.097   3.440   1.106  0.4540 -0.2671 -0.2863
18548TIP3   OH277058   4.353   1.862   0.939 -0.5483 -0.2595  0.0621
18548TIP3    H177059   4.360   1.839   1.031  1.0472  0.6735  0.1849
18548TIP3    H277060   4.404   1.795   0.893 -0.1410  0.0992 -0.0136
18549TIP3   OH277061   0.673   2.885  11.541  0.6590  0.6997  0.1987
18549TIP3    H177062   0.604   2.908  11.602  1.1313  0.6185  0.7705
18549TIP3    H277063   0.754   2.902  11.589  1.0230 -0.9024  0.1685
18550TIP3   OH277064   0.977   3.470   5.373  0.3552 -0.1518 -0.2551
18550TIP3    H177065   1.020   3.553   5.353 -1.1906  0.9360  0.8396
18550TIP3    H277066   1.048   3.413   5.403  1.3468  0.9587 -0.4549
18551TIP3   OH277067   5.413   6.441   3.933 -0.3545 -0.3304  0.0657
18551TIP3    H177068   5.464   6.381   3.988  1.5033  1.3761  0.2715
18551TIP3    H277069   5.467   6.452   3.854 -1.9573 -1.0372 -1.1582
18552TIP3   OH277070   3.247   2.657  11.732  0.1964 -0.0073 -0.1150
18552TIP3    H177071   3.152   2.669  11.743 -0.2573 -1.8488 -1.6231
18552TIP3    H277072   3.276   2.623  11.817 -0.1865  2.1729  0.9014
18553TIP3   OH277073   3.715   1.871  12.925 -0.5233  0.0274  0.5646
18553TIP3    H177074   3.793   1.818  12.942 -0.2314  0.0957 -0.5203
18553TIP3    H277075   3.721   1.893  12.832 -1.3177  0.8774  0.7103
18554TIP3   OH277076   4.746   3.273  11.347 -0.3432  0.1726 -0.6318
18554TIP3    H177077   4.735   3.204  11.412  1.0877 -1.6692 -2.3041
18554TIP3    H277078   4.832   3.310  11.366 -0.4778  0.5241 -0.6917
18555TIP3   OH277079   1.443   0.009   5.479 -0.0048 -0.1385 -0.2318
18555TIP3    H177080   1.429   0.073   5.409  2.2379 -0.6966 -1.2492
18555TIP3    H277081   1.493   0.056   5.545 -0.7844 -0.0615  0.3143
18556TIP3   OH277082   5.481   5.263   1.999 -0.2297 -0.4637  0.3122
18556TIP3    H177083   5.536   5.329   1.956  0.1464 -0.1918  1.2020
18556TIP3    H277084   5.403   5.311   2.027  0.7715 -0.0073  2.4415
18557TIP3   OH277085   5.700   6.440  15.340 -0.5184 -0.3540  0.2323
18557TIP3    H177086   5.795   6.443  15.333 -0.4841 -1.0923  0.3764
18557TIP3    H277087   5.674   6.532  15.346  0.2770 -0.1981  1.4859
18558TIP3   OH277088   4.668   4.198  11.686  0.3271 -0.2880 -0.0381
18558TIP3    H177089   4.579   4.232  11.697  0.2215 -0.1962 -1.0854
18558TIP3    H277090   4.674   4.126  11.748  0.4292  1.4036  1.9626
18559TIP3   OH277091   1.084   0.515   0.068 -0.2879  0.4300 -0.1746
18559TIP3    H177092   1.041   0.555  -0.007 -0.7197  1.7088  0.7261
18559TIP3    H277093   1.177   0.512   0.045 -0.4491  0.6383 -0.8335
18560TIP3   OH277094   2.075   2.526  16.922 -0.4171  0.5007 -0.4537
18560TIP3    H177095   2.040   2.444  16.886 -0.6621  1.1786 -1.7946
18560TIP3    H277096   2.037   2.595  16.867  0.5771  1.4567  0.0240
18561TIP3   OH277097   1.332   1.329  11.720  0.1590  0.3724 -0.3161
18561TIP3    H177098   1.338   1.242  11.681 -0.7318 -0.2154  0.8389
18561TIP3    H277099   1.418   1.345  11.759  0.4048  0.1324 -0.7560
18562TIP3   OH277100   2.095   6.020  16.185  0.0735  0.6796 -0.0670
18562TIP3    H177101   2.027   6.083  16.206 -0.7272 -0.1152 -0.2334
18562TIP3    H277102   2.139   6.002  16.268 -0.9304  0.0378  0.3369
18563TIP3   OH277103   6.689   0.070   2.284 -0.0908  0.7933 -0.5726
18563TIP3    H177104   6.633   0.148   2.284 -0.2205  0.7056 -1.0258
18563TIP3    H277105   6.752   0.085   2.354 -1.4319  0.3556  0.7457
18564TIP3   OH277106   6.721   4.587  12.017 -0.0664 -0.7020 -0.4899
18564TIP3    H177107   6.722   4.523  11.946  0.2669  0.2697 -1.3850
18564TIP3    H277108   6.813   4.609  12.032 -0.1998 -0.1522 -0.4546
18565TIP3   OH277109   6.743   4.846  13.064  0.1728 -0.8932  0.4369
18565TIP3    H177110   6.770   4.868  13.153 -2.2267  1.3372  0.6584
18565TIP3    H277111   6.655   4.882  13.056 -0.9700 -3.9770 -1.7473
18566TIP3   OH277112   1.651   0.743  13.484  0.6790 -0.8006 -0.1784
18566TIP3    H177113   1.645   0.721  13.577 -2.7212  1.6675  0.2855
18566TIP3    H277114   1.569   0.710  13.446  0.3331  1.4378 -1.5180
18567TIP3   OH277115   4.157   6.237   3.035  0.2790 -0.4881 -0.1038
18567TIP3    H177116   4.130   6.325   3.008 -1.1858 -0.6697  0.6994
18567TIP3    H277117   4.218   6.253   3.108  0.7329 -0.1294 -0.5531
18568TIP3   OH277118   3.794   2.770  12.041 -0.0459 -0.2581  0.4095
18568TIP3    H177119   3.814   2.864  12.039  1.6849 -0.6379 -0.9345
18568TIP3    H277120   3.707   2.764  12.002  0.7874  0.5657 -1.6148
18569TIP3   OH277121   4.816   1.835   2.967  0.2149 -0.4518  0.4304
18569TIP3    H177122   4.765   1.852   3.046 -1.7809  1.0078 -1.0894
18569TIP3    H277123   4.907   1.851   2.993 -0.2688 -1.2743  2.7387
18570TIP3   OH277124   2.727   4.941  15.649  0.3460 -0.2756  0.0619
18570TIP3    H177125   2.647   4.913  15.605  0.8399  0.6998 -1.5438
18570TIP3    H277126   2.698   4.986  15.728 -0.8285  1.8447 -1.5227
18571TIP3   OH277127   3.422   1.302  13.772  0.2406 -0.3787 -0.1580
18571TIP3    H177128   3.511   1.288  13.740 -0.0779 -0.6714 -0.9117
18571TIP3    H277129   3.370   1.318  13.693 -0.6216 -1.5024  0.1642
18572TIP3   OH277130   5.962   6.776  16.694 -0.7342 -0.3999  0.7100
18572TIP3    H177131   5.934   6.782  16.785  1.6164  1.1084  1.3863
18572TIP3    H277132   5.987   6.865  16.670 -1.9934 -0.6452 -1.6569
18573TIP3   OH277133   4.330   1.473  16.758 -0.3637  0.2157 -0.0956
18573TIP3    H177134   4.239   1.492  16.780 -0.4160  0.1336 -0.2427
18573TIP3    H277135   4.331   1.465  16.663 -0.7642 -2.7174  0.1040
18574TIP3   OH277136   4.790   2.042  12.477 -0.2019  0.0758  0.6932
18574TIP3    H177137   4.733   2.114  12.453  0.7453  0.7453  0.4169
18574TIP3    H277138   4.846   2.078  12.547 -0.4215 -0.7048  1.2822
18575TIP3   OH277139   5.638   1.198  13.932 -0.3508  0.0737 -0.5841
18575TIP3    H177140   5.613   1.237  13.849 -0.3348 -0.3204 -0.7766
18575TIP3    H277141   5.665   1.272  13.987  1.8424  0.1331 -1.6901
18576TIP3   OH277142   0.337   4.679  15.887  0.3640  0.2901  0.4314
18576TIP3    H177143   0.364   4.626  15.812  0.8470  0.5247  0.4391
18576TIP3    H277144   0.251   4.712  15.863  0.6750  0.6670 -0.1788
18577TIP3   OH277145   3.178   5.324   5.223  0.8703  0.6830 -0.0257
18577TIP3    H177146   3.142   5.238   5.205  1.0469  0.8903 -1.4491
18577TIP3    H277147   3.151   5.344   5.313 -2.3911  0.7326 -0.9527
18578TIP3   OH277148   2.655   4.025  17.236 -0.4096 -0.5516  0.3764
18578TIP3    H177149   2.712   3.949  17.235 -0.5286 -0.6688  1.5799
18578TIP3    H277150   2.713   4.099  17.216 -0.1585 -0.8650 -0.0661
18579TIP3   OH277151   2.091   5.423  15.260  0.4001 -0.0736 -0.0756
18579TIP3    H177152   2.152   5.386  15.323 -1.2796 -0.7352  1.2174
18579TIP3    H277153   2.067   5.508  15.297 -0.2453 -0.2666 -0.0461
18580TIP3   OH277154   1.975   3.826  12.917 -0.2450 -0.6564 -0.1485
18580TIP3    H177155   1.946   3.752  12.970  1.6568 -0.5430  1.0925
18580TIP3    H277156   1.996   3.894  12.981 -1.8587  0.9476 -1.2583
18581TIP3   OH277157   6.480   2.643  12.906 -0.4023 -0.2335  0.3962
18581TIP3    H177158   6.404   2.585  12.915 -0.2230 -0.4425  0.5749
18581TIP3    H277159   6.522   2.640  12.992  0.7725 -1.4707 -0.2108
18582TIP3   OH277160   3.865   2.994  15.565 -0.5087  0.6863  0.2687
18582TIP3    H177161   3.938   3.025  15.619 -0.3031 -0.1480  0.4966
18582TIP3    H277162   3.896   3.002  15.475  0.6460 -1.4784  0.4264
18583TIP3   OH277163   1.523   0.959  16.701  0.0146  0.0854  0.1744
18583TIP3    H177164   1.459   0.983  16.634  0.2363  2.2668  0.7083
18583TIP3    H277165   1.470   0.929  16.775 -0.4175  1.4689  0.4516
18584TIP3   OH277166   1.998   4.230   5.433 -0.0846  0.4901 -0.0742
18584TIP3    H177167   2.022   4.322   5.438 -0.2404  0.6322 -1.6831
18584TIP3    H277168   1.968   4.208   5.522  0.5599  1.8023  0.4816
18585TIP3   OH277169   4.290   2.645   6.403 -0.2759  0.3883  0.2437
18585TIP3    H177170   4.360   2.594   6.363 -0.5473  0.4319 -0.2944
18585TIP3    H277171   4.334   2.722   6.440 -0.1893  1.0166 -1.1344
18586TIP3   OH277172   3.449   2.102   0.054 -0.5820 -0.1138  0.0110
18586TIP3    H177173   3.534   2.138   0.027 -1.1777  0.5998 -0.9497
18586TIP3    H277174   3.389   2.176   0.046 -0.9252 -0.0610  2.6887
18587TIP3   OH277175   4.058   2.695  17.041 -0.3679 -0.0837 -0.7768
18587TIP3    H177176   3.976   2.716  17.087 -0.4639 -0.8636 -0.5875
18587TIP3    H277177   4.099   2.628  17.096  0.4675  0.4084 -0.8001
18588TIP3   OH277178   2.927   3.802   3.366 -0.2010 -0.4403 -0.2309
18588TIP3    H177179   2.931   3.722   3.419 -2.5006 -0.1298  0.4840
18588TIP3    H277180   2.859   3.785   3.301  1.8310 -0.3906 -2.4473
18589TIP3   OH277181   1.722   2.467   3.162 -0.3736  0.6740  0.1669
18589TIP3    H177182   1.705   2.511   3.079 -0.0051  0.6206  0.0607
18589TIP3    H277183   1.641   2.477   3.212 -0.4133  1.1604  0.0041
18590TIP3   OH277184   1.911   3.596   3.253  0.3452  0.0878  0.2027
18590TIP3    H177185   1.919   3.507   3.288 -0.6294 -0.4794 -0.9958
18590TIP3    H277186   1.822   3.601   3.219  1.8827 -0.1320 -4.1939
18591TIP3   OH277187   4.721   6.371   4.983  0.1613 -0.4627  0.5224
18591TIP3    H177188   4.632   6.384   4.951 -0.7897 -1.4117  2.6694
18591TIP3    H277189   4.710   6.335   5.071  2.6783  1.7971  1.8422
18592TIP3   OH277190   5.956   2.645   4.708 -0.3810  0.0099 -0.0470
18592TIP3    H177191   5.980   2.736   4.693 -0.8987  0.0251 -0.7568
18592TIP3    H277192   6.013   2.595   4.649  0.7124 -0.2109  1.1570
18593TIP3   OH277193   6.584   4.905   4.734  0.2676 -0.8033 -0.7430
18593TIP3    H177194   6.530   4.903   4.813 -2.4750 -0.3037 -2.5261
18593TIP3    H277195   6.586   4.814   4.704  2.9110 -1.3232  0.9002
18594TIP3   OH277196   4.116   6.448   6.119 -0.0297 -0.3226  0.0782
18594TIP3    H177197   4.185   6.510   6.095  1.8700 -2.7115 -0.9960
18594TIP3    H277198   4.042   6.470   6.063  0.5148  1.1510 -0.0660
18595TIP3   OH277199   0.122   2.207   2.500 -0.2029  0.6646  0.3194
18595TIP3    H177200   0.215   2.227   2.515  0.3947 -0.8791 -1.1421
18595TIP3    H277201   0.082   2.292   2.483  0.3557  1.7127  3.7497
18596TIP3   OH277202   2.641   5.667   1.741  0.3689 -0.4942 -0.1388
18596TIP3    H177203   2.623   5.697   1.830  1.4343 -0.4621  0.0607
18596TIP3    H277204   2.716   5.608   1.749 -0.8036 -2.1241 -0.7302
18597TIP3   OH277205   2.437   2.483  12.678 -0.5856 -0.0864 -0.1998
18597TIP3    H177206   2.437   2.563  12.730 -1.0545  1.6484 -2.7265
18597TIP3    H277207   2.529   2.467  12.659 -0.5034 -0.0205  0.1406
18598TIP3   OH277208   1.816   4.879   6.807  0.2749  0.2518 -0.2498
18598TIP3    H177209   1.875   4.953   6.814  0.6364 -0.0207 -0.4207
18598TIP3    H277210   1.819   4.854   6.715 -0.0575  0.1971 -0.2466
18599TIP3   OH277211   5.545   3.085  11.554  0.0173 -0.1269 -0.5348
18599TIP3    H177212   5.586   3.161  11.512 -2.2133  0.8321 -1.0425
18599TIP3    H277213   5.510   3.034  11.481 -0.3924 -0.5198 -0.0653
18600TIP3   OH277214   4.710   5.066   0.942 -0.1185 -0.3828 -0.5443
18600TIP3    H177215   4.662   5.119   0.879 -0.8977  0.3350  0.6438
18600TIP3    H277216   4.720   5.122   1.018  2.7359 -0.4612 -0.8013
18601TIP3   OH277217   3.765   3.449  15.544 -0.5053 -0.6940 -0.3308
18601TIP3    H177218   3.754   3.542  15.524  0.6720 -0.2029  1.1975
18601TIP3    H277219   3.699   3.405  15.490 -1.6860  1.0901 -0.3958
18602TIP3   OH277220   0.704   4.025  14.090 -0.0701 -0.0871 -0.6723
18602TIP3    H177221   0.764   4.091  14.128  0.7721 -1.7362  0.9495
18602TIP3    H277222   0.760   3.969  14.037 -0.3026 -1.0930  0.1194
18603TIP3   OH277223   5.718   2.557  11.082 -0.0219 -0.1637 -0.0981
18603TIP3    H177224   5.631   2.537  11.046  0.1243 -0.9439 -0.0181
18603TIP3    H277225   5.779   2.528  11.015  0.2086 -0.3858  0.2103
18604TIP3   OH277226   6.308   3.958  16.859  0.2793  0.0629 -0.3953
18604TIP3    H177227   6.360   4.028  16.820 -1.2084  2.0294  1.0599
18604TIP3    H277228   6.327   3.963  16.952  0.4908 -1.7586 -0.3355
18605TIP3   OH277229   0.879   4.605  17.162 -0.6209  0.0845 -0.1343
18605TIP3    H177230   0.856   4.698  17.162  0.0555  0.2595 -0.1277
18605TIP3    H277231   0.974   4.604  17.150 -0.3849 -0.5424  1.6278
18606TIP3   OH277232   1.614   5.844  13.627  0.3302 -0.1078 -0.1042
18606TIP3    H177233   1.569   5.928  13.621  2.0919  0.9694  1.1897
18606TIP3    H277234   1.548   5.783  13.660 -0.4163  1.2278  0.9245
18607TIP3   OH277235   5.343   6.138  12.681  0.2299 -0.7320 -0.0771
18607TIP3    H177236   5.399   6.106  12.751  0.3665 -0.4676 -0.0668
18607TIP3    H277237   5.395   6.205  12.636 -0.3634  0.0942  0.4403
18608TIP3   OH277238   2.111   5.793  13.153 -0.3789 -0.6630  0.0063
18608TIP3    H177239   2.147   5.732  13.088 -0.0791  0.6863 -1.1293
18608TIP3    H277240   2.187   5.821  13.203 -0.0283  1.0300 -1.4123
18609TIP3   OH277241   6.109   3.267   1.389 -0.2089  0.7725 -0.4645
18609TIP3    H177242   6.083   3.226   1.472 -1.9452  2.1797 -0.2897
18609TIP3    H277243   6.186   3.217   1.361 -0.4838 -0.6639  1.2470
18610TIP3   OH277244   6.780   2.415  13.130  0.3377  0.7247  0.3741
18610TIP3    H177245   6.795   2.331  13.172 -0.3679  1.1204  1.4302
18610TIP3    H277246   6.704   2.401  13.074 -0.8064  1.0767  1.8022
18611TIP3   OH277247   3.827   4.625  10.689 -0.3916 -0.0083  0.1391
18611TIP3    H177248   3.741   4.646  10.726  0.1689 -0.1614  1.5563
18611TIP3    H277249   3.885   4.619  10.765  0.5706 -1.3814 -0.6852
18612TIP3   OH277250   6.315   0.720  16.611 -1.0183 -0.4979  0.1303
18612TIP3    H177251   6.263   0.800  16.618 -0.1977  0.0367  0.1217
18612TIP3    H277252   6.388   0.734  16.671 -1.5701 -1.7841  1.1357
18613TIP3   OH277253   5.228   0.717   6.390  0.3471 -0.3889  0.5533
18613TIP3    H177254   5.308   0.749   6.349  0.6813  0.5714  1.9317
18613TIP3    H277255   5.174   0.795   6.400 -0.6165 -0.9676 -0.0064
18614TIP3   OH277256   1.838   5.382  14.446  0.0095  0.2080  0.4787
18614TIP3    H177257   1.867   5.469  14.417  3.3638 -0.1997  2.3559
18614TIP3    H277258   1.866   5.323  14.376 -0.2986  0.3573  0.2279
18615TIP3   OH277259   1.548   3.781  15.783  0.0736  0.1776  0.1832
18615TIP3    H177260   1.524   3.730  15.861  1.6462 -0.0068  0.5637
18615TIP3    H277261   1.611   3.845  15.815  0.4734  0.3269 -0.8839
18616TIP3   OH277262   0.422   5.397  11.122 -0.7352 -0.3549 -0.0607
18616TIP3    H177263   0.444   5.436  11.038  0.8829  1.3454  1.0970
18616TIP3    H277264   0.346   5.447  11.152  1.3739  2.1052  1.4510
18617TIP3   OH277265   6.206   5.514   3.398  0.3407  0.0587 -0.0410
18617TIP3    H177266   6.258   5.548   3.470 -0.1741  0.1769  0.2832
18617TIP3    H277267   6.252   5.435   3.369  1.1131  0.6029 -0.2792
18618TIP3   OH277268   2.009   5.822  10.345 -0.6154 -0.1578  0.0862
18618TIP3    H177269   1.950   5.767  10.397  0.9386 -1.9851 -0.0023
18618TIP3    H277270   1.958   5.900  10.324 -2.7428 -1.3741  0.6171
18619TIP3   OH277271   4.504   0.636  11.080  0.0263  1.1585 -0.0867
18619TIP3    H177272   4.415   0.667  11.096  0.4002  2.2024  0.0277
18619TIP3    H277273   4.498   0.541  11.085 -1.2010  1.1992 -0.6939
18620TIP3   OH277274   3.511   2.579   5.346  0.4805 -0.2123  0.2260
18620TIP3    H177275   3.529   2.581   5.440  1.1072 -0.2227  0.1055
18620TIP3    H277276   3.526   2.669   5.317 -2.2790  0.4342  0.6051
18621TIP3   OH277277   1.436   0.280   4.381 -0.8748 -0.1779 -0.3816
18621TIP3    H177278   1.362   0.226   4.409  0.4488 -1.9362 -0.1117
18621TIP3    H277279   1.483   0.298   4.463 -1.8425  2.2578 -0.3399
18622TIP3   OH277280   0.238   6.221   0.153  0.1844 -0.1943  0.1284
18622TIP3    H177281   0.310   6.163   0.178  0.0668 -0.1637  0.5574
18622TIP3    H277282   0.230   6.281   0.227  0.0570  0.1310 -0.1485
18623TIP3   OH277283   0.490   2.414   4.337  0.5636 -0.4921 -0.0964
18623TIP3    H177284   0.578   2.380   4.354  0.6226 -1.0709 -1.4783
18623TIP3    H277285   0.443   2.340   4.299  0.2220  0.5067 -1.6689
18624TIP3   OH277286   1.064   4.611   2.631  0.3953  0.9075 -0.0171
18624TIP3    H177287   1.050   4.523   2.597  1.4105  1.6824 -2.5846
18624TIP3    H277288   1.154   4.610   2.665  0.0579  0.6805  0.8778
18625TIP3   OH277289   0.538   3.796  17.037 -0.1738  0.3128  0.1963
18625TIP3    H177290   0.614   3.854  17.044 -0.0575  0.1079  0.6112
18625TIP3    H277291   0.569   3.711  17.068  0.3112 -0.5683 -2.5528
18626TIP3   OH277292   1.897   1.234  15.542  0.4178  0.3907  0.0700
18626TIP3    H177293   1.899   1.328  15.559  0.9086  0.7305 -1.7577
18626TIP3    H277294   1.987   1.205  15.555  0.0197 -0.0926  1.9209
18627TIP3   OH277295   0.897   6.099  13.942 -0.6486  0.4248  0.2995
18627TIP3    H177296   0.814   6.140  13.917 -1.2864  0.4241  2.2776
18627TIP3    H277297   0.932   6.156  14.010 -0.1455 -0.7771  1.0691
18628TIP3   OH277298   3.467   1.179   1.515 -0.3765  0.8956 -0.0050
18628TIP3    H177299   3.394   1.123   1.486  1.5026 -0.7169 -1.7928
18628TIP3    H277300   3.444   1.266   1.484 -0.6673  0.0527 -2.2796
18629TIP3   OH277301   2.630   5.410  15.712 -0.2048 -0.2657  0.7950
18629TIP3    H177302   2.618   5.316  15.725  0.7366 -0.1612  2.5285
18629TIP3    H277303   2.544   5.448  15.731 -1.2099 -0.9483 -2.1093
18630TIP3   OH277304   5.348   4.359  14.742 -0.4108  0.2809 -0.4200
18630TIP3    H177305   5.362   4.385  14.651  1.3631 -1.6092 -0.7138
18630TIP3    H277306   5.432   4.373  14.785 -0.8043 -0.3245  0.5724
18631TIP3   OH277307   1.235   4.695  11.512 -0.4202 -0.6678  0.2696
18631TIP3    H177308   1.294   4.761  11.546 -0.2648 -0.9070  0.4666
18631TIP3    H277309   1.261   4.684  11.420 -0.8661  0.0037  0.0612
18632TIP3   OH277310   4.104   3.267  14.883  0.2256 -0.1866 -0.1981
18632TIP3    H177311   4.020   3.221  14.879 -0.4263  1.1085 -2.2435
18632TIP3    H277312   4.135   3.268  14.792  2.3590 -0.4515  0.4985
18633TIP3   OH277313   3.368   0.095   2.693 -0.3564  0.0912  0.1663
18633TIP3    H177314   3.423   0.108   2.771 -0.2650  0.1472  0.0926
18633TIP3    H277315   3.412   0.025   2.645  0.1936  0.8097 -0.3869
18634TIP3   OH277316   0.318   4.345  15.090 -0.1210 -0.1347 -0.6658
18634TIP3    H177317   0.406   4.369  15.062 -0.7372  1.6380 -1.1781
18634TIP3    H277318   0.326   4.326  15.183  1.1407 -1.8181 -1.0989
18635TIP3   OH277319   1.658   2.552   1.733 -0.2885  0.5146  0.2133
18635TIP3    H177320   1.692   2.633   1.693 -2.6894  1.0874 -0.7302
18635TIP3    H277321   1.722   2.485   1.710  0.3496  1.6249 -1.3007
18636TIP3   OH277322   2.261   0.013   3.395  0.0140  0.2077  0.0677
18636TIP3    H177323   2.331  -0.040   3.357  0.5515 -0.1655  1.5354
18636TIP3    H277324   2.185  -0.044   3.396  0.8108 -0.8927  2.4520
18637TIP3   OH277325   1.967   6.755  11.227 -0.2097  0.0722  0.5896
18637TIP3    H177326   1.908   6.717  11.162 -0.8791  2.0093  0.0541
18637TIP3    H277327   1.939   6.716  11.310 -1.3344 -0.0939  0.1395
18638TIP3   OH277328   0.453   5.408  14.269  0.1464 -0.8690  0.4975
18638TIP3    H177329   0.518   5.467  14.233 -2.1145  0.3329 -1.7465
18638TIP3    H277330   0.422   5.452  14.348  0.3304 -0.3020  0.2570
18639TIP3   OH277331   0.499   2.256  12.893  0.1604 -0.1112  0.6265
18639TIP3    H177332   0.455   2.171  12.899 -1.2390  0.5453 -0.0026
18639TIP3    H277333   0.466   2.304  12.969 -0.2965  0.4256  0.0892
18640TIP3   OH277334   6.676   4.407   1.854 -0.4114  0.4787 -0.3527
18640TIP3    H177335   6.686   4.312   1.842  1.1442  0.5251  0.4061
18640TIP3    H277336   6.766   4.438   1.868 -1.0624  1.8758  0.7684
18641TIP3   OH277337   1.632   0.838   1.798 -0.6945 -0.6122 -0.1419
18641TIP3    H177338   1.631   0.743   1.791 -0.3578 -0.7808  1.8239
18641TIP3    H277339   1.609   0.856   1.889  1.3077  1.1092  0.0814
18642TIP3   OH277340   5.128   0.156   6.482 -0.3324 -0.3036 -0.0480
18642TIP3    H177341   5.191   0.087   6.462  0.8542  0.2473  1.6004
18642TIP3    H277342   5.181   0.224   6.525 -2.1339  0.0097  1.7183
18643TIP3   OH277343   5.499   2.972  14.828 -0.4213  0.1945  0.3174
18643TIP3    H177344   5.410   2.963  14.794 -0.8277  1.2672  1.0578
18643TIP3    H277345   5.503   3.062  14.861  0.2726 -0.4746  2.1655
18644TIP3   OH277346   6.662   5.679  15.774 -0.1416  0.1716 -0.7680
18644TIP3    H177347   6.665   5.585  15.792 -0.1074  0.2814 -0.1810
18644TIP3    H277348   6.668   5.720  15.860 -2.5577  0.6828 -0.7921
18645TIP3   OH277349   4.770   2.287  11.541 -0.7204 -0.1597 -0.2036
18645TIP3    H177350   4.737   2.277  11.451 -1.5103 -1.3706  0.1981
18645TIP3    H277351   4.801   2.377  11.546 -0.6881 -0.0747 -1.6906
18646TIP3   OH277352   4.417   5.078  15.660  0.2693  0.3848  0.4362
18646TIP3    H177353   4.506   5.071  15.695 -0.2535 -3.2449  1.2667
18646TIP3    H277354   4.360   5.050  15.732 -1.3051 -0.4253 -1.0576
18647TIP3   OH277355   6.090   0.396   4.864  0.2315  0.5975 -0.0476
18647TIP3    H177356   6.183   0.374   4.857  0.5366  1.8929 -0.1901
18647TIP3    H277357   6.072   0.448   4.785 -0.6344  0.3044 -0.0479
18648TIP3   OH277358   6.040   6.143   1.020 -0.5889  0.0876  0.1411
18648TIP3    H177359   6.065   6.191   0.941  0.1392  0.1190  0.3923
18648TIP3    H277360   6.085   6.059   1.013  0.2579  0.4606  0.9972
18649TIP3   OH277361   4.514   1.636   0.933 -0.3893  0.1210 -0.4192
18649TIP3    H177362   4.567   1.586   0.871 -2.2685 -0.1685 -1.8131
18649TIP3    H277363   4.537   1.599   1.019  1.6853  0.0437 -0.9681
18650TIP3   OH277364   2.409   5.315  13.774  0.5659  0.1705 -0.1518
18650TIP3    H177365   2.423   5.355  13.688  1.1873  1.8263  0.7037
18650TIP3    H277366   2.319   5.282  13.770  0.2247  1.1605 -1.0814
18651TIP3   OH277367   3.855   6.745   0.299 -0.1266  0.0735 -0.6707
18651TIP3    H177368   3.899   6.766   0.381  0.8666  0.1334 -1.2181
18651TIP3    H277369   3.795   6.674   0.321 -0.8566  1.0100  0.3987
18652TIP3   OH277370   0.026   2.277  16.695  0.2941  0.6074  0.2162
18652TIP3    H177371  -0.016   2.274  16.781 -1.5509  1.1847 -0.6511
18652TIP3    H277372   0.057   2.368  16.687  0.8065  0.4546  0.4146
18653TIP3   OH277373   3.036   3.379   3.078 -0.1235  0.0617  0.3603
18653TIP3    H177374   2.952   3.421   3.096 -0.2284 -0.2485  0.5928
18653TIP3    H277375   3.032   3.353   2.986  0.5431  1.9590 -0.2311
18654TIP3   OH277376   0.969   4.348   4.532  0.3068  0.0644 -0.1218
18654TIP3    H177377   0.966   4.392   4.617 -2.3052 -2.3198  1.1102
18654TIP3    H277378   0.917   4.404   4.474 -1.0979 -0.2116  0.8558
18655TIP3   OH277379   5.384   1.755   2.191  0.2152  0.3424  0.0116
18655TIP3    H177380   5.318   1.712   2.245  0.0608 -0.9015 -1.1275
18655TIP3    H277381   5.464   1.704   2.207 -0.1662 -0.9624 -1.9981
18656TIP3   OH277382   5.436   3.710  17.201  0.0933  0.4379 -0.8041
18656TIP3    H177383   5.444   3.708  17.106  2.4571  2.8517 -0.7048
18656TIP3    H277384   5.524   3.728  17.233 -0.3495 -1.9113  1.9533
18657TIP3   OH277385   1.011   4.879  15.406  0.0855  0.0914 -0.2471
18657TIP3    H177386   1.095   4.866  15.449  0.1013 -0.4454 -0.4312
18657TIP3    H277387   1.022   4.839  15.320  0.3779  2.0155 -1.1431
18658TIP3   OH277388   0.836   6.537  15.832 -0.0796  0.1246 -0.0693
18658TIP3    H177389   0.912   6.562  15.884 -0.4235  0.2193  0.3977
18658TIP3    H277390   0.846   6.443  15.817 -0.7954 -0.2152  1.5403
18659TIP3   OH277391   1.920   0.987  12.034  0.0468  0.1306  0.2195
18659TIP3    H177392   1.952   1.037  11.959  0.4700  0.5660  0.6801
18659TIP3    H277393   1.937   1.044  12.110  1.0839 -0.9447  0.8089
18660TIP3   OH277394   0.954   4.473  16.427  0.1333 -0.2669 -0.2624
18660TIP3    H177395   1.034   4.525  16.415  0.5546 -0.9221 -0.3580
18660TIP3    H277396   0.893   4.507  16.362 -0.6087  2.0606  1.5848
18661TIP3   OH277397   2.153   0.520   5.029 -0.9775 -0.3615 -0.1687
18661TIP3    H177398   2.083   0.554   5.085 -0.6374 -1.2815  0.8267
18661TIP3    H277399   2.132   0.427   5.019 -1.2149 -0.1553 -1.8589
18662TIP3   OH277400   0.093   3.198  14.432 -0.3534 -0.5395 -0.0790
18662TIP3    H177401   0.052   3.174  14.348 -1.4542 -0.5902  0.4640
18662TIP3    H277402   0.019   3.216  14.490  0.4135 -0.1881  0.7931
18663TIP3   OH277403   2.543   1.270   2.896 -0.0593 -0.0037 -0.6264
18663TIP3    H177404   2.575   1.333   2.832 -0.4764  0.3894 -0.4542
18663TIP3    H277405   2.463   1.235   2.856 -0.8547  0.9602  0.1054
18664TIP3   OH277406   0.426   1.533  14.431  0.1888  0.0656  0.1908
18664TIP3    H177407   0.428   1.606  14.370  0.1428  2.0728  2.4940
18664TIP3    H277408   0.516   1.523  14.461  0.3624 -1.4354 -0.7816
18665TIP3   OH277409   4.037   6.441  12.864  0.0332  0.3119  0.5763
18665TIP3    H177410   3.995   6.382  12.801  1.0898 -0.8513  0.9204
18665TIP3    H277411   4.022   6.528  12.829  1.9223 -0.3732 -2.1520
18666TIP3   OH277412   1.019   3.506   2.283 -0.0154  0.3700  0.0522
18666TIP3    H177413   0.938   3.554   2.298 -0.5617  0.0310 -1.7222
18666TIP3    H277414   0.996   3.438   2.220  2.1680  1.8221 -2.4286
18667TIP3   OH277415   0.702   5.633  12.331 -0.1811  0.7338  0.5447
18667TIP3    H177416   0.708   5.645  12.426 -1.8344 -2.8460  1.2033
18667TIP3    H277417   0.613   5.602  12.317  0.1525  0.9109 -2.1518
18668TIP3   OH277418   2.763   5.110  11.484 -0.0624  0.3860 -0.2186
18668TIP3    H177419   2.790   5.186  11.431  0.5947  0.1109 -0.2804
18668TIP3    H277420   2.713   5.055  11.424  0.7701  0.0263 -0.5714
18669TIP3   OH277421   3.955   2.534  12.042 -0.0990 -0.2054 -0.3387
18669TIP3    H177422   3.937   2.628  12.039  1.0125  0.0357  0.1718
18669TIP3    H277423   3.971   2.510  11.950  2.3119  0.6786 -0.1853
18670TIP3   OH277424   4.400   4.611  16.966 -0.0167  0.5226  0.4003
18670TIP3    H177425   4.489   4.586  16.990  0.0283 -1.0485 -1.2786
18670TIP3    H277426   4.388   4.577  16.877 -2.2909  0.6640  0.6036
18671TIP3   OH277427   4.622   4.663   1.734 -0.1396  0.3572 -0.1600
18671TIP3    H177428   4.560   4.721   1.690  0.1024  0.2386 -0.6582
18671TIP3    H277429   4.600   4.671   1.827 -0.6246  0.6383 -0.2966
18672TIP3   OH277430   2.830   0.041   2.334 -0.0746 -0.0388  0.6974
18672TIP3    H177431   2.913   0.015   2.294  0.4094  0.2362  1.5101
18672TIP3    H277432   2.843   0.133   2.358  0.0131 -0.4862  2.4246
18673TIP3   OH277433   2.198   4.084   0.473  0.2667 -0.2889 -0.1991
18673TIP3    H177434   2.206   3.999   0.429  0.4243  0.0123 -0.7531
18673TIP3    H277435   2.281   4.128   0.455  0.7989 -0.6243  1.3814
18674TIP3   OH277436   3.527   3.648   1.257 -0.3349  0.9284  0.2886
18674TIP3    H177437   3.505   3.737   1.286 -0.6003  0.7005  0.7900
18674TIP3    H277438   3.544   3.600   1.338 -0.6030  0.4111  0.0391
18675TIP3   OH277439   3.278   1.765  16.388  0.8510  0.0241  0.3549
18675TIP3    H177440   3.338   1.742  16.317  1.8888  1.9427  0.5690
18675TIP3    H277441   3.327   1.747  16.468  0.9369  1.0280  0.5366
18676TIP3   OH277442   2.603   3.073  13.569  1.0040  0.0689  0.1792
18676TIP3    H177443   2.667   3.144  13.574 -1.5977  2.3698  2.1082
18676TIP3    H277444   2.541   3.100  13.501  0.3869 -0.6671  0.4398
18677TIP3   OH277445   5.626   2.225  14.263 -0.1432 -0.6221 -0.1546
18677TIP3    H177446   5.627   2.254  14.355 -0.2791 -0.1949 -0.2852
18677TIP3    H277447   5.614   2.130  14.268  0.0457 -0.6231  0.2749
18678TIP3   OH277448   2.501   4.347   4.795  0.0757  0.1763  0.2080
18678TIP3    H177449   2.503   4.253   4.811  1.8673 -0.1246 -1.4915
18678TIP3    H277450   2.585   4.379   4.830  0.0199  0.9314 -0.3282
18679TIP3   OH277451   3.582   5.435   5.341 -0.1827  0.1986  0.4151
18679TIP3    H177452   3.535   5.385   5.275  0.4917  0.6173 -0.3972
18679TIP3    H277453   3.666   5.391   5.350 -0.2010  0.2526  0.8569
18680TIP3   OH277454   3.008   1.115   4.684 -0.5335  0.3224 -0.2602
18680TIP3    H177455   3.089   1.065   4.691  0.1359  0.5619 -4.8741
18680TIP3    H277456   2.938   1.050   4.693  0.2158 -0.4247  0.1869
18681TIP3   OH277457   4.938   2.514  13.274 -0.2378 -0.6844 -0.0562
18681TIP3    H177458   4.983   2.559  13.346  0.6576 -1.4210 -0.1351
18681TIP3    H277459   4.962   2.564  13.196 -1.1957  0.1054  0.1467
18682TIP3   OH277460   0.391   4.532   3.912  0.8157 -0.2973  0.5642
18682TIP3    H177461   0.388   4.437   3.914  1.0918 -0.3084  0.4865
18682TIP3    H277462   0.342   4.556   3.833 -0.0033 -0.3393  1.0623
18683TIP3   OH277463   3.684   5.178  16.643 -0.4371  0.4665  0.9170
18683TIP3    H177464   3.635   5.260  16.651  0.0145  0.8056  0.2441
18683TIP3    H277465   3.724   5.165  16.729 -0.3276  1.0693  0.9603
18684TIP3   OH277466   6.380   4.077  14.843 -0.0331  0.1300  0.2565
18684TIP3    H177467   6.345   4.017  14.777 -0.5536  0.7866 -0.0665
18684TIP3    H277468   6.455   4.118  14.800  0.4181 -0.3920  0.5305
18685TIP3   OH277469   4.451   0.348   4.988 -0.2921  0.0729 -0.6766
18685TIP3    H177470   4.365   0.388   5.002 -0.8516 -0.8278 -1.4357
18685TIP3    H277471   4.461   0.346   4.893  0.1650 -0.6692 -0.6166
18686TIP3   OH277472   6.429   2.428  15.250  0.2235 -0.1196 -0.0481
18686TIP3    H177473   6.353   2.371  15.238  0.6153 -0.6825  0.1221
18686TIP3    H277474   6.504   2.369  15.244  0.6959  0.5804 -1.1685
18687TIP3   OH277475   1.583   3.370   1.581 -0.4995 -0.2723  1.1104
18687TIP3    H177476   1.567   3.461   1.606 -0.4641 -0.2753  1.1423
18687TIP3    H277477   1.512   3.321   1.622 -1.0828 -0.1330  0.2936
18688TIP3   OH277478   3.575   2.586   4.425  0.2695  0.5467  0.2471
18688TIP3    H177479   3.622   2.669   4.435 -0.3678  0.9208  0.2157
18688TIP3    H277480   3.570   2.572   4.331  0.8720  0.1828  0.2689
18689TIP3   OH277481   3.846   4.028   0.919 -0.0899 -0.0703 -0.5736
18689TIP3    H177482   3.884   4.094   0.861  0.3066  0.3887  0.1949
18689TIP3    H277483   3.921   3.976   0.948  0.0078  0.9598  1.1064
18690TIP3   OH277484   2.074   1.747   1.444  0.1132 -0.4432  0.3016
18690TIP3    H177485   2.027   1.795   1.512 -2.5480 -2.5704  0.0334
18690TIP3    H277486   2.032   1.772   1.362  1.2748 -0.2806 -0.2633
18691TIP3   OH277487   1.233   2.580   0.604 -0.4077  0.3229  0.2394
18691TIP3    H177488   1.153   2.587   0.550 -0.7605  1.5225  0.9054
18691TIP3    H277489   1.304   2.588   0.541 -0.8214  1.4537 -0.1019
18692TIP3   OH277490   1.694   2.134   1.565  0.0227  0.4335  0.0987
18692TIP3    H177491   1.638   2.073   1.614  0.0820  0.5687  0.3334
18692TIP3    H277492   1.662   2.221   1.589  1.2232  0.5536  1.3022
18693TIP3   OH277493   4.908   3.847  15.652 -0.2024 -0.0481 -0.3197
18693TIP3    H177494   4.941   3.881  15.736 -1.2836 -0.7464  0.4110
18693TIP3    H277495   4.873   3.924  15.607 -1.1005  0.0931  0.5907
18694TIP3   OH277496   5.672   0.714  15.333 -0.0689  0.2234 -0.0100
18694TIP3    H177497   5.621   0.639  15.303 -0.7483  1.4671 -2.1676
18694TIP3    H277498   5.627   0.744  15.412 -0.9291 -0.5113 -0.2109
18695TIP3   OH277499   5.035   2.513   2.191 -0.1511 -0.4400  0.1023
18695TIP3    H177500   5.093   2.446   2.226 -0.3860 -0.8226 -0.2484
18695TIP3    H277501   4.998   2.475   2.112 -2.6316 -1.0977  1.5212
18696TIP3   OH277502   2.356   1.107  14.043  0.8566  0.3132 -0.0321
18696TIP3    H177503   2.264   1.111  14.070  0.7412  2.1765 -0.6612
18696TIP3    H277504   2.352   1.084  13.950  0.8923  3.1583 -0.7802
18697TIP3   OH277505   2.266   1.349  16.241 -0.1491 -0.1196  0.6404
18697TIP3    H177506   2.338   1.303  16.284  0.2081  0.0261  0.2027
18697TIP3    H277507   2.192   1.289  16.247 -0.1120 -0.0856  1.4864
18698TIP3   OH277508   5.382   5.703   4.553 -0.4781 -0.8500 -0.4114
18698TIP3    H177509   5.412   5.791   4.533 -1.0890 -0.2984  1.0502
18698TIP3    H277510   5.287   5.706   4.539 -0.9166 -0.4691  2.3538
18699TIP3   OH277511   4.356   5.685  17.235 -0.5946 -0.1000  0.5495
18699TIP3    H177512   4.429   5.747  17.224  0.0563 -0.5471  2.2547
18699TIP3    H277513   4.325   5.669  17.146 -0.3562  2.1742  0.0357
18700TIP3   OH277514   3.861   2.939   2.184 -0.3775 -0.6351  0.0424
18700TIP3    H177515   3.770   2.951   2.210  0.0327  0.6301  0.9432
18700TIP3    H277516   3.911   2.949   2.265  0.5045 -2.1456 -0.3019
18701TIP3   OH277517   0.612   0.040   1.479 -0.0777 -0.0609 -0.3925
18701TIP3    H177518   0.694   0.045   1.429 -0.2337  1.3857 -0.5391
18701TIP3    H277519   0.637   0.001   1.562  1.2218  2.3960  0.4286
18702TIP3   OH277520   4.042   6.515   2.824 -0.1068 -0.2434  0.7233
18702TIP3    H177521   3.986   6.467   2.763 -1.4006  0.6092  1.2091
18702TIP3    H277522   4.125   6.467   2.824 -0.7220 -1.3316 -0.2708
18703TIP3   OH277523   1.669   1.838  11.475 -0.4159  0.7474  0.2765
18703TIP3    H177524   1.659   1.878  11.388  0.5811  0.9574  0.2474
18703TIP3    H277525   1.701   1.749  11.456  0.7830  1.1245  0.4446
18704TIP3   OH277526   4.454   0.453  11.425  0.8081 -0.5182 -0.1914
18704TIP3    H177527   4.396   0.529  11.433  0.6474 -0.7964  1.4654
18704TIP3    H277528   4.542   0.491  11.420  0.5979 -0.1538 -1.1495
18705TIP3   OH277529   0.543   2.244  13.284 -0.1723 -0.3218  0.5374
18705TIP3    H177530   0.538   2.316  13.221 -0.2840  0.5561  1.5331
18705TIP3    H277531   0.635   2.217  13.282  0.8306  2.5432  3.0704
18706TIP3   OH277532   1.644   2.413   4.221 -0.8094 -0.0357 -0.2322
18706TIP3    H177533   1.597   2.486   4.260  0.3565  0.0873  0.9519
18706TIP3    H277534   1.627   2.339   4.279  2.4990  0.5895  1.6623
18707TIP3   OH277535   2.969   3.549   0.364  0.2235  0.3125  0.0390
18707TIP3    H177536   2.944   3.516   0.278  0.6219  0.0771  0.0148
18707TIP3    H277537   2.927   3.635   0.370 -0.7753 -0.1684  0.0840
18708TIP3   OH277538   1.852   5.504   1.812 -0.0543  0.3647 -0.2485
18708TIP3    H177539   1.915   5.451   1.862 -1.6194  0.2327  1.6879
18708TIP3    H277540   1.866   5.480   1.721  1.8266 -0.5879  0.2764
18709TIP3   OH277541   6.298   3.621   0.664  0.1410 -0.0754  0.3459
18709TIP3    H177542   6.296   3.591   0.573  1.3070  0.7240  0.0407
18709TIP3    H277543   6.211   3.659   0.678 -0.2468 -0.7243 -0.2466
18710TIP3   OH277544   2.414   0.670  12.082 -0.8788  0.2415  0.6746
18710TIP3    H177545   2.472   0.687  12.008 -2.2717 -1.2740 -0.8236
18710TIP3    H277546   2.332   0.715  12.060 -1.3289 -0.2811  1.2426
18711TIP3   OH277547   4.200   5.492  14.715  0.0155 -0.2185 -0.0309
18711TIP3    H177548   4.281   5.534  14.744 -0.5723 -0.2619  1.6775
18711TIP3    H277549   4.149   5.563  14.677 -0.2801  0.3208  1.3541
18712TIP3   OH277550   0.806   1.335  13.035  0.0875  0.2659 -0.0658
18712TIP3    H177551   0.812   1.249  13.076 -1.3272 -0.4826 -1.3795
18712TIP3    H277552   0.877   1.336  12.971 -0.2199 -0.1266 -0.4101
18713TIP3   OH277553   5.665   2.891   0.225  0.4905  0.0087  0.5979
18713TIP3    H177554   5.666   2.929   0.313  2.0877 -0.9120  0.9982
18713TIP3    H277555   5.750   2.848   0.216 -0.9810 -2.9375 -0.0317
18714TIP3   OH277556   6.127   3.150  12.249  0.0888 -0.2080 -0.7100
18714TIP3    H177557   6.133   3.242  12.225  0.8566 -0.9925 -3.8642
18714TIP3    H277558   6.046   3.120  12.207 -1.2897 -0.5174  2.0857
18715TIP3   OH277559   3.279   4.974   5.719  0.0664 -0.5278 -0.4583
18715TIP3    H177560   3.315   5.061   5.698  0.6221 -0.7890 -0.6163
18715TIP3    H277561   3.349   4.931   5.769 -1.4178  0.2429  2.3846
18716TIP3   OH277562   4.436   3.997   4.089 -0.1798  0.3897  0.1793
18716TIP3    H177563   4.392   3.930   4.141  0.0647  0.0422 -0.0605
18716TIP3    H277564   4.513   4.022   4.142 -0.5417  0.8423  0.4979
18717TIP3   OH277565   3.256   0.661   0.003 -0.6243  0.3637  0.0150
18717TIP3    H177566   3.194   0.640  -0.067 -1.0191 -1.4209  0.8636
18717TIP3    H277567   3.220   0.618   0.080  1.7873 -0.8950  0.4779
18718TIP3   OH277568   6.348   3.843   1.148  0.0980  0.1654 -0.6553
18718TIP3    H177569   6.387   3.931   1.147  0.5753 -0.0399 -2.1761
18718TIP3    H277570   6.405   3.792   1.206  0.6668  0.5057 -0.9049
18719TIP3   OH277571   5.755   5.384  12.749 -0.0727  0.2984  0.5479
18719TIP3    H177572   5.720   5.298  12.728  0.6795  0.1736 -0.2374
18719TIP3    H277573   5.843   5.367  12.782  0.2056  0.7837  0.0654
18720TIP3   OH277574   3.708   0.136   4.758  0.5882 -0.4727 -0.4678
18720TIP3    H177575   3.624   0.133   4.803  0.5968 -0.2698 -0.4344
18720TIP3    H277576   3.713   0.053   4.711  0.1857 -0.3193 -0.7930
18721TIP3   OH277577   2.023   1.179  12.225  0.1900  0.0756  0.3991
18721TIP3    H177578   1.997   1.238  12.154  0.5372 -0.8657 -0.5319
18721TIP3    H277579   2.102   1.219  12.262  0.4752  0.1560 -0.2901
18722TIP3   OH277580   5.370   3.028  12.407  0.7551  0.1186  0.4126
18722TIP3    H177581   5.337   3.041  12.496 -1.3137 -0.3711 -0.2534
18722TIP3    H277582   5.386   3.117  12.375 -0.6434  0.4290  0.5160
18723TIP3   OH277583   3.874   1.163   5.846 -0.1480  0.5505 -0.0977
18723TIP3    H177584   3.958   1.146   5.889  1.1758  0.7600 -2.5317
18723TIP3    H277585   3.864   1.258   5.850 -1.0392  0.3982  1.5681
18724TIP3   OH277586   6.266   3.902   2.330  0.1227  0.5827  0.0572
18724TIP3    H177587   6.268   3.811   2.299  0.3222  0.7135 -0.3167
18724TIP3    H277588   6.233   3.896   2.419  3.1423 -0.1936  1.2098
18725TIP3   OH277589   2.761   3.446   1.860 -0.0661  0.0040  0.0366
18725TIP3    H177590   2.776   3.497   1.780 -2.4269 -0.0036 -0.4583
18725TIP3    H277591   2.829   3.476   1.921  2.0828 -0.3503 -2.1169
18726TIP3   OH277592   0.298   4.721   3.469  0.6888 -0.1346 -0.1028
18726TIP3    H177593   0.326   4.726   3.378  0.2009 -0.8237 -0.2922
18726TIP3    H277594   0.205   4.744   3.466  0.7919  0.3444  0.2883
18727TIP3   OH277595   4.625   5.637   1.217  0.0620  0.5933  0.3634
18727TIP3    H177596   4.717   5.639   1.189  0.2700  1.7830  1.1019
18727TIP3    H277597   4.629   5.622   1.312 -0.5230  0.3383  0.3497
18728TIP3   OH277598   2.865   1.323  11.237  0.1707  0.2820 -0.5652
18728TIP3    H177599   2.827   1.349  11.153 -3.3163 -0.8634  0.5485
18728TIP3    H277600   2.819   1.377  11.302  0.4453 -1.1339  0.8481
18729TIP3   OH277601   1.237   1.811  13.721 -0.0095  0.1161  0.7158
18729TIP3    H177602   1.250   1.768  13.637  0.8362  1.3558  0.1987
18729TIP3    H277603   1.325   1.824  13.756 -0.3945 -1.1602  2.2013
18730TIP3   OH277604   1.658   6.146   2.206 -0.5280  0.1503 -0.2935
18730TIP3    H177605   1.732   6.125   2.149 -0.1130 -0.5030  0.4845
18730TIP3    H277606   1.599   6.072   2.198  0.4942 -0.9058  1.7124
18731TIP3   OH277607   4.787   0.922   2.728  0.8190 -0.2790  0.3989
18731TIP3    H177608   4.699   0.947   2.755  0.5123 -1.6867  0.6996
18731TIP3    H277609   4.843   0.948   2.801  1.0670  3.1912 -0.9308
18732TIP3   OH277610   1.788   6.494   1.208 -0.3894  0.2999  0.1422
18732TIP3    H177611   1.804   6.447   1.127  0.9843 -3.1430  2.2952
18732TIP3    H277612   1.838   6.575   1.199  2.5544 -1.5645 -1.1069
18733TIP3   OH277613   1.691   3.105   4.800 -0.2113 -1.0409  0.3357
18733TIP3    H177614   1.697   3.072   4.890 -0.0479 -0.7689  0.4279
18733TIP3    H277615   1.654   3.193   4.810  3.4889  0.6089  0.5174
18734TIP3   OH277616   1.709   0.721   3.625 -0.4541  0.3807  0.0938
18734TIP3    H177617   1.780   0.781   3.605  0.7463 -0.8832  0.5027
18734TIP3    H277618   1.637   0.749   3.569  0.3312  1.7277 -0.2509
18735TIP3   OH277619   5.823   3.537  12.056 -0.9235  0.3036 -0.1389
18735TIP3    H177620   5.800   3.452  12.093 -2.7791  1.2333  0.9639
18735TIP3    H277621   5.912   3.527  12.024 -1.7545 -2.5899 -1.7126
18736TIP3   OH277622   3.811   6.596   5.452 -0.1120  0.2905  0.2552
18736TIP3    H177623   3.852   6.509   5.445 -0.1762  0.3986 -1.6417
18736TIP3    H277624   3.729   6.580   5.498  0.9479 -0.2809  2.0378
18737TIP3   OH277625   5.165   2.220   3.491  0.1936  0.7151  0.0065
18737TIP3    H177626   5.227   2.293   3.497  1.2332 -0.0647 -0.9150
18737TIP3    H277627   5.212   2.153   3.442 -1.3188  0.0159 -0.5271
18738TIP3   OH277628   2.726   2.312   5.381 -0.3871  0.0949  1.0993
18738TIP3    H177629   2.761   2.227   5.357 -0.7987  0.4367 -0.7880
18738TIP3    H277630   2.800   2.359   5.419  0.7782  0.1432 -1.1165
18739TIP3   OH277631   1.812   3.602   0.642 -0.0218 -0.1612  1.2893
18739TIP3    H177632   1.765   3.519   0.648  0.2266 -0.5611 -1.6064
18739TIP3    H277633   1.749   3.663   0.604  0.8385  0.0822  0.2256
18740TIP3   OH277634   2.856   0.536  12.031 -0.0873  0.1331 -0.4854
18740TIP3    H177635   2.769   0.498  12.039  0.4784 -1.1135 -0.2475
18740TIP3    H277636   2.890   0.534  12.121  1.2423 -1.9063 -1.0157
18741TIP3   OH277637   3.285   0.456   4.276 -0.5037  0.0744 -0.1261
18741TIP3    H177638   3.215   0.465   4.212 -1.4695  0.4570  0.9573
18741TIP3    H277639   3.343   0.530   4.258 -1.4225  0.8967  0.2160
18742TIP3   OH277640   4.330   3.985   2.609  0.5192 -0.2287  0.5789
18742TIP3    H177641   4.272   3.910   2.602  0.5342 -0.2867  1.0571
18742TIP3    H277642   4.413   3.948   2.638  0.8169 -0.1540 -0.1499
18743TIP3   OH277643   3.122   6.761   3.285  0.3148 -0.0572  0.2041
18743TIP3    H177644   3.187   6.711   3.236 -0.5417  1.4491 -2.5494
18743TIP3    H277645   3.154   6.851   3.285 -1.0002  0.4260  0.1286
18744TIP3   OH277646   5.719   1.150   4.725  0.2945  0.5411  0.0880
18744TIP3    H177647   5.776   1.176   4.797 -1.3728 -0.0746  1.6805
18744TIP3    H277648   5.708   1.055   4.737  0.8326  0.2535 -1.5981
18745TIP3   OH277649   3.165   1.005  15.813 -0.1913  0.1734  0.0937
18745TIP3    H177650   3.249   0.961  15.823 -0.5647 -0.6289 -0.2324
18745TIP3    H277651   3.119   0.991  15.896  0.8125  2.4089  1.0607
18746TIP3   OH277652   6.194   5.421  13.032 -0.4074 -0.3956 -0.3036
18746TIP3    H177653   6.279   5.465  13.024 -0.4944  0.2200  1.8895
18746TIP3    H277654   6.159   5.451  13.116 -2.1521 -1.7821 -0.5074
18747TIP3   OH277655   2.610   3.437   6.315  0.0835 -0.5357  0.1092
18747TIP3    H177656   2.702   3.459   6.309 -0.2573  1.2932  1.2985
18747TIP3    H277657   2.570   3.478   6.238  0.1605 -0.9078 -0.1349
18748TIP3   OH277658   4.606   6.028  16.429  0.1940  0.4794  0.4204
18748TIP3    H177659   4.604   6.121  16.451  0.1600  0.7536 -0.6970
18748TIP3    H277660   4.688   6.016  16.380 -0.0082  0.0126  0.1860
18749TIP3   OH277661   0.051   2.163  10.761 -0.1304  0.3217  0.3564
18749TIP3    H177662   0.023   2.205  10.842 -1.0111  3.6636 -1.5910
18749TIP3    H277663   0.144   2.145  10.774 -0.9127 -2.1880  3.2589
18750TIP3   OH277664   0.996   0.429  16.264  0.3928  0.0486 -0.3543
18750TIP3    H177665   1.049   0.505  16.287  0.5790 -0.4119  0.8268
18750TIP3    H277666   0.942   0.458  16.191  1.2254  0.9776 -0.6138
18751TIP3   OH277667   6.567   0.761  16.053 -0.1082 -0.2250  0.0437
18751TIP3    H177668   6.517   0.721  16.124 -0.4990 -1.1052 -0.7106
18751TIP3    H277669   6.651   0.717  16.055 -0.4111 -0.8563 -0.5544
18752TIP3   OH277670   5.315   5.432   2.159  0.7241 -0.3359  0.1386
18752TIP3    H177671   5.269   5.392   2.233  0.4702  0.6428  0.5166
18752TIP3    H277672   5.263   5.510   2.138  1.1055 -0.3038 -0.7193
18753TIP3   OH277673   4.036   4.055   1.571  0.3593 -0.2261 -0.4676
18753TIP3    H177674   4.093   4.053   1.494  1.2734 -0.0708  0.1848
18753TIP3    H277675   4.095   4.082   1.643 -0.6549  0.4441  0.1243
18754TIP3   OH277676   3.897   2.007  12.377 -0.0980 -0.5944  0.6442
18754TIP3    H177677   3.875   1.943  12.444 -0.8971 -0.8591  0.1278
18754TIP3    H277678   3.825   2.004  12.315 -0.5324  1.3438  1.0055
18755TIP3   OH277679   0.377   4.351  14.457  0.1375 -0.4375 -0.0373
18755TIP3    H177680   0.323   4.297  14.400  1.0909  0.4571 -1.8096
18755TIP3    H277681   0.457   4.367  14.407  0.8139  0.7144  1.3784
18756TIP3   OH277682   4.666   0.724  17.084 -0.2863 -0.3700 -0.1737
18756TIP3    H177683   4.637   0.809  17.049  1.2000 -0.1046 -0.7927
18756TIP3    H277684   4.673   0.668  17.007 -0.2977 -0.7650  0.1146
18757TIP3   OH277685   3.515   4.680   4.948  0.1702  0.4008 -0.0772
18757TIP3    H177686   3.576   4.640   4.887  0.1764  0.9594 -0.4408
18757TIP3    H277687   3.429   4.670   4.906  0.2852  1.6162 -0.6247
18758TIP3   OH277688   4.768   0.968  13.555  0.2728 -0.4606  0.1252
18758TIP3    H177689   4.768   0.963  13.650 -1.2022 -1.5217  0.0794
18758TIP3    H277690   4.755   1.061  13.536  0.3658 -0.2750  0.9507
18759TIP3   OH277691   1.734   2.324   2.769  0.5469  0.2450 -0.0834
18759TIP3    H177692   1.725   2.416   2.792 -1.0499  0.1834 -0.3444
18759TIP3    H277693   1.700   2.277   2.845  0.5374 -0.0939 -0.2945
18760TIP3   OH277694   4.179   4.752  12.116 -0.5113  0.3351  0.0227
18760TIP3    H177695   4.107   4.806  12.085 -0.8512  0.0973  0.3913
18760TIP3    H277696   4.235   4.812  12.166 -0.9919  0.3094  0.6022
18761TIP3   OH277697   2.213   4.190   4.280  0.1805  0.4502  0.0773
18761TIP3    H177698   2.293   4.234   4.251  0.5461  0.8057  1.5641
18761TIP3    H277699   2.149   4.261   4.290 -0.2438  0.2076 -0.7871
18762TIP3   OH277700   5.183   6.659  14.565 -0.2447  0.1741 -0.3268
18762TIP3    H177701   5.134   6.622  14.638 -0.5465 -1.2415 -1.2484
18762TIP3    H277702   5.225   6.737  14.602 -1.8251  0.4596  0.8968
18763TIP3   OH277703   4.250   2.401  11.353  0.1017  0.0460 -0.1444
18763TIP3    H177704   4.321   2.458  11.380  0.9159 -0.9564 -0.1263
18763TIP3    H277705   4.276   2.368  11.267 -0.4431 -0.1532 -0.2370
18764TIP3   OH277706   6.588   1.861  15.024  0.2409  0.1356 -0.2740
18764TIP3    H177707   6.632   1.783  14.992 -0.4510 -1.5786  2.7457
18764TIP3    H277708   6.584   1.849  15.119  0.1797  3.8848  0.2717
18765TIP3   OH277709   5.857   1.305   4.161 -0.0823 -0.2990 -0.2304
18765TIP3    H177710   5.788   1.355   4.117 -1.3632 -3.0524 -1.4931
18765TIP3    H277711   5.815   1.270   4.239 -0.3611 -2.5358 -1.3479
18766TIP3   OH277712   2.298   2.505  13.445  0.0690 -0.2818 -0.0576
18766TIP3    H177713   2.290   2.412  13.424 -0.0334 -0.5715  1.2175
18766TIP3    H277714   2.226   2.523  13.505 -0.3378  0.7926 -0.8585
18767TIP3   OH277715   6.462   4.886  10.149  0.0311 -0.1635 -0.0652
18767TIP3    H177716   6.550   4.863  10.119  1.4257  2.1669  2.0046
18767TIP3    H277717   6.426   4.804  10.184  1.6513 -0.9964 -0.3070
18768TIP3   OH277718   4.383   2.821   0.419  0.6859  0.3487 -0.8850
18768TIP3    H177719   4.427   2.891   0.467 -0.4584 -0.0308  0.7544
18768TIP3    H277720   4.343   2.864   0.344  1.6352  1.1272 -0.9507
18769TIP3   OH277721   0.663   1.120  13.567  0.3734  0.5419  0.0572
18769TIP3    H177722   0.712   1.128  13.649  0.5274  1.7095 -0.1391
18769TIP3    H277723   0.730   1.118  13.499  0.2207  0.0936 -0.0857
18770TIP3   OH277724   1.200   1.902  12.841 -0.3188 -0.3394  0.7153
18770TIP3    H177725   1.133   1.952  12.794  1.3985  1.9762  0.6665
18770TIP3    H277726   1.282   1.926  12.800  1.0623  0.5123  3.8350
18771TIP3   OH277727   3.064   4.532  11.038  0.5455 -0.0798 -0.5977
18771TIP3    H177728   3.054   4.442  11.009 -0.2775 -0.1253 -0.1893
18771TIP3    H277729   3.112   4.527  11.120 -0.9493 -0.2843  0.2885
18772TIP3   OH277730   0.407   5.128  11.089 -0.5777 -0.2206  0.2857
18772TIP3    H177731   0.409   5.224  11.089  0.9558 -0.2452  1.1259
18772TIP3    H277732   0.476   5.102  11.149 -1.5501 -1.8610  0.7339
18773TIP3   OH277733   3.416   0.727   4.289 -0.2259  0.1887 -0.0710
18773TIP3    H177734   3.430   0.818   4.315 -3.3772  1.1427 -1.4541
18773TIP3    H277735   3.465   0.717   4.208  1.4475  0.1321  0.9154
18774TIP3   OH277736   3.610   0.215   3.871  0.1174 -0.1698  0.2825
18774TIP3    H177737   3.618   0.298   3.824  0.0497  0.4040  1.2547
18774TIP3    H277738   3.575   0.240   3.957  1.8019 -0.9665  1.2307
18775TIP3   OH277739   4.660   2.167   6.122  0.2382 -0.2431  0.0616
18775TIP3    H177740   4.665   2.238   6.186 -1.8629 -1.4039  1.5669
18775TIP3    H277741   4.704   2.094   6.164  0.8222 -0.3541 -0.7459
18776TIP3   OH277742   2.973   5.812  11.740 -0.2338  0.7801  0.0836
18776TIP3    H177743   2.911   5.742  11.761  2.1768 -1.7640 -0.8606
18776TIP3    H277744   3.008   5.839  11.825  0.5094 -0.8317  0.3093
18777TIP3   OH277745   4.276   3.363   7.096  0.7856 -0.0155  0.0642
18777TIP3    H177746   4.222   3.441   7.110  1.6507  0.5074  0.4752
18777TIP3    H277747   4.303   3.368   7.005  0.7440  0.0951  0.0588
18778TIP3   OH277748   6.420   5.841   5.147 -0.0882 -0.0786 -0.4707
18778TIP3    H177749   6.432   5.778   5.076  0.2972 -0.5874  0.0393
18778TIP3    H277750   6.399   5.787   5.223  1.0821  0.3306  0.1588
18779TIP3   OH277751   4.454   0.977  14.519 -0.0002  0.2536 -0.2946
18779TIP3    H177752   4.523   0.929  14.565  0.6162  1.0380 -0.4027
18779TIP3    H277753   4.398   0.908  14.483 -1.4331 -0.3992  3.0018
18780TIP3   OH277754   1.298   5.443   4.116  0.8164 -0.5149 -0.2779
18780TIP3    H177755   1.229   5.398   4.068 -0.8844  0.6408  1.0411
18780TIP3    H277756   1.361   5.470   4.049 -0.0020 -1.5836 -1.4802
18781TIP3   OH277757   3.196   1.751   1.137  0.1624  0.1440  0.1134
18781TIP3    H177758   3.222   1.661   1.158  1.4500  0.7166  1.0114
18781TIP3    H277759   3.136   1.776   1.207 -1.5639 -0.6053 -1.0727
18782TIP3   OH277760   5.435   4.463  11.632 -0.1781 -0.2029  0.0840
18782TIP3    H177761   5.463   4.549  11.666  1.2216 -0.3905 -0.5529
18782TIP3    H277762   5.485   4.453  11.551 -1.6117 -0.8773 -0.7186
18783TIP3   OH277763   4.692   5.244  14.885 -0.0989  0.3799 -0.2274
18783TIP3    H177764   4.646   5.326  14.868 -0.7026 -0.1666 -1.2279
18783TIP3    H277765   4.780   5.272  14.913 -0.0314  1.3500 -1.3641
18784TIP3   OH277766   1.977   2.197   4.679  0.2280 -0.0734 -0.0273
18784TIP3    H177767   2.064   2.236   4.688  0.2450 -0.0343 -0.3504
18784TIP3    H277768   1.945   2.229   4.594  0.8211 -1.9083 -0.9621
18785TIP3   OH277769   3.379   0.691  15.681 -0.0674  0.1746 -0.5162
18785TIP3    H177770   3.298   0.668  15.635 -0.6262  0.0915  0.4912
18785TIP3    H277771   3.349   0.732  15.761  0.8927 -0.3340  0.1077
18786TIP3   OH277772   1.052   2.926  14.870  0.7010 -0.5323  0.0928
18786TIP3    H177773   1.076   2.885  14.787 -1.3839 -0.3628 -0.6259
18786TIP3    H277774   1.099   3.009  14.870  1.1083 -0.7583 -0.6881
18787TIP3   OH277775   4.925   1.594   6.622  0.7885 -0.1443 -0.1883
18787TIP3    H177776   4.888   1.511   6.651  0.8490  0.2760  1.1410
18787TIP3    H277777   4.877   1.660   6.673  2.0610  0.5125  0.1742
18788TIP3   OH277778   1.325   5.769  12.652 -0.6074 -0.0986  0.0207
18788TIP3    H177779   1.386   5.698  12.673 -1.7778 -0.8218  1.1268
18788TIP3    H277780   1.293   5.748  12.564 -2.0909 -1.8413  0.9232
18789TIP3   OH277781   1.883   1.629   5.340 -0.4549 -0.0040 -0.4721
18789TIP3    H177782   1.932   1.707   5.365 -1.6754  0.8623 -0.7432
18789TIP3    H277783   1.947   1.575   5.293  0.7849  0.1599  0.9773
18790TIP3   OH277784   0.870   4.313   5.912  0.4788  0.2816 -0.0654
18790TIP3    H177785   0.835   4.353   5.992 -3.8708 -3.8131  0.2604
18790TIP3    H277786   0.809   4.339   5.843  0.8472 -1.0521 -0.9089
18791TIP3   OH277787   1.111   1.181   4.431 -0.0979 -0.1043  0.8403
18791TIP3    H177788   1.022   1.194   4.464  0.1881 -0.5418  1.7904
18791TIP3    H277789   1.121   1.248   4.363 -1.8512 -1.3236 -0.6876
18792TIP3   OH277790   2.546   6.350   2.605 -0.2333  0.6037 -0.2302
18792TIP3    H177791   2.535   6.342   2.511 -1.6351 -0.6900  0.0204
18792TIP3    H277792   2.633   6.388   2.616  0.0611  0.4873 -2.0236
18793TIP3   OH277793   0.833   4.309   6.708 -0.2242  0.6093 -0.0832
18793TIP3    H177794   0.906   4.320   6.647  1.4457 -0.9735  1.5571
18793TIP3    H277795   0.866   4.344   6.791 -1.5823  0.4799  0.5259
18794TIP3   OH277796   0.207   5.099   1.554  0.5103 -0.1385  0.1515
18794TIP3    H177797   0.294   5.135   1.539 -0.0898  1.2884 -0.0090
18794TIP3    H277798   0.182   5.129   1.641 -0.1263  0.1032 -0.1066
18795TIP3   OH277799   5.977   2.651  12.085 -0.2199 -0.5648 -0.3137
18795TIP3    H177800   6.072   2.640  12.096 -0.1105 -0.2208 -0.9053
18795TIP3    H277801   5.952   2.711  12.155  0.4437  1.4588 -1.7658
18796TIP3   OH277802   1.429   2.691  15.094  0.2833 -0.2373  0.2913
18796TIP3    H177803   1.464   2.633  15.162  1.2764 -1.4960 -1.2467
18796TIP3    H277804   1.437   2.640  15.013 -0.7566  1.2751 -0.7864
18797TIP3   OH277805   1.373   2.490   5.288  0.3074 -0.0166 -0.7454
18797TIP3    H177806   1.461   2.492   5.324  0.2856 -2.0728 -0.5413
18797TIP3    H277807   1.321   2.540   5.351  1.0189 -0.1911 -0.0055
18798TIP3   OH277808   3.439   5.430   0.879 -0.3671  0.1747 -0.0772
18798TIP3    H177809   3.531   5.417   0.902 -0.8624 -1.5237  1.0358
18798TIP3    H277810   3.397   5.346   0.898 -1.2664 -0.7169 -5.2065
18799TIP3   OH277811   4.650   1.257  17.228  0.3599  0.3881 -0.4156
18799TIP3    H177812   4.556   1.262  17.246  0.0567 -0.2532 -1.7956
18799TIP3    H277813   4.675   1.168  17.256  0.4150  0.3143 -0.6968
18800TIP3   OH277814   0.963   3.270  12.503 -0.1853 -0.1233  0.1234
18800TIP3    H177815   1.038   3.210  12.510  0.0763  0.3126  1.0486
18800TIP3    H277816   0.971   3.307  12.415 -1.0133 -2.3093 -0.9250
18801TIP3   OH277817   2.677   3.183   0.532  0.6196  0.1756  0.1215
18801TIP3    H177818   2.652   3.095   0.505 -0.6662 -0.7546  3.9531
18801TIP3    H277819   2.618   3.241   0.483  2.3670 -0.9238 -3.4309
18802TIP3   OH277820   0.309   0.309   4.514  0.2819 -0.0244  0.1570
18802TIP3    H177821   0.323   0.381   4.576  1.4558 -0.7770  0.7940
18802TIP3    H277822   0.392   0.262   4.514 -0.2599 -0.9913 -0.7613
18803TIP3   OH277823   0.900   3.576   1.970 -0.5865  0.2925 -0.2164
18803TIP3    H177824   0.865   3.514   2.034  0.6285  0.4884  0.6745
18803TIP3    H277825   0.928   3.522   1.896 -0.5182 -0.1224  0.1081
18804TIP3   OH277826   3.147   5.405   0.046  0.4418 -0.1015  0.5393
18804TIP3    H177827   3.066   5.401   0.097 -0.9767  3.3994 -1.2215
18804TIP3    H277828   3.213   5.436   0.108  0.2724 -2.1319  1.7741
18805TIP3   OH277829   0.405   0.066   4.185 -0.5549 -0.3509 -0.5208
18805TIP3    H177830   0.449   0.149   4.167 -0.3595  0.1141  1.9203
18805TIP3    H277831   0.317   0.091   4.213 -0.7158 -1.0043 -0.4390
18806TIP3   OH277832   0.187   0.132  14.034  0.2287  0.4583  0.0963
18806TIP3    H177833   0.232   0.104  13.955 -0.8418 -1.4585  0.1321
18806TIP3    H277834   0.251   0.186  14.080  1.5231  0.0285 -1.1605
18807TIP3   OH277835   3.119   1.425   1.865  0.8385  0.3849  0.0521
18807TIP3    H177836   3.152   1.468   1.786  0.0989  0.7862 -0.0424
18807TIP3    H277837   3.094   1.498   1.922  0.4107  0.0823  0.2465
18808TIP3   OH277838   2.315   2.094  12.424 -0.1530 -0.0857  0.2257
18808TIP3    H177839   2.293   2.177  12.467 -1.7622 -0.8518  0.9253
18808TIP3    H277840   2.255   2.089  12.350  1.4656  0.4192 -1.1532
18809TIP3   OH277841   3.977   2.387   5.890 -0.0119 -0.1174 -0.1936
18809TIP3    H177842   3.997   2.480   5.876  1.4279 -0.0024  2.3118
18809TIP3    H277843   4.042   2.340   5.839  0.1486  0.2443 -0.3228
18810TIP3   OH277844   2.145   4.404  14.762 -0.5462  0.0825  0.9366
18810TIP3    H177845   2.164   4.402  14.856  0.6025  0.6282  0.7275
18810TIP3    H277846   2.064   4.454  14.755 -0.1718  0.7945  1.5747
18811TIP3   OH277847   6.213   1.967  11.239 -0.3059 -0.4614 -0.3373
18811TIP3    H177848   6.178   1.897  11.293 -3.0980 -0.2618 -1.7632
18811TIP3    H277849   6.298   1.935  11.209 -1.7274 -3.4356 -1.3109
18812TIP3   OH277850   1.783   0.664  16.375  0.0025  0.0941  0.2548
18812TIP3    H177851   1.759   0.753  16.350 -1.2080 -0.1055  0.6547
18812TIP3    H277852   1.771   0.663  16.470 -1.3672 -0.8888  0.0878
18813TIP3   OH277853   5.952   4.051  14.353 -0.1124  0.4773  0.0797
18813TIP3    H177854   6.019   4.036  14.286 -0.6737 -1.1710 -0.1361
18813TIP3    H277855   5.912   4.134  14.329  0.5431  0.5142 -0.9084
18814TIP3   OH277856   1.461   3.343  15.033 -0.1929 -0.4420  0.2498
18814TIP3    H177857   1.512   3.424  15.036 -0.1865 -0.4952  1.7821
18814TIP3    H277858   1.524   3.275  15.010  0.1972 -0.3250  0.9707
18815TIP3   OH277859   4.456   3.420   3.986  0.5344  0.3968 -0.2148
18815TIP3    H177860   4.496   3.333   3.985 -0.7646 -0.2610  1.7390
18815TIP3    H277861   4.434   3.435   4.078  3.1342  3.9241 -0.0725
18816TIP3   OH277862   0.540   5.853   2.326  0.3423 -0.0755  0.1489
18816TIP3    H177863   0.559   5.936   2.281  3.1973 -1.8500 -2.1001
18816TIP3    H277864   0.573   5.865   2.415  1.2132  1.0145 -0.3212
18817TIP3   OH277865   0.917   2.388  15.285  0.1446 -0.3350  0.3353
18817TIP3    H177866   0.899   2.437  15.205  1.0840 -0.7473 -0.1350
18817TIP3    H277867   0.837   2.338  15.302 -0.6303  0.9549  0.5315
18818TIP3   OH277868   1.836   3.071  14.741 -0.0525  0.6096 -0.0021
18818TIP3    H177869   1.829   3.128  14.665 -1.8705  0.4230  0.0020
18818TIP3    H277870   1.923   3.032  14.735  0.3887  1.7680 -1.1447
18819TIP3   OH277871   5.821   5.184  15.983 -0.0817  0.2592  0.1975
18819TIP3    H177872   5.860   5.263  16.022 -2.6597  1.2668  0.8082
18819TIP3    H277873   5.879   5.164  15.909  2.9550  0.2887  2.4485
18820TIP3   OH277874   5.472   0.530   1.803 -0.0144  0.2265  0.7358
18820TIP3    H177875   5.554   0.488   1.775  0.8030  2.1467  0.1628
18820TIP3    H277876   5.403   0.470   1.774  0.9659  0.7069 -2.7749
18821TIP3   OH277877   5.072   3.237   2.757 -0.3415  0.2212 -0.3163
18821TIP3    H177878   5.100   3.234   2.666 -1.2811  1.0486 -0.6370
18821TIP3    H277879   4.977   3.228   2.754 -0.2846 -0.8308  0.6522
18822TIP3   OH277880   3.638   5.205  13.190 -0.3599  0.0336 -0.2537
18822TIP3    H177881   3.588   5.190  13.269 -0.8556 -2.9819 -1.0823
18822TIP3    H277882   3.573   5.215  13.121  0.1127  0.1137 -0.6986
18823TIP3   OH277883   2.629   3.600   1.119  0.4212 -0.3752 -0.0056
18823TIP3    H177884   2.630   3.691   1.148 -1.0532 -0.4128  0.1813
18823TIP3    H277885   2.658   3.605   1.027  2.3342  0.0384  0.5852
18824TIP3   OH277886   0.093   3.796   4.900 -0.1691 -0.0330  0.2481
18824TIP3    H177887   0.169   3.825   4.851 -2.4695  3.7350 -1.3311
18824TIP3    H277888   0.068   3.713   4.859  2.1850 -0.5763 -0.1525
18825TIP3   OH277889   4.080   2.254   0.661 -0.1294  0.0614 -0.0644
18825TIP3    H177890   3.997   2.214   0.637 -0.7860  0.3471  1.6675
18825TIP3    H277891   4.109   2.204   0.738  0.3139  1.2499  0.5411
18826TIP3   OH277892   0.082   1.190  11.600 -0.7272  0.7156 -0.7309
18826TIP3    H177893   0.028   1.130  11.549 -0.4039  4.2172 -5.4194
18826TIP3    H277894   0.022   1.259  11.627  0.2325  1.6100 -0.8856
18827TIP3   OH277895   4.750   5.181  13.951  0.2474 -0.0163  0.3926
18827TIP3    H177896   4.750   5.109  13.889  2.2613  0.7068 -0.4834
18827TIP3    H277897   4.808   5.153  14.021  0.8010  0.6281  0.1935
18828TIP3   OH277898   2.131   4.358   3.805  0.2253 -0.2043  0.0516
18828TIP3    H177899   2.117   4.441   3.759 -1.0611  0.3138  1.3516
18828TIP3    H277900   2.046   4.315   3.805 -0.0248  0.2102  2.6974
18829TIP3   OH277901   0.790   4.698   2.262 -0.6007 -0.9650 -0.2339
18829TIP3    H177902   0.824   4.627   2.317  1.2693  2.1655  2.8122
18829TIP3    H277903   0.702   4.713   2.294 -0.8719 -1.6430 -0.6465
18830TIP3   OH277904   4.296   4.246   4.175 -0.2905  0.4355 -0.0479
18830TIP3    H177905   4.365   4.184   4.153 -2.0272 -1.4590 -0.3552
18830TIP3    H277906   4.300   4.253   4.270  0.0288 -0.0455 -0.0206
18831TIP3   OH277907   5.948   6.194  12.017  0.0333 -1.0735 -0.2021
18831TIP3    H177908   6.027   6.140  12.026  1.9697  1.4438 -1.6015
18831TIP3    H277909   5.912   6.169  11.931  3.1118  2.4560 -2.7115
18832TIP3   OH277910   4.294   0.726   3.202 -0.4640  0.4465 -0.2093
18832TIP3    H177911   4.250   0.641   3.213  0.6225 -0.0909  0.0069
18832TIP3    H277912   4.267   0.776   3.279 -1.4372  0.4482 -0.5418
18833TIP3   OH277913   6.678   2.861  14.282 -0.2036  0.3934  0.1545
18833TIP3    H177914   6.667   2.878  14.376  1.9931 -0.8810  0.6736
18833TIP3    H277915   6.645   2.772  14.270 -1.1115  0.8039 -0.4228
18834TIP3   OH277916   4.609   5.792   0.369  0.2124 -0.1893 -0.7476
18834TIP3    H177917   4.575   5.763   0.454  1.0754 -1.4739 -0.8232
18834TIP3    H277918   4.699   5.819   0.387 -0.1521  1.2089 -0.9414
18835TIP3   OH277919   6.680   2.498  11.749 -0.8755  0.6180  0.0703
18835TIP3    H177920   6.761   2.479  11.797 -0.1561  2.4248 -0.3950
18835TIP3    H277921   6.611   2.456  11.801  0.1478  0.6785  1.5103
18836TIP3   OH277922   0.067   4.481  13.186  0.0119  0.1288 -0.2876
18836TIP3    H177923   0.138   4.417  13.180 -0.6827 -0.8451  1.2583
18836TIP3    H277924   0.110   4.563  13.210  0.7079 -0.2702 -0.1633
18837TIP3   OH277925   0.186   2.951   4.657 -0.2763  0.9330 -0.5137
18837TIP3    H177926   0.198   2.899   4.736 -1.1541  1.7308  0.1537
18837TIP3    H277927   0.116   3.012   4.679  0.8530  2.5158 -1.2224
18838TIP3   OH277928   2.307   5.581   2.084  0.3882 -0.5328 -0.3723
18838TIP3    H177929   2.385   5.605   2.034  1.5334 -1.3477  0.9923
18838TIP3    H277930   2.295   5.487   2.066 -0.0572 -0.4964 -0.2782
18839TIP3   OH277931   1.423   5.880   2.728 -0.2150  0.1813  0.1628
18839TIP3    H177932   1.455   5.791   2.712 -1.9892 -0.1613 -1.6480
18839TIP3    H277933   1.329   5.869   2.746 -0.2239  1.5869  1.0850
18840TIP3   OH277934   2.561   3.059   4.830 -0.2798  0.4009 -0.1464
18840TIP3    H177935   2.638   3.002   4.817  0.4862  1.7266 -1.6178
18840TIP3    H277936   2.528   3.074   4.741 -2.9988 -1.1187  0.5465
18841TIP3   OH277937   3.888   3.110  16.223  0.0901  0.1731  0.1823
18841TIP3    H177938   3.873   3.163  16.300 -1.0919  0.0055  0.0794
18841TIP3    H277939   3.982   3.113  16.209  0.1852  1.0582  1.0114
18842TIP3   OH277940   6.460   1.409   0.957  0.2994  0.4312  0.0999
18842TIP3    H177941   6.393   1.365   1.009  2.0146  0.7631  2.6979
18842TIP3    H277942   6.422   1.493   0.934 -0.2973  0.4862  1.2676
18843TIP3   OH277943   3.860   0.262  15.313  0.4871 -0.2225  0.6526
18843TIP3    H177944   3.887   0.348  15.280  2.5159  0.2835  3.4475
18843TIP3    H277945   3.769   0.253  15.284  0.5358  2.4691 -0.4747
18844TIP3   OH277946   1.727   6.602   4.556 -0.3901 -0.5464  0.5366
18844TIP3    H177947   1.642   6.563   4.533 -1.0702  1.1945 -0.0070
18844TIP3    H277948   1.706   6.691   4.583  1.2622 -0.1419  0.5527
18845TIP3   OH277949   2.287   6.592   2.119 -0.1060  0.4625  0.5272
18845TIP3    H177950   2.235   6.643   2.058 -0.6659 -0.1245  0.5159
18845TIP3    H277951   2.243   6.604   2.204  0.1151  0.4918  0.6396
18846TIP3   OH277952   0.102   6.008  16.075 -0.2171 -0.3558  0.4075
18846TIP3    H177953   0.181   6.015  16.021 -1.1713 -0.8134 -1.0822
18846TIP3    H277954   0.122   5.940  16.139  0.6268 -0.4024  0.0966
18847TIP3   OH277955   3.467   6.356   2.056  0.6520 -0.4045  0.3000
18847TIP3    H177956   3.557   6.324   2.045  1.1300  0.9494  0.0885
18847TIP3    H277957   3.444   6.333   2.146  2.1059  1.3508  1.1476
18848TIP3   OH277958   2.285   6.522   6.130  0.3653 -0.1991  0.1088
18848TIP3    H177959   2.357   6.537   6.068 -0.2678  1.5182 -0.2280
18848TIP3    H277960   2.324   6.468   6.199  1.8128  0.1613 -0.4021
18849TIP3   OH277961   1.556   2.648   0.461 -0.5430  0.6933  0.0435
18849TIP3    H177962   1.548   2.569   0.515  0.1270 -1.2716 -2.6033
18849TIP3    H277963   1.559   2.720   0.524 -2.6250 -1.2437  2.4945
18850TIP3   OH277964   0.592   2.627  12.596  1.0786 -0.4812  0.1148
18850TIP3    H177965   0.641   2.676  12.663  0.8735  0.0664 -0.1290
18850TIP3    H277966   0.603   2.679  12.517 -0.1360 -0.2056  0.1205
18851TIP3   OH277967   5.365   0.470   0.505 -0.4608  0.1587  0.3909
18851TIP3    H177968   5.319   0.548   0.535 -0.4060  0.5568 -0.5567
18851TIP3    H277969   5.454   0.501   0.487 -1.1075  0.4729 -2.5175
18852TIP3   OH277970   5.614   4.055  10.930  0.8108 -0.2814  0.5672
18852TIP3    H177971   5.547   4.060  10.999  1.2354  2.3300  0.8307
18852TIP3    H277972   5.680   3.996  10.966  1.4315  1.6823  2.8181
18853TIP3   OH277973   1.160   3.798   3.402  0.0542 -0.2419 -0.1417
18853TIP3    H177974   1.142   3.715   3.445  0.7656  0.1448  0.9254
18853TIP3    H277975   1.129   3.865   3.463  1.4816  0.3234 -0.0187
18854TIP3   OH277976   1.149   2.708  15.921 -0.6336 -0.1334 -0.1782
18854TIP3    H177977   1.200   2.632  15.892  1.1696  1.1923 -0.5249
18854TIP3    H277978   1.095   2.731  15.845 -1.0522 -0.9475 -0.1327
18855TIP3   OH277979   5.735   5.560  16.215  0.0662  0.6760 -0.1271
18855TIP3    H177980   5.814   5.596  16.256 -1.6354  2.6023  1.5179
18855TIP3    H277981   5.709   5.627  16.151  1.1209 -1.0705 -2.4779
18856TIP3   OH277982   2.670   6.668   3.260 -0.5244 -0.1174 -0.3056
18856TIP3    H177983   2.724   6.593   3.286 -3.0506 -1.9171 -0.1509
18856TIP3    H277984   2.641   6.706   3.343  0.7278  1.0636 -0.3846
18857TIP3   OH277985   0.499   1.449  12.233 -0.4907  0.2379 -0.4710
18857TIP3    H177986   0.476   1.524  12.289 -1.7955 -1.3555  1.1603
18857TIP3    H277987   0.423   1.437  12.177 -0.7679 -0.6198  0.0911
18858TIP3   OH277988   6.107   3.057   5.532  0.1679 -0.1993  0.1530
18858TIP3    H177989   6.078   2.985   5.476  0.4532 -1.1362  1.1860
18858TIP3    H277990   6.027   3.107   5.550 -0.1530 -0.6377 -0.0434
18859TIP3   OH277991   1.561   4.009  11.501  0.1626 -0.4082 -0.4960
18859TIP3    H177992   1.571   4.012  11.596  2.6968 -0.2659 -0.7336
18859TIP3    H277993   1.515   3.927  11.484  0.2642 -0.7422  0.8219
18860TIP3   OH277994   6.318   6.684  13.939 -0.2166  0.3760 -0.3486
18860TIP3    H177995   6.372   6.654  14.012 -0.1859  1.3186  0.0156
18860TIP3    H277996   6.375   6.676  13.863 -0.2514 -0.6157 -0.2741
18861TIP3   OH277997   0.823   3.245   2.947 -0.1430 -0.4465  0.1511
18861TIP3    H177998   0.884   3.295   3.000  0.3221 -1.5594  0.6910
18861TIP3    H277999   0.806   3.299   2.871  0.7086  0.3143  0.5041
18862TIP3   OH278000   5.581   3.414   5.238 -0.0093  0.0538 -0.2642
18862TIP3    H178001   5.646   3.424   5.307 -1.6441 -0.3553  1.3868
18862TIP3    H278002   5.603   3.331   5.195 -0.5092 -0.9965  1.4826
18863TIP3   OH278003   3.128   0.451  11.356 -0.5885 -0.3457  0.7475
18863TIP3    H178004   3.047   0.491  11.389  0.1972  2.2702 -0.3507
18863TIP3    H278005   3.175   0.423  11.435 -1.1252  1.0394  1.5688
18864TIP3   OH278006   4.111   6.178   0.410 -0.0233 -0.4380  0.1563
18864TIP3    H178007   4.122   6.253   0.351 -0.1983  0.1097  0.8199
18864TIP3    H278008   4.081   6.107   0.353  0.2717 -0.0429 -0.4966
18865TIP3   OH278009   1.877   1.991  17.162  0.3169  0.3795 -0.5870
18865TIP3    H178010   1.925   2.070  17.137 -0.2498  0.7903 -0.4108
18865TIP3    H278011   1.785   2.019  17.164 -0.0267 -0.6106 -1.7694
18866TIP3   OH278012   1.626   2.506  17.003  0.2207 -0.4528  0.2682
18866TIP3    H178013   1.709   2.460  17.017 -0.7652 -2.3373  0.0739
18866TIP3    H278014   1.622   2.570  17.074  1.4562 -0.9154  0.7704
18867TIP3   OH278015   6.484   2.078  11.531 -0.0621  0.1659 -0.4898
18867TIP3    H178016   6.573   2.101  11.559 -0.2460  1.3043 -0.8056
18867TIP3    H278017   6.491   2.065  11.436 -0.4049  1.1218 -0.6474
18868TIP3   OH278018   5.874   3.870  10.548 -0.1253 -0.0384  0.1722
18868TIP3    H178019   5.800   3.932  10.555 -0.1769  0.2909 -2.5192
18868TIP3    H278020   5.844   3.792  10.593 -1.2370  0.8887  1.0761
18869TIP3   OH278021   1.914   1.925   3.814 -0.2523  0.3578  0.5334
18869TIP3    H178022   1.967   1.902   3.890  2.6332 -2.8678 -2.2907
18869TIP3    H278023   1.830   1.882   3.830  1.5615 -3.4706  0.2731
18870TIP3   OH278024   6.338   2.994   5.646 -0.5328 -0.1396  0.5641
18870TIP3    H178025   6.325   3.047   5.725 -0.6890  1.0929 -0.2816
18870TIP3    H278026   6.252   2.987   5.606  0.1536  2.2728 -1.3962
18871TIP3   OH278027   4.380   5.170   4.847 -0.2240  0.0863 -0.2087
18871TIP3    H178028   4.403   5.248   4.897  0.7760 -0.9177  0.9308
18871TIP3    H278029   4.447   5.105   4.871 -0.0612 -0.6032 -2.3978
18872TIP3   OH278030   0.276   5.574  15.332 -0.2583 -0.1509  0.5689
18872TIP3    H178031   0.192   5.605  15.366 -0.2345  1.2480 -0.5879
18872TIP3    H278032   0.338   5.643  15.356  0.3265 -0.5823  0.3127
18873TIP3   OH278033   6.600   1.817  15.844  0.2730  0.3611  0.3588
18873TIP3    H178034   6.607   1.842  15.936  0.1496 -0.7199  0.6713
18873TIP3    H278035   6.689   1.793  15.819  0.4539  1.4613 -0.0400
18874TIP3   OH278036   2.840   1.793   5.388  0.0257 -0.5967 -0.0177
18874TIP3    H178037   2.895   1.865   5.417 -0.2751 -1.0520  1.7848
18874TIP3    H278038   2.756   1.834   5.365  0.3833 -0.1803 -0.5728
18875TIP3   OH278039   3.387   3.699  15.216  0.5096  0.2325 -0.4950
18875TIP3    H178040   3.345   3.785  15.220  0.5210  0.2855 -1.4828
18875TIP3    H278041   3.314   3.637  15.205  0.5316  0.1502 -0.1795
18876TIP3   OH278042   5.996   4.832  13.279 -0.3405 -0.3962  0.0170
18876TIP3    H178043   6.013   4.745  13.315 -1.9823  0.0678  2.0501
18876TIP3    H278044   6.081   4.876  13.280  0.1678 -1.3798  0.6660
18877TIP3   OH278045   2.433   4.247   3.116 -0.6439  0.2917  0.4905
18877TIP3    H178046   2.424   4.236   3.211  0.7553 -0.4471  0.5357
18877TIP3    H278047   2.463   4.337   3.105  0.8958 -0.1752  0.8464
18878TIP3   OH278048   1.909   0.469  17.111  0.0297 -0.4164  0.6159
18878TIP3    H178049   1.858   0.389  17.099 -1.0891  0.5813 -1.4750
18878TIP3    H278050   1.844   0.539  17.113  1.0458  0.5291  1.7940
18879TIP3   OH278051   0.437   1.591   5.075 -0.2627  0.1617  0.0910
18879TIP3    H178052   0.472   1.647   5.005 -1.3434  1.4519  0.5503
18879TIP3    H278053   0.354   1.558   5.041 -1.2306  1.5168  1.0797
18880TIP3   OH278054   0.055   2.403  15.912  0.5169  0.1783  0.2611
18880TIP3    H178055   0.036   2.411  15.819  0.3409 -0.3607  0.2498
18880TIP3    H278056   0.150   2.396  15.917  0.7044  2.5474  0.2954
18881TIP3   OH278057   3.397   6.469  12.884 -0.7487  0.0294 -0.4443
18881TIP3    H178058   3.424   6.532  12.817 -1.1564  0.5892 -0.0914
18881TIP3    H278059   3.418   6.383  12.847  2.7166  0.4533  0.2956
18882TIP3   OH278060   4.366   6.374  13.456 -0.1689 -0.2519 -0.1230
18882TIP3    H178061   4.406   6.435  13.394 -1.0284  1.1836  0.7027
18882TIP3    H278062   4.384   6.412  13.542 -1.5083 -0.6673  0.3580
18883TIP3   OH278063   0.523   3.974   2.172 -0.6289 -0.3173 -0.4294
18883TIP3    H178064   0.511   3.897   2.117 -1.0719 -0.0539 -0.7029
18883TIP3    H278065   0.442   4.024   2.162 -0.4058  0.1061 -0.1353
18884TIP3   OH278066   1.608   0.927  15.274 -0.1773 -0.3795 -0.3991
18884TIP3    H178067   1.532   0.870  15.286 -1.1861  0.7935 -1.0650
18884TIP3    H278068   1.622   0.967  15.360  0.8976 -2.0536  0.2215
18885TIP3   OH278069   0.906   5.376   3.938  0.4952 -0.0952  0.0509
18885TIP3    H178070   0.974   5.420   3.886  0.6656 -0.4817 -0.0539
18885TIP3    H278071   0.829   5.432   3.929  0.9457  0.6156  0.5917
18886TIP3   OH278072   5.220   2.530   0.682  0.1231 -0.3164 -0.0968
18886TIP3    H178073   5.281   2.474   0.632 -0.0682  0.1535 -0.8585
18886TIP3    H278074   5.175   2.581   0.616 -0.8532 -0.4028  0.4968
18887TIP3   OH278075   4.875   0.715   3.514 -0.0147  0.7282  0.5155
18887TIP3    H178076   4.890   0.792   3.458 -1.9730  1.8977  1.5465
18887TIP3    H278077   4.959   0.700   3.557  0.5425  1.9578 -0.1149
18888TIP3   OH278078   5.423   2.319  13.400 -0.3580 -0.3149  0.3608
18888TIP3    H178079   5.426   2.411  13.427  0.2152  0.1564 -1.2217
18888TIP3    H278080   5.330   2.300  13.388 -0.3495  0.9152 -2.0130
18889TIP3   OH278081   2.411   4.943   5.133  0.6049 -0.0706  0.0092
18889TIP3    H178082   2.361   4.931   5.214  0.9151  0.7169  0.3184
18889TIP3    H278083   2.359   4.898   5.067 -0.3365  0.4217  0.3974
18890TIP3   OH278084   2.814   4.536   1.604  0.3479 -0.2317  0.1335
18890TIP3    H178085   2.755   4.492   1.665 -1.8188 -0.6764 -2.1965
18890TIP3    H278086   2.841   4.468   1.543  0.0625  0.8316 -1.2081
18891TIP3   OH278087   6.041   5.217   0.072 -0.1585  0.9351  0.1905
18891TIP3    H178088   6.084   5.274   0.007 -0.1286 -0.2266 -0.8323
18891TIP3    H278089   6.076   5.130   0.054 -1.9219  0.1905  0.2130
18892TIP3   OH278090   5.117   0.489   2.267  0.3864  0.0265  0.3361
18892TIP3    H178091   5.069   0.562   2.307  0.2586 -0.2623  0.7125
18892TIP3    H278092   5.048   0.431   2.235  0.4647  1.3704 -2.3893
18893TIP3   OH278093   5.338   5.862   1.403  0.4204  0.3330 -0.4729
18893TIP3    H178094   5.370   5.923   1.470  0.8741  0.8852 -1.1854
18893TIP3    H278095   5.249   5.892   1.384 -0.0454 -0.3614  0.5022
18894TIP3   OH278096   3.376   6.607   1.574 -0.1194  0.2110 -0.0660
18894TIP3    H178097   3.466   6.639   1.581 -0.2103  0.8947 -1.8810
18894TIP3    H278098   3.356   6.575   1.662  1.4226  1.2862  0.7052
18895TIP3   OH278099   5.596   4.932   0.378 -0.3617 -1.2165  0.1689
18895TIP3    H178100   5.520   4.942   0.434 -1.2751 -1.9042 -0.9263
18895TIP3    H278101   5.563   4.888   0.300  0.9378 -0.5248 -0.7963
18896TIP3   OH278102   4.476   1.757   2.131 -0.0165  0.2422  0.1472
18896TIP3    H178103   4.568   1.759   2.104 -0.0991 -2.8091 -0.5929
18896TIP3    H278104   4.428   1.739   2.051 -1.2300  1.1706  0.6441
18897TIP3   OH278105   5.256   6.103  16.443 -0.1856  0.4268  0.1783
18897TIP3    H178106   5.221   6.142  16.363 -0.1858  0.4964  0.2107
18897TIP3    H278107   5.266   6.176  16.503 -1.1881  0.2155  0.6081
18898TIP3   OH278108   6.636   3.609  15.216 -0.0246  0.5077  0.2727
18898TIP3    H178109   6.720   3.654  15.223 -0.6902  1.8909 -0.5450
18898TIP3    H278110   6.572   3.669  15.255 -0.7459 -0.2301  0.2546
18899TIP3   OH278111   1.952   3.076   2.098 -0.5035 -0.3271 -0.4710
18899TIP3    H178112   2.031   3.052   2.147  0.0341  0.3094 -1.0141
18899TIP3    H278113   1.884   3.020   2.134  0.2390 -1.0205 -0.1261
18900TIP3   OH278114   6.285   6.783   5.034  0.3224 -0.2423  0.3367
18900TIP3    H178115   6.345   6.708   5.042  0.4188 -0.2451 -0.4186
18900TIP3    H278116   6.303   6.836   5.112  1.6366 -0.0085 -0.1142
18901TIP3   OH278117   1.601   6.008   2.881  0.2353 -0.7199 -0.3307
18901TIP3    H178118   1.595   5.951   2.804  0.7806  0.9881 -1.6774
18901TIP3    H278119   1.637   6.090   2.847  0.6303  0.0159  1.7888
18902TIP3   OH278120   2.818   1.537   4.797  0.8683 -0.4785  0.0021
18902TIP3    H178121   2.824   1.594   4.874  1.4495 -0.5724  0.0261
18902TIP3    H278122   2.837   1.449   4.831 -0.4591 -0.7602  0.0519
18903TIP3   OH278123   4.873   1.755  16.181 -0.4630  0.7726 -0.6147
18903TIP3    H178124   4.852   1.808  16.258  1.7011 -0.4010  0.8436
18903TIP3    H278125   4.824   1.674  16.194  1.6420 -0.3328  0.7254
18904TIP3   OH278126   1.809   2.033  15.260  0.1981  0.7683  0.3159
18904TIP3    H178127   1.847   2.045  15.347  0.8031 -1.3907  0.3784
18904TIP3    H278128   1.876   2.068  15.200  1.0590 -0.3934  0.5780
18905TIP3   OH278129   5.110   6.623   4.238  0.4441  0.0079  0.1206
18905TIP3    H178130   5.194   6.640   4.280  0.0998  0.1307  0.7745
18905TIP3    H278131   5.081   6.709   4.207  0.6624 -0.0705 -0.3124
18906TIP3   OH278132   3.679   3.401  16.324 -0.3430  0.3321  0.0342
18906TIP3    H178133   3.587   3.423  16.313 -0.9452 -3.2023 -2.8710
18906TIP3    H278134   3.679   3.313  16.362  1.8436  0.2341 -0.0733
18907TIP3   OH278135   1.769   2.311   2.417  0.0194 -0.0904 -0.1559
18907TIP3    H178136   1.686   2.351   2.393  1.0344  2.6110  0.5754
18907TIP3    H278137   1.790   2.349   2.503  1.8524 -0.9235 -0.2146
18908TIP3   OH278138   0.259   3.336  13.363  0.1147  0.8511 -0.1849
18908TIP3    H178139   0.238   3.266  13.301 -0.8671  0.2248  0.8399
18908TIP3    H278140   0.322   3.298  13.422 -0.6907  0.7100  0.5924
18909TIP3   OH278141   2.650   3.992   3.241 -0.0267  0.0110 -0.3912
18909TIP3    H178142   2.595   3.960   3.312 -1.2775  0.1874 -1.2594
18909TIP3    H278143   2.676   4.080   3.269 -0.4402  0.0450 -0.1028
18910TIP3   OH278144   4.883   3.795  15.000  0.0486  0.6540  0.4491
18910TIP3    H178145   4.797   3.838  15.004  0.9534  2.4111  1.6478
18910TIP3    H278146   4.920   3.809  15.087  2.7384  2.4082 -0.9262
18911TIP3   OH278147   6.068   3.925   6.138  0.2227 -0.2446 -0.5572
18911TIP3    H178148   6.135   3.862   6.113 -0.9736 -1.2671 -1.2774
18911TIP3    H278149   6.078   3.935   6.232  1.7092 -0.0027 -0.7369
18912TIP3   OH278150   2.311   5.384  15.532 -0.4490  0.5753 -0.3847
18912TIP3    H178151   2.361   5.316  15.487  0.9681  1.2032  0.2296
18912TIP3    H278152   2.372   5.421  15.595 -1.4955  1.8068 -0.0847
18913TIP3   OH278153   5.792   0.811   6.436  0.0059 -0.6058 -0.4108
18913TIP3    H178154   5.754   0.899   6.435 -0.0958 -0.6215  0.8711
18913TIP3    H278155   5.868   0.818   6.493  0.5304 -1.1438 -1.0386
18914TIP3   OH278156   5.982   5.416  15.590 -0.1044 -0.1978  0.1442
18914TIP3    H178157   6.070   5.436  15.558 -0.3245  0.6070  0.0389
18914TIP3    H278158   5.926   5.484  15.552 -1.1060 -1.8119 -1.3830
18915TIP3   OH278159   5.857   0.256   0.578  0.0887 -0.6681 -0.2110
18915TIP3    H178160   5.857   0.206   0.660  1.1571  1.2347  0.9880
18915TIP3    H278161   5.948   0.257   0.550 -0.0696 -0.1444 -0.7038
18916TIP3   OH278162   3.470   1.719  11.550  0.0765  0.1421  0.4473
18916TIP3    H178163   3.494   1.731  11.458 -0.5335  1.3030  0.4209
18916TIP3    H278164   3.536   1.660  11.585  0.6873  0.1968 -0.5846
18917TIP3   OH278165   2.325   1.349   6.245 -0.7889  0.2208  0.2212
18917TIP3    H178166   2.394   1.362   6.311 -0.5507  1.6875 -0.2980
18917TIP3    H278167   2.296   1.437   6.224 -0.5284 -0.2097 -1.9950
18918TIP3   OH278168   2.489   1.199   6.047 -0.2612  0.6432  0.3018
18918TIP3    H178169   2.495   1.293   6.067 -1.9194  1.4124 -2.5824
18918TIP3    H278170   2.558   1.184   5.983 -0.6515  0.1163  0.0021
18919TIP3   OH278171   6.601   4.933   3.366 -0.0245  0.3307  0.1307
18919TIP3    H178172   6.521   4.964   3.407  0.9899  0.8916  1.7391
18919TIP3    H278173   6.572   4.869   3.301 -1.8522  1.6795 -0.3874
18920TIP3   OH278174   3.239   4.074  16.352 -0.7317  0.0704  0.1527
18920TIP3    H178175   3.193   4.041  16.274 -2.0657 -0.1514  1.0133
18920TIP3    H278176   3.329   4.089  16.323 -1.4029  0.7417 -1.6435
18921TIP3   OH278177   5.445   6.459   4.696 -0.2410 -0.2598 -0.2340
18921TIP3    H178178   5.445   6.454   4.792  1.8732  2.5687 -0.0483
18921TIP3    H278179   5.432   6.552   4.677 -2.2583 -1.0071 -2.7623
18922TIP3   OH278180   0.831   3.227  13.705 -0.3850  0.4051 -0.3151
18922TIP3    H178181   0.922   3.255  13.716 -0.2596 -0.3974  0.7061
18922TIP3    H278182   0.786   3.259  13.783 -0.3464 -1.7730  0.6194
18923TIP3   OH278183   5.060   4.589  11.113 -0.0603  0.3843  0.0533
18923TIP3    H178184   5.081   4.673  11.073  1.3540 -0.4437 -0.9988
18923TIP3    H278185   5.073   4.525  11.043 -1.1253 -0.7126  0.8337
18924TIP3   OH278186   5.113   6.264   1.470 -0.3373  0.0741  0.0708
18924TIP3    H178187   5.038   6.204   1.466 -0.1255 -0.1953  0.1041
18924TIP3    H278188   5.076   6.347   1.499 -0.4073 -0.4303  1.4843
18925TIP3   OH278189   3.759   0.085   5.425 -0.0982 -0.1547 -0.1414
18925TIP3    H178190   3.772  -0.010   5.423 -0.8855 -0.2529 -1.2752
18925TIP3    H278191   3.831   0.121   5.374 -0.3447 -0.2150 -0.5347
18926TIP3   OH278192   6.779   3.303   2.788 -0.2279 -0.1142  0.4388
18926TIP3    H178193   6.865   3.321   2.825  0.0117 -0.1523 -0.0886
18926TIP3    H278194   6.720   3.364   2.832  0.5975  2.1525 -1.4886
18927TIP3   OH278195   5.804   1.721  10.804 -0.0792  0.1064 -0.5963
18927TIP3    H178196   5.875   1.716  10.740  0.5848  1.0609  0.0454
18927TIP3    H278197   5.762   1.635  10.801  1.0561 -0.4361 -1.0361
18928TIP3   OH278198   3.141   3.526  15.217 -0.0666 -0.2582 -0.6715
18928TIP3    H178199   3.089   3.519  15.297 -0.0263  2.8611 -0.3212
18928TIP3    H278200   3.099   3.596  15.167  1.2893 -0.5907 -2.3291
18929TIP3   OH278201   1.901   5.251   5.105 -0.0144 -0.3199  0.0102
18929TIP3    H178202   1.839   5.283   5.171  0.1119 -0.2930  0.1166
18929TIP3    H278203   1.861   5.171   5.071 -0.3034 -0.0830 -0.2119
18930TIP3   OH278204   3.589   3.022   2.294  0.0678 -0.4441 -0.0946
18930TIP3    H178205   3.500   2.993   2.274 -0.3520  0.7909 -0.0098
18930TIP3    H278206   3.598   3.006   2.388 -0.6339  0.9486  0.2174
18931TIP3   OH278207   0.174   1.026   0.443 -0.1616 -0.3714  0.6721
18931TIP3    H178208   0.152   0.974   0.520 -0.2198 -0.1294  0.8195
18931TIP3    H278209   0.172   0.963   0.370  0.3710 -0.6946  0.9341
18932TIP3   OH278210   3.869   6.280  12.687  0.3548 -0.1075 -0.2600
18932TIP3    H178211   3.826   6.313  12.766  0.4028  1.6818 -0.9711
18932TIP3    H278212   3.858   6.185  12.692 -0.1766  0.0364  1.5891
18933TIP3   OH278213   6.055   4.600   4.007 -0.4329  0.7820 -0.2938
18933TIP3    H178214   6.077   4.514   3.972  0.0266  0.9090 -0.3236
18933TIP3    H278215   5.961   4.609   3.992 -0.5846  0.0697  0.1783
18934TIP3   OH278216   0.730   1.695  11.112  0.2712  0.3489  0.5283
18934TIP3    H178217   0.807   1.748  11.089  0.7880 -0.3676  0.5938
18934TIP3    H278218   0.726   1.700  11.208  1.0723 -0.7714  0.6228
18935TIP3   OH278219   6.285   6.345  17.121 -0.1529 -0.4867  0.3344
18935TIP3    H178220   6.376   6.371  17.110 -0.8733  1.7980 -0.3715
18935TIP3    H278221   6.280   6.259  17.078  1.3854 -0.0965 -0.6707
18936TIP3   OH278222   4.933   0.400   0.661 -0.3000  0.0408  0.0453
18936TIP3    H178223   4.935   0.490   0.630  0.7049 -0.3667 -1.0868
18936TIP3    H278224   4.846   0.368   0.640 -0.4852  0.5889 -0.0010
18937TIP3   OH278225   0.679   5.357   4.314  0.2006  0.0143  0.9050
18937TIP3    H178226   0.616   5.403   4.258  0.0033  1.5966  2.3700
18937TIP3    H278227   0.624   5.308   4.375  0.4145 -1.6420 -0.2136
18938TIP3   OH278228   5.165   1.663   2.332 -0.4341  0.4569 -0.2708
18938TIP3    H178229   5.111   1.597   2.288 -0.6397 -0.0644  0.7496
18938TIP3    H278230   5.103   1.713   2.386  0.5028 -2.3927  3.6927
18939TIP3   OH278231   3.744   5.495   3.972  0.5759 -0.1479  0.5606
18939TIP3    H178232   3.833   5.501   3.937  0.1912  0.5761 -0.3126
18939TIP3    H278233   3.716   5.586   3.982  0.3732 -0.3556  1.9922
18940TIP3   OH278234   6.149   2.913  14.109  0.2348  0.0453  0.2159
18940TIP3    H178235   6.125   2.856  14.036 -1.4754  0.4629  0.4391
18940TIP3    H278236   6.100   2.994  14.094 -0.1258  0.1415  1.8204
18941TIP3   OH278237   4.612   2.799   6.230 -0.3999  0.3118  0.0434
18941TIP3    H178238   4.534   2.853   6.222 -0.1009  0.6793 -0.4283
18941TIP3    H278239   4.660   2.814   6.149 -0.2440 -0.5516 -0.0262
18942TIP3   OH278240   3.551   0.806  11.253 -0.0408  0.5466  0.3710
18942TIP3    H178241   3.591   0.893  11.260 -1.6784  1.2470  1.2982
18942TIP3    H278242   3.464   0.817  11.291 -1.6167 -0.6400 -2.7119
18943TIP3   OH278243   6.511   3.442   4.339  0.1996  0.6692  0.2558
18943TIP3    H178244   6.457   3.518   4.319 -2.9639 -1.5395 -0.0203
18943TIP3    H278245   6.563   3.427   4.259 -0.7664  1.2278 -0.4835
18944TIP3   OH278246   1.657   5.150  13.896  0.3876  0.7184  0.5409
18944TIP3    H178247   1.714   5.223  13.918  0.2588  0.9379  0.1579
18944TIP3    H278248   1.676   5.083  13.961  2.0095  0.2876 -0.3548
18945TIP3   OH278249   4.400   1.366  12.647 -0.4687 -0.2995 -0.2126
18945TIP3    H178250   4.337   1.405  12.707 -0.1446 -0.4714  0.2394
18945TIP3    H278251   4.373   1.397  12.560 -1.0965 -0.2725 -0.0055
18946TIP3   OH278252   6.554   3.400   2.928 -0.4083 -0.0577 -0.2597
18946TIP3    H178253   6.587   3.490   2.920 -1.2808  0.2518 -0.4413
18946TIP3    H278254   6.590   3.369   3.011 -2.3628  1.4493  1.2239
18947TIP3   OH278255   4.682   2.245  14.476  0.0629  0.1092  0.2594
18947TIP3    H178256   4.637   2.168  14.440 -1.1980  0.5723  0.7953
18947TIP3    H278257   4.772   2.237  14.445 -0.2739 -1.0983 -0.4556
18948TIP3   OH278258   3.198   4.763  13.891  0.1082 -0.1596 -0.7378
18948TIP3    H178259   3.257   4.825  13.933 -0.9313 -1.2034  2.4825
18948TIP3    H278260   3.251   4.685  13.877 -0.0358 -0.5281  0.6427
18949TIP3   OH278261   4.651   3.488   0.948 -0.5147  0.5578 -0.3138
18949TIP3    H178262   4.635   3.508   0.855 -1.8870  1.5770  0.1196
18949TIP3    H278263   4.681   3.571   0.985 -1.5849  0.6018  0.4917
18950TIP3   OH278264   1.588   6.696   1.416  0.2443  0.1755  0.7304
18950TIP3    H178265   1.573   6.752   1.491  1.0286  1.9347 -0.4017
18950TIP3    H278266   1.601   6.756   1.342 -3.0285 -1.5188 -1.3294
18951TIP3   OH278267   4.434   1.458  17.000 -0.1565  0.3599  0.5203
18951TIP3    H178268   4.396   1.474  16.914 -0.3480  0.1925  0.5714
18951TIP3    H278269   4.527   1.478  16.990 -0.2120  0.5221  0.3261
18952TIP3   OH278270   4.048   2.133  14.985 -0.2023  0.5127 -0.1392
18952TIP3    H178271   4.112   2.069  14.952 -0.2511  0.4692 -0.1497
18952TIP3    H278272   4.044   2.115  15.079 -0.7140  0.0544 -0.2451
18953TIP3   OH278273   4.877   3.238  12.258  0.1755  0.0273 -0.2389
18953TIP3    H178274   4.963   3.265  12.290  0.3521 -0.0641 -0.6431
18953TIP3    H278275   4.864   3.151  12.295 -0.1811  0.4450  0.6517
18954TIP3   OH278276   4.883   0.503   1.770 -0.2598 -0.1836  0.1714
18954TIP3    H178277   4.815   0.468   1.713  1.1839 -0.2813 -1.5485
18954TIP3    H278278   4.907   0.587   1.730 -2.4434  2.0415  3.2573
18955TIP3   OH278279   4.590   5.710  11.454  0.4558  0.1628  0.3280
18955TIP3    H178280   4.677   5.716  11.494  1.0360 -1.8053 -0.5803
18955TIP3    H278281   4.554   5.627  11.487 -0.5345  0.3134 -0.3456
18956TIP3   OH278282   5.248   2.706  13.794 -0.6752  0.4428  0.3206
18956TIP3    H178283   5.235   2.734  13.884  0.1800  1.2962  0.1899
18956TIP3    H278284   5.211   2.777  13.741 -1.3203 -0.1283 -0.0027
18957TIP3   OH278285   1.283   2.087   2.898  0.2799 -0.0195 -0.2473
18957TIP3    H178286   1.207   2.055   2.849  0.0594 -0.1881  0.1947
18957TIP3    H278287   1.246   2.121   2.980  0.6098  0.5571 -0.3391
18958TIP3   OH278288   2.332   0.262  12.417  0.6265  0.5318  0.1949
18958TIP3    H178289   2.241   0.285  12.438  0.3600  0.2629 -0.6813
18958TIP3    H278290   2.358   0.328  12.352  0.4034 -0.6185 -1.0718
18959TIP3   OH278291   0.872   3.228  13.993  0.6874 -0.1858  0.1157
18959TIP3    H178292   0.807   3.178  14.042 -0.5307  2.6232  1.4784
18959TIP3    H278293   0.912   3.164  13.934 -1.0156 -2.6644  1.5643
18960TIP3   OH278294   6.306   1.538   6.164 -0.3315 -0.4809  0.0852
18960TIP3    H178295   6.285   1.619   6.212 -1.2778 -1.5723  1.5620
18960TIP3    H278296   6.396   1.519   6.188  0.0506  0.3892 -0.6418
18961TIP3   OH278297   5.412   0.065  16.405  0.1342  0.2051  0.0656
18961TIP3    H178298   5.356   0.087  16.330 -0.4593  1.3071  0.8270
18961TIP3    H278299   5.496   0.106  16.385 -0.3223  1.3539  0.4622
18962TIP3   OH278300   3.194   5.400  13.685 -0.4341  0.0447 -0.2198
18962TIP3    H178301   3.240   5.442  13.612 -0.8065  3.6696  1.5360
18962TIP3    H278302   3.103   5.429  13.676 -0.3303  1.1207  2.0822
18963TIP3   OH278303   5.755   2.098   1.318  0.1171 -0.6743  0.6307
18963TIP3    H178304   5.749   2.151   1.238  1.4054  3.0348  2.8495
18963TIP3    H278305   5.811   2.025   1.294  0.6237  0.4341 -1.8192
18964TIP3   OH278306   1.134   0.812  14.145  0.4007 -0.3084 -0.1944
18964TIP3    H178307   1.149   0.818  14.050 -0.3800  0.2017 -0.2960
18964TIP3    H278308   1.220   0.828  14.184  0.9903 -1.8457 -0.8490
18965TIP3   OH278309   3.323   5.461  12.508  0.1369 -0.0986  0.3195
18965TIP3    H178310   3.331   5.418  12.423  3.6791  0.3270  0.3822
18965TIP3    H278311   3.320   5.389  12.572 -1.1450 -0.3854 -0.0575
18966TIP3   OH278312   3.398   0.231  12.751  0.6282  0.0692 -0.4682
18966TIP3    H178313   3.485   0.271  12.759  0.6026  0.3925 -1.6831
18966TIP3    H278314   3.339   0.297  12.787  0.7766  0.3171 -0.6752
18967TIP3   OH278315   3.479   6.478   0.084 -0.0850 -0.0436 -0.0040
18967TIP3    H178316   3.507   6.507  -0.003  0.7711  0.6509  0.4923
18967TIP3    H278317   3.441   6.556   0.124  0.2295 -0.1596  0.5276
18968TIP3   OH278318   0.769   1.362   5.116  0.1731  0.1424 -0.4812
18968TIP3    H178319   0.755   1.344   5.023 -2.3345 -0.3742 -0.0264
18968TIP3    H278320   0.796   1.454   5.118 -2.0252  0.8616 -1.5512
18969TIP3   OH278321   5.071   6.392  11.802 -0.6414  0.3967  0.1072
18969TIP3    H178322   4.998   6.439  11.763  0.3161  1.5198 -0.3703
18969TIP3    H278323   5.139   6.392  11.735 -0.1162 -0.4471  0.6210
18970TIP3   OH278324   2.400   6.601  15.925 -0.3210 -0.0701  0.1830
18970TIP3    H178325   2.424   6.558  15.843 -2.6171 -1.3218  0.1371
18970TIP3    H278326   2.483   6.634  15.960  1.0567 -1.8514 -1.3165
18971TIP3   OH278327   1.803   6.160   2.451  0.1142  0.3374 -0.1346
18971TIP3    H178328   1.877   6.220   2.438 -0.7720  1.1944 -1.3078
18971TIP3    H278329   1.755   6.163   2.369 -0.0874 -1.8234 -0.1047
18972TIP3   OH278330   4.949   5.864   6.095  0.1731  0.4460 -0.3519
18972TIP3    H178331   4.965   5.770   6.095 -0.3106  0.3183 -3.1332
18972TIP3    H278332   5.016   5.900   6.153  0.0339 -1.6269  1.1620
18973TIP3   OH278333   4.056   5.931   0.639 -0.0270  0.1296 -0.5615
18973TIP3    H178334   4.008   6.004   0.599  1.1095  0.9821 -0.3695
18973TIP3    H278335   4.146   5.941   0.607  0.0534 -1.4288 -0.8617
18974TIP3   OH278336   0.169   6.210   2.242 -0.3808 -0.4430 -0.3645
18974TIP3    H178337   0.241   6.262   2.207  0.4354 -0.3339  1.4188
18974TIP3    H278338   0.173   6.127   2.194 -0.3338  0.3050 -1.6751
18975TIP3   OH278339   3.707   0.097   5.776 -0.0974  0.1528  0.4693
18975TIP3    H178340   3.660   0.119   5.696 -0.3865  0.2529  0.6645
18975TIP3    H278341   3.705   0.001   5.778  2.2709  0.0466 -1.0314
18976TIP3   OH278342   5.033   2.934  14.656  0.9659 -0.5627  0.1036
18976TIP3    H178343   4.945   2.921  14.692  0.4748  3.4025  0.5374
18976TIP3    H278344   5.031   2.889  14.571 -1.0360 -1.6791  0.7069
18977TIP3   OH278345   4.712   6.769  12.786 -0.0831 -0.3863  0.7719
18977TIP3    H178346   4.754   6.717  12.717  1.0960 -0.0048  1.1985
18977TIP3    H278347   4.783   6.792  12.845 -0.5213  2.0178  0.4019
18978TIP3   OH278348   2.576   5.900   0.010  0.3328  0.3808 -0.3031
18978TIP3    H178349   2.556   5.875   0.100  0.1250 -0.6995 -0.6477
18978TIP3    H278350   2.623   5.983   0.018  1.3198 -0.2797  0.8609
18979TIP3   OH278351   3.412   1.054   3.041  0.2346 -0.0444  0.4469
18979TIP3    H178352   3.477   1.090   2.981  0.5837 -1.3513  0.0369
18979TIP3    H278353   3.451   0.973   3.074 -0.5724 -0.0965  1.3194
18980TIP3   OH278354   5.686   2.068  13.424  0.3945 -0.2115 -0.1062
18980TIP3    H178355   5.772   2.099  13.452  0.2049 -0.1512  0.4124
18980TIP3    H278356   5.669   2.115  13.342  0.6451  0.1430  0.0435
18981TIP3   OH278357   1.735   2.119   2.193 -0.4115 -0.5071  0.4000
18981TIP3    H178358   1.747   2.190   2.256 -4.4478 -1.5330  2.4409
18981TIP3    H278359   1.697   2.162   2.116  0.0763  0.0006  0.4352
18982TIP3   OH278360   6.542   4.956  16.666  0.1509  0.2421 -0.7522
18982TIP3    H178361   6.610   4.921  16.723 -1.2718 -0.9190  0.2767
18982TIP3    H278362   6.511   4.881  16.616 -0.3390  0.7691 -1.2537
18983TIP3   OH278363   1.209   0.859   2.610 -0.0767  0.4128  0.5356
18983TIP3    H178364   1.137   0.894   2.559 -2.8050 -0.8110  3.3612
18983TIP3    H278365   1.243   0.935   2.658 -1.3565  0.5333  1.2934
18984TIP3   OH278366   5.813   5.676   2.362  0.1397 -0.1986 -0.5624
18984TIP3    H178367   5.843   5.674   2.272  0.6591  1.6338 -0.4526
18984TIP3    H278368   5.808   5.770   2.384 -0.0764 -0.6115  1.2595
18985TIP3   OH278369   2.542   0.709   5.217 -0.2441 -0.2281  0.0269
18985TIP3    H178370   2.481   0.757   5.274  0.5294 -1.2518  1.7731
18985TIP3    H278371   2.506   0.721   5.129 -0.5262  2.8269  0.4895
18986TIP3   OH278372   1.505   5.597   3.488  0.2000 -0.6298 -0.8412
18986TIP3    H178373   1.438   5.611   3.421  0.0800 -2.5795 -1.1741
18986TIP3    H278374   1.535   5.507   3.472  0.4823 -0.9535  1.4553
18987TIP3   OH278375   2.806   1.716   5.004 -0.7227  0.4985  0.1302
18987TIP3    H178376   2.728   1.715   5.059 -0.7669  1.5083  0.0832
18987TIP3    H278377   2.800   1.797   4.954  0.0296  0.2690 -0.3476
18988TIP3   OH278378   4.581   4.848  12.086 -0.4102  0.4834 -0.2815
18988TIP3    H178379   4.646   4.804  12.141 -1.4879 -1.0532 -0.2040
18988TIP3    H278380   4.513   4.877  12.147 -0.8168  0.2286 -0.6077
18989TIP3   OH278381   5.093   3.860  15.285 -0.7049 -0.2682 -0.8065
18989TIP3    H178382   5.164   3.820  15.235 -2.2971 -2.0517 -1.6927
18989TIP3    H278383   5.090   3.810  15.366 -1.4285 -0.6995 -1.0933
18990TIP3   OH278384   4.197   2.850   4.666 -0.0772  0.7912 -0.6085
18990TIP3    H178385   4.251   2.887   4.735  1.1327 -1.4704 -0.2867
18990TIP3    H278386   4.154   2.775   4.707 -0.5392  0.3364 -1.8790
18991TIP3   OH278387   0.485   6.063  16.797  0.6332  0.0344 -0.1342
18991TIP3    H178388   0.484   6.148  16.754 -2.1256 -1.2416 -2.7026
18991TIP3    H278389   0.578   6.039  16.799  1.1461  1.7102 -2.1134
18992TIP3   OH278390   0.343   2.476  16.257 -0.2521  0.0319  0.2977
18992TIP3    H178391   0.255   2.466  16.294  0.3819  1.6665  2.3585
18992TIP3    H278392   0.402   2.452  16.329  1.0228 -2.9460 -1.6446
18993TIP3   OH278393   1.663   3.719  15.193 -0.1005 -0.0158 -0.9027
18993TIP3    H178394   1.715   3.795  15.219  1.7196 -1.3654 -0.4896
18993TIP3    H278395   1.593   3.714  15.258  0.6326  0.4360 -0.0664
18994TIP3   OH278396   5.061   5.240   3.357 -0.9250 -0.2479 -0.1854
18994TIP3    H178397   5.138   5.197   3.320 -0.8952 -0.7017  0.3957
18994TIP3    H278398   5.005   5.259   3.282 -1.9767 -3.3555 -0.2765
18995TIP3   OH278399   5.405   2.899   3.029 -0.2363 -0.9162 -0.0121
18995TIP3    H178400   5.485   2.927   3.074  0.0363  0.0492 -1.0654
18995TIP3    H278401   5.390   2.966   2.963 -1.2855 -1.6937 -0.5807
18996TIP3   OH278402   3.830   5.917  11.508  0.3732 -0.0542  0.0403
18996TIP3    H178403   3.800   5.842  11.457 -1.9329 -1.9945  4.0577
18996TIP3    H278404   3.794   5.993  11.462 -2.4115 -1.7916 -0.7534
18997TIP3   OH278405   0.489   2.215   0.679  0.1146  0.3390  0.1120
18997TIP3    H178406   0.418   2.208   0.743 -1.5517  0.1072 -1.7018
18997TIP3    H278407   0.478   2.302   0.641  1.5448  0.7602  0.6603
18998TIP3   OH278408   4.822   4.701   5.199 -0.1582  0.8807 -0.2005
18998TIP3    H178409   4.771   4.774   5.233 -1.3364 -0.6092  1.2697
18998TIP3    H278410   4.867   4.665   5.275  0.7620  0.3228 -0.9897
18999TIP3   OH278411   5.605   6.284   3.500 -0.4275 -0.0739  0.4699
18999TIP3    H178412   5.622   6.201   3.545 -2.5337 -1.0255 -0.4052
18999TIP3    H278413   5.575   6.258   3.413  0.5980  1.6689 -0.4293
19000TIP3   OH278414   2.097   1.065  14.110 -0.2945 -0.1095 -0.6494
19000TIP3    H178415   2.006   1.041  14.126 -0.0313 -0.6297  0.1047
19000TIP3    H278416   2.099   1.160  14.124 -0.7424 -0.0779 -0.7801
19001TIP3   OH278417   0.498   1.933  17.144  0.3117 -0.1502  0.4231
19001TIP3    H178418   0.406   1.923  17.119  0.5509  0.8688 -0.9601
19001TIP3    H278419   0.508   2.027  17.161  1.3927 -0.0396 -0.7159
19002TIP3   OH278420   1.147   2.120   5.380 -0.4315  0.1296 -0.0103
19002TIP3    H178421   1.092   2.078   5.314 -1.6542  0.7509  0.5955
19002TIP3    H278422   1.228   2.141   5.335 -2.3285  3.2279 -2.1538
19003TIP3   OH278423   5.863   2.318   4.130 -0.2652  0.2107  0.3845
19003TIP3    H178424   5.861   2.343   4.223  2.1371  0.5407  0.4006
19003TIP3    H278425   5.912   2.389   4.088  0.4830 -0.9610 -0.7626
19004TIP3   OH278426   2.923   2.620   5.488 -0.2316 -0.1320  0.2684
19004TIP3    H178427   2.994   2.558   5.473  0.1172  0.2518  0.3100
19004TIP3    H278428   2.958   2.704   5.457  0.1671  0.5009  2.3862
19005TIP3   OH278429   1.209   0.203   6.417 -0.3287  0.1900  0.7573
19005TIP3    H178430   1.129   0.254   6.422 -0.9474 -0.8681  1.9612
19005TIP3    H278431   1.219   0.165   6.504  1.4538  0.2564  0.6123
19006TIP3   OH278432   3.677   3.014   5.600 -0.2495 -0.5977  0.0210
19006TIP3    H178433   3.608   3.078   5.619  0.5269  0.2497  0.0161
19006TIP3    H278434   3.687   3.017   5.505  0.5732  0.1044  0.1254
19007TIP3   OH278435   1.459   3.556   5.847  0.1098  0.2592 -0.6054
19007TIP3    H178436   1.552   3.552   5.823 -0.3895  1.2839 -2.8358
19007TIP3    H278437   1.451   3.494   5.920  2.5415  0.1825 -0.3387
19008TIP3   OH278438   1.533   4.335  12.766  0.3164  0.2761 -0.3225
19008TIP3    H178439   1.599   4.330  12.834 -0.6642 -0.2915  0.6127
19008TIP3    H278440   1.564   4.403  12.706  1.2626  0.6570  0.6000
19009TIP3   OH278441   3.929   5.590  13.406 -0.2320  0.1000  0.1266
19009TIP3    H178442   3.976   5.526  13.353  1.9932  1.1475  0.7605
19009TIP3    H278443   3.951   5.566  13.497 -2.0072 -0.1843  0.5020
19010TIP3   OH278444   0.622   5.111  11.965 -0.5248  0.3195  0.0784
19010TIP3    H178445   0.595   5.183  11.907 -1.4250 -1.6501 -2.0158
19010TIP3    H278446   0.544   5.094  12.019 -0.9614 -0.3661 -0.7637
19011TIP3   OH278447   3.672   4.663   5.856 -0.0634  0.9909 -0.1652
19011TIP3    H178448   3.708   4.663   5.944  0.9878 -0.0095 -0.5697
19011TIP3    H278449   3.690   4.575   5.823 -0.7924  1.2305 -1.2253
19012TIP3   OH278450   1.614   5.321   2.560  0.4440  0.8850  0.1092
19012TIP3    H178451   1.616   5.302   2.654  0.4174 -1.2798 -0.3079
19012TIP3    H278452   1.578   5.242   2.520  1.5992  1.2991 -1.8288
19013TIP3   OH278453   0.145   1.723   5.421 -0.1680  0.3277 -0.3521
19013TIP3    H178454   0.064   1.769   5.447  0.3061  0.4350  1.0058
19013TIP3    H278455   0.215   1.780   5.453  0.4397 -0.1989 -0.7488
19014TIP3   OH278456   5.985   1.302  15.714  0.9083 -0.5860  0.1283
19014TIP3    H178457   6.078   1.305  15.733  1.3810 -0.8394 -2.0569
19014TIP3    H278458   5.980   1.287  15.620 -1.3385 -0.3479  0.1839
19015TIP3   OH278459   2.276   5.667  12.951 -0.0023 -0.5821 -0.8118
19015TIP3    H178460   2.225   5.664  12.870  0.1489 -0.4925 -0.9111
19015TIP3    H278461   2.362   5.700  12.924  0.7003 -2.4833 -0.9421
19016TIP3   OH278462   3.523   1.217   0.068  0.0777  0.3521 -0.2627
19016TIP3    H178463   3.481   1.145   0.114  2.3347  0.2437  1.7342
19016TIP3    H278464   3.464   1.291   0.080 -2.4351 -1.1873 -2.6363
19017TIP3   OH278465   3.425   5.180   2.163  0.1571 -0.3736 -0.0543
19017TIP3    H178466   3.364   5.161   2.234  2.4462 -1.6152  1.6115
19017TIP3    H278467   3.453   5.094   2.131  0.7638  0.1846 -1.0693
19018TIP3   OH278468   5.386   1.155  13.407  0.1958 -0.1054  0.1668
19018TIP3    H178469   5.355   1.102  13.333  0.2541  1.0429 -0.6933
19018TIP3    H278470   5.408   1.091  13.475  1.2834 -1.2596 -1.2389
19019TIP3   OH278471   6.051   1.085  16.856 -0.1383 -0.6183 -0.2873
19019TIP3    H178472   6.120   1.073  16.921 -0.7805 -0.5877  0.4000
19019TIP3    H278473   6.066   1.014  16.793  1.5187  0.3816 -1.0375
19020TIP3   OH278474   0.646   5.418  14.056  0.2876  0.0101  0.0693
19020TIP3    H178475   0.607   5.406  13.969  1.2590  0.1148 -0.3925
19020TIP3    H278476   0.666   5.512  14.061 -2.4014  0.5393  1.5576
19021TIP3   OH278477   2.721   6.015  12.075  0.3523  0.1826  0.4769
19021TIP3    H178478   2.755   6.024  11.986  0.3494 -1.2185  0.3177
19021TIP3    H278479   2.796   6.037  12.131  0.5097  0.5329  0.1308
19022TIP3   OH278480   2.968   1.301   2.935  0.1780 -0.2411  0.0613
19022TIP3    H178481   2.959   1.366   2.866 -1.3384  0.5958  1.0226
19022TIP3    H278482   3.060   1.304   2.960  0.7186 -0.4968 -1.8549
19023TIP3   OH278483   2.719   3.033  13.010 -0.1624 -0.3566  0.8431
19023TIP3    H178484   2.698   3.078  13.092 -0.5138  0.8875  0.0744
19023TIP3    H278485   2.805   2.993  13.026  0.6183  1.4427  1.1830
19024TIP3   OH278486   2.929   2.331   0.532  0.2414  0.0988 -0.5979
19024TIP3    H178487   3.010   2.295   0.566 -1.0202 -1.5680  0.7408
19024TIP3    H278488   2.934   2.425   0.552  1.5264 -0.1147  0.0779
19025TIP3   OH278489   6.445   2.296  16.998  0.3801  0.5485  0.6349
19025TIP3    H178490   6.472   2.206  16.980  1.5466  1.1492 -0.6681
19025TIP3    H278491   6.363   2.307  16.950  0.7791  0.5055 -0.0614
19026TIP3   OH278492   1.223   6.549  12.646  0.4391 -0.3706  0.2630
19026TIP3    H178493   1.163   6.619  12.674 -0.9827 -1.0447 -1.0563
19026TIP3    H278494   1.193   6.472  12.695  0.2680 -0.6978 -0.3616
19027TIP3   OH278495   1.306   5.380  13.335  0.2036 -0.1211  0.1618
19027TIP3    H178496   1.261   5.425  13.264  2.0234 -0.0211 -0.9458
19027TIP3    H278497   1.298   5.287  13.314  1.2920 -0.0699 -0.5465
19028TIP3   OH278498   5.129   2.163   6.029  0.2454 -0.2806  0.3707
19028TIP3    H178499   5.054   2.188   6.082 -0.2696  0.6956 -0.7851
19028TIP3    H278500   5.205   2.175   6.086 -0.4100 -0.5783  1.3099
19029TIP3   OH278501   6.494   1.786   5.950  0.4111 -0.4146  0.4672
19029TIP3    H178502   6.467   1.696   5.967  1.3769 -0.5215  1.4917
19029TIP3    H278503   6.413   1.837   5.956 -0.1375 -1.2078 -0.1076
19030TIP3   OH278504   1.216   0.406   4.464 -0.3361 -0.1577  0.2054
19030TIP3    H178505   1.142   0.407   4.524 -0.0975  1.6908  0.4864
19030TIP3    H278506   1.293   0.410   4.520 -0.0618 -0.3145 -0.1564
19031TIP3   OH278507   5.538   1.713   0.781 -0.2339 -0.6365  0.1426
19031TIP3    H178508   5.504   1.677   0.699 -0.6999 -0.0822  0.0923
19031TIP3    H278509   5.581   1.794   0.756  0.3277 -0.8713  0.3393
19032TIP3   OH278510   5.291   5.436  12.943 -0.1601 -0.1567  0.7556
19032TIP3    H178511   5.199   5.410  12.952 -0.2350  0.2329  1.1287
19032TIP3    H278512   5.329   5.419  13.029 -0.4527  1.8952  1.3144
19033TIP3   OH278513   2.233   3.802   0.927  0.1105 -0.4219  0.0213
19033TIP3    H178514   2.164   3.740   0.902  0.8746 -1.1246 -0.3669
19033TIP3    H278515   2.205   3.885   0.889 -0.0217 -0.9294 -1.0038
19034TIP3   OH278516   5.894   2.911   2.584  0.1170  0.2962 -0.2228
19034TIP3    H178517   5.943   2.934   2.663  0.1823  1.7720 -0.6752
19034TIP3    H278518   5.942   2.837   2.547  0.9691  0.5838  0.2905
19035TIP3   OH278519   4.257   5.584   2.851 -0.0406  0.4372 -0.0124
19035TIP3    H178520   4.260   5.558   2.944  0.2754  2.2857  0.5191
19035TIP3    H278521   4.296   5.671   2.850  1.1428 -0.1011 -2.1002
19036TIP3   OH278522   4.996   6.697  16.884  0.0938 -0.0925  0.2020
19036TIP3    H178523   4.993   6.788  16.852  0.8072  0.4233  1.5672
19036TIP3    H278524   4.965   6.703  16.975  1.3488 -1.0246  0.6930
19037TIP3   OH278525   5.420   4.838   1.952 -0.3086  0.0360  0.2615
19037TIP3    H178526   5.343   4.887   1.982  0.7543  1.9032  0.0047
19037TIP3    H278527   5.479   4.837   2.028 -0.1911 -0.5997  0.1658
19038TIP3   OH278528   3.483   5.363  16.030  0.2046 -0.8087  0.1635
19038TIP3    H178529   3.507   5.397  16.116 -1.6443  1.4906 -0.1848
19038TIP3    H278530   3.392   5.336  16.039 -0.3438  0.4393 -1.3368
19039TIP3   OH278531   3.685   2.155   3.640 -0.0265 -0.0124  0.0516
19039TIP3    H178532   3.717   2.182   3.726  0.8157 -0.2077 -0.1921
19039TIP3    H278533   3.639   2.232   3.606  1.3558  0.7533 -0.1531
19040TIP3   OH278534   4.585   1.521  12.920  0.0649  0.3968 -0.0445
19040TIP3    H178535   4.626   1.442  12.883  0.9509  0.9963 -0.3685
19040TIP3    H278536   4.528   1.488  12.989 -0.7742 -0.6550 -1.2209
19041TIP3   OH278537   0.379   6.540  12.095 -0.2773 -0.6240 -0.2803
19041TIP3    H178538   0.385   6.470  12.029 -2.0380  0.1113 -1.2591
19041TIP3    H278539   0.360   6.619  12.044  0.1325  0.2805  0.9602
19042TIP3   OH278540   0.514   1.587   3.203 -0.8645  0.3606 -0.0511
19042TIP3    H178541   0.481   1.553   3.286  0.6336 -1.7729 -0.2740
19042TIP3    H278542   0.593   1.535   3.186  0.2657  2.5052 -1.5493
19043TIP3   OH278543   6.675   3.500   3.414 -0.2933  0.9915  0.1580
19043TIP3    H178544   6.579   3.507   3.416 -0.4223 -0.1798 -1.1546
19043TIP3    H278545   6.700   3.537   3.329  0.2311 -0.7248 -0.4478
19044TIP3   OH278546   0.446   0.788   3.747 -0.1453  0.4315  0.5090
19044TIP3    H178547   0.371   0.832   3.786 -0.4597 -0.0801  0.4908
19044TIP3    H278548   0.473   0.724   3.813 -0.5122 -0.2504  0.0109
19045TIP3   OH278549   2.555   3.898  15.046 -0.3971  0.0280  0.1881
19045TIP3    H178550   2.511   3.907  14.961 -0.7122 -0.9896  0.2390
19045TIP3    H278551   2.522   3.971  15.098  0.3077  1.0569 -0.7818
19046TIP3   OH278552   4.023   4.408  12.465  0.6020 -0.4916 -0.0719
19046TIP3    H178553   4.033   4.491  12.419  0.1015 -0.3389  0.0895
19046TIP3    H278554   4.086   4.349  12.423  1.6259  0.2215  0.4218
19047TIP3   OH278555   2.410   0.688  16.353  0.3136 -0.3977 -0.3974
19047TIP3    H178556   2.409   0.592  16.346  2.9513 -0.5742  0.9023
19047TIP3    H278557   2.483   0.707  16.412  0.3145  2.4653 -1.2291
19048TIP3   OH278558   1.205   3.941   2.249 -0.1006 -0.4734 -0.3481
19048TIP3    H178559   1.293   3.968   2.275  0.9467 -3.9232 -0.0143
19048TIP3    H278560   1.177   4.007   2.186  2.8705  0.5396 -0.6931
19049TIP3   OH278561   3.312   1.109   3.296 -0.3369 -0.2885  0.0317
19049TIP3    H178562   3.321   1.105   3.201 -0.1288 -0.9132  0.0767
19049TIP3    H278563   3.224   1.144   3.310  0.3032  1.5497 -0.3853
19050TIP3   OH278564   0.144   0.655   2.785  0.1415  0.5085  0.5690
19050TIP3    H178565   0.224   0.612   2.817 -0.4591 -0.6544  0.5244
19050TIP3    H278566   0.173   0.742   2.758  1.5444 -0.1698 -0.1503
19051TIP3   OH278567   6.231   4.085  16.404 -0.2290  0.0154  1.2789
19051TIP3    H178568   6.325   4.101  16.411 -0.5382  2.4362  0.4812
19051TIP3    H278569   6.201   4.148  16.339 -2.3474 -1.0118  1.2222
19052TIP3   OH278570   3.174   6.665   3.574 -0.3023 -0.0029  0.3636
19052TIP3    H178571   3.176   6.570   3.562 -0.4754 -0.0209  0.4898
19052TIP3    H278572   3.174   6.699   3.484  1.0568 -0.0991  0.3218
19053TIP3   OH278573   3.244   1.285  15.878 -0.5675 -0.0196  0.4983
19053TIP3    H178574   3.228   1.282  15.972 -1.1138  0.4842  0.4273
19053TIP3    H278575   3.220   1.197  15.847  0.0483 -0.3289  0.8920
19054TIP3   OH278576   2.505   4.592  14.609  0.1218 -0.3588  0.1656
19054TIP3    H178577   2.560   4.530  14.561  1.1549  0.7267 -0.0720
19054TIP3    H278578   2.546   4.598  14.695 -0.6904 -0.9326  0.6024
19055TIP3   OH278579   5.189   1.975  15.297  0.2542 -0.3988 -0.4691
19055TIP3    H178580   5.199   2.059  15.343 -1.8849 -0.6775  0.5885
19055TIP3    H278581   5.197   1.909  15.366 -0.1832 -0.9428 -0.9359
19056TIP3   OH278582   1.999   0.128  14.479  0.4832 -0.2035  0.4374
19056TIP3    H178583   1.982   0.061  14.412 -0.3304  1.0174 -0.6190
19056TIP3    H278584   1.966   0.090  14.560 -0.4223 -0.9062 -0.2432
19057TIP3   OH278585   4.817   4.705  16.223 -0.3926 -0.4418  0.0979
19057TIP3    H178586   4.896   4.655  16.206 -0.1046 -0.3478  1.1609
19057TIP3    H278587   4.771   4.655  16.291 -0.9731 -0.2042 -0.1170
19058TIP3   OH278588   6.354   2.533   0.546  0.2627  0.7685  0.0047
19058TIP3    H178589   6.370   2.601   0.612  0.6110  2.5210 -1.8072
19058TIP3    H278590   6.262   2.543   0.523  0.3522  0.7391 -0.3747
19059TIP3   OH278591   3.597   5.460   2.121 -1.0200  0.0935 -0.1147
19059TIP3    H178592   3.565   5.482   2.033 -1.1817  0.3044 -0.0050
19059TIP3    H278593   3.546   5.383   2.146  0.7755 -1.4914 -1.2020
19060TIP3   OH278594   5.344   3.640   6.596 -0.2077 -0.0422 -0.5505
19060TIP3    H178595   5.263   3.626   6.548 -0.8668  0.3563  0.4397
19060TIP3    H278596   5.408   3.585   6.551 -1.2473 -1.1134 -0.7528
19061TIP3   OH278597   0.319   3.579   5.522 -0.2976 -0.5630  0.3209
19061TIP3    H178598   0.234   3.538   5.541  0.0557 -0.6732  1.7059
19061TIP3    H278599   0.300   3.640   5.452 -1.0827 -2.2072 -0.9378
19062TIP3   OH278600   3.362   0.607  13.904 -0.0240  0.0911  0.4530
19062TIP3    H178601   3.275   0.575  13.926  0.9299 -1.6266  1.8080
19062TIP3    H278602   3.353   0.703  13.907 -1.8062 -0.0618  0.7766
19063TIP3   OH278603   1.326   5.141   3.889 -0.0662 -0.5232  0.5533
19063TIP3    H178604   1.338   5.046   3.885  3.0088 -0.1874  0.0966
19063TIP3    H278605   1.292   5.157   3.977 -0.1368 -2.0201  0.8159
19064TIP3   OH278606   0.277   4.076  14.579 -0.1611  0.5125  0.5045
19064TIP3    H178607   0.201   4.043  14.530  1.1113  0.2836 -1.3884
19064TIP3    H278608   0.242   4.146  14.634 -1.9535 -0.4118  0.5645
19065TIP3   OH278609   1.268   2.727  12.837  0.0730 -0.3863  0.6000
19065TIP3    H178610   1.258   2.781  12.915 -2.0841  0.8118 -0.4453
19065TIP3    H278611   1.242   2.785  12.765  0.2217 -2.0467 -0.8216
19066TIP3   OH278612   3.462   5.496   3.905  0.1308 -0.6202 -0.0606
19066TIP3    H178613   3.459   5.571   3.965 -0.6346 -0.8605  0.2128
19066TIP3    H278614   3.555   5.475   3.897  0.4359  1.0394 -0.9881
19067TIP3   OH278615   1.604   6.469  15.980  0.1727 -0.0277  0.4834
19067TIP3    H178616   1.619   6.562  15.961  1.2286 -0.5243 -1.1848
19067TIP3    H278617   1.691   6.430  15.975 -0.1911 -1.0113  1.7847
19068TIP3   OH278618   2.561   5.737  15.603 -0.2647  0.0126  0.4837
19068TIP3    H178619   2.493   5.713  15.540 -0.6853  1.2883  0.4434
19068TIP3    H278620   2.513   5.759  15.683  0.2450 -1.2543  1.1563
19069TIP3   OH278621   4.737   6.467   4.654 -0.2427  0.3110  0.1146
19069TIP3    H178622   4.806   6.408   4.685 -0.0395  0.2280 -0.5002
19069TIP3    H278623   4.770   6.554   4.672  0.8169  0.3280 -1.8377
19070TIP3   OH278624   0.783   5.396  10.988 -0.2275  0.1720 -0.2402
19070TIP3    H178625   0.781   5.314  10.937 -0.7113  0.1432 -0.1789
19070TIP3    H278626   0.701   5.440  10.964  0.2327  0.8333 -0.5938
19071TIP3   OH278627   6.143   5.579  14.889  0.0408 -0.4517  0.3122
19071TIP3    H178628   6.171   5.632  14.963  0.7390 -0.4334  0.0389
19071TIP3    H278629   6.053   5.608  14.871  0.2752  0.3573  0.4196
19072TIP3   OH278630   5.665   3.277   4.133  0.0887  0.0836  0.5596
19072TIP3    H178631   5.603   3.231   4.189 -1.4068 -0.0710 -1.1728
19072TIP3    H278632   5.618   3.354   4.102  1.0480  0.4274 -0.0803
19073TIP3   OH278633   4.546   1.341   3.619 -0.4009  0.1351  0.3562
19073TIP3    H178634   4.567   1.253   3.589  0.5499  0.0600  1.2145
19073TIP3    H278635   4.530   1.390   3.538  0.1359 -0.5573 -0.1874
19074TIP3   OH278636   4.932   5.704   0.529  0.0625 -0.3882 -0.2271
19074TIP3    H178637   4.979   5.774   0.574  0.8796 -1.0271 -0.0657
19074TIP3    H278638   4.959   5.624   0.575 -1.0168 -0.7880 -0.2755
19075TIP3   OH278639   1.301   4.672  15.036  0.5708  0.1263  0.3044
19075TIP3    H178640   1.220   4.692  15.082 -0.6784  0.0616 -1.8121
19075TIP3    H278641   1.294   4.719  14.953  2.4796 -0.2908 -0.1202
19076TIP3   OH278642   5.586   1.677   1.141 -0.2661 -0.4619  0.5065
19076TIP3    H178643   5.528   1.753   1.137  0.1626 -0.1852 -1.0820
19076TIP3    H278644   5.662   1.703   1.088  1.1825 -0.9287  2.3278
19077TIP3   OH278645   3.690   4.644  16.170 -0.1494  0.1536  0.1312
19077TIP3    H178646   3.686   4.627  16.076 -0.0593  2.3587 -0.2835
19077TIP3    H278647   3.633   4.578  16.209  1.2060 -1.9392 -1.2997
19078TIP3   OH278648   3.926   1.551   3.900 -0.3648 -0.2734 -0.6780
19078TIP3    H178649   3.963   1.637   3.920  0.7693 -0.9351  0.1408
19078TIP3    H278650   3.964   1.528   3.815 -1.4849  0.4760 -1.3959
19079TIP3   OH278651   4.125   2.835   3.311  0.1451  0.9320  0.2647
19079TIP3    H178652   4.101   2.744   3.293 -0.7311  1.1738  0.2077
19079TIP3    H278653   4.215   2.829   3.343  0.1129  0.0480  0.2266
19080TIP3   OH278654   5.893   1.199   4.958 -0.1498  0.1486 -0.3040
19080TIP3    H178655   5.892   1.109   4.992 -1.4076 -0.5721 -2.1380
19080TIP3    H278656   5.978   1.208   4.915  0.3407  0.1538  0.6476
19081TIP3   OH278657   6.466   0.900   2.825 -0.2161  0.2372  0.6070
19081TIP3    H178658   6.552   0.942   2.825 -0.6752  1.2118 -0.4508
19081TIP3    H278659   6.422   0.936   2.902 -0.0773  0.5798  0.5276
19082TIP3   OH278660   4.737   5.200   1.517 -0.4525  0.1613 -0.2166
19082TIP3    H178661   4.807   5.242   1.467 -1.6726 -0.5057 -2.5586
19082TIP3    H278662   4.760   5.216   1.609  1.7805  1.5217 -0.9745
19083TIP3   OH278663   1.573   0.551  10.647  0.4267 -0.2522  0.2378
19083TIP3    H178664   1.557   0.462  10.617  2.1522 -0.7502  0.7139
19083TIP3    H278665   1.509   0.564  10.717  0.5997 -1.3757  0.6263
19084TIP3   OH278666   3.043   4.520   1.253  0.3900  0.1782  0.2339
19084TIP3    H178667   3.003   4.561   1.176  1.6448 -1.1643 -1.1754
19084TIP3    H278668   3.101   4.587   1.289  0.4049  0.5453 -0.4748
19085TIP3   OH278669   5.255   0.215  16.671 -0.0321  0.1865  0.3571
19085TIP3    H178670   5.239   0.174  16.585 -1.0374 -1.8489  1.4666
19085TIP3    H278671   5.318   0.284  16.653  1.1151 -1.3338 -1.7638
19086TIP3   OH278672   5.319   3.428  15.864 -0.2433 -0.2493  0.1838
19086TIP3    H178673   5.369   3.348  15.848 -0.6694 -0.4495 -0.1926
19086TIP3    H278674   5.326   3.444  15.958  1.1385  0.1428  0.0187
19087TIP3   OH278675   1.389   5.012   3.264 -0.4096  0.4950  0.4748
19087TIP3    H178676   1.389   5.108   3.259 -0.8719  0.5092  0.6790
19087TIP3    H278677   1.330   4.993   3.337  0.4234  0.0828  1.0466
19088TIP3   OH278678   1.859   5.410  15.131 -0.0549 -0.0332 -0.4262
19088TIP3    H178679   1.877   5.402  15.037  0.3888  0.6860 -0.4081
19088TIP3    H278680   1.938   5.375  15.173  0.7330  1.7724 -0.3409
19089TIP3   OH278681   6.516   3.054  16.261 -0.0559  0.1426  0.3806
19089TIP3    H178682   6.559   3.116  16.320 -1.1788  0.4703  0.8807
19089TIP3    H278683   6.527   3.091  16.174  0.7021  0.1984  0.5033
19090TIP3   OH278684   4.219   1.093  17.064  0.4635  0.6170 -0.1813
19090TIP3    H178685   4.144   1.042  17.033  1.0361 -0.8507  0.8353
19090TIP3    H278686   4.200   1.182  17.034 -1.4007  0.1595 -0.4485
19091TIP3   OH278687   6.629   3.135  16.687  0.7390 -0.0437 -0.1466
19091TIP3    H178688   6.628   3.206  16.751 -1.2223  1.5297 -1.8466
19091TIP3    H278689   6.592   3.060  16.734 -0.4101  1.0151  0.6759
19092TIP3   OH278690   0.023   2.917  12.805  0.4211  0.5171  0.1031
19092TIP3    H178691   0.075   2.996  12.819 -0.8460  1.2129  0.9424
19092TIP3    H278692   0.058   2.853  12.867  1.6295  0.3102 -0.7665
19093TIP3   OH278693   2.956   0.738  12.873 -0.0333 -0.0556  0.6062
19093TIP3    H178694   2.989   0.768  12.958  2.2642  0.8611 -0.5657
19093TIP3    H278695   2.968   0.643  12.875  0.8086  0.0573  0.9933
19094TIP3   OH278696   4.699   1.675   2.661  0.1874 -0.4826 -0.3450
19094TIP3    H178697   4.746   1.755   2.641  0.7082 -0.3357  1.3997
19094TIP3    H278698   4.706   1.622   2.581  1.3103  0.4901 -0.9013
19095TIP3   OH278699   4.198   6.087  16.800 -0.1934  0.2763  0.4528
19095TIP3    H178700   4.191   5.999  16.764  0.5184  0.1459  0.6288
19095TIP3    H278701   4.119   6.098  16.854 -0.0947 -0.3836  0.7255
19096TIP3   OH278702   4.721   5.515  12.912  0.0108  0.1026 -0.3977
19096TIP3    H178703   4.639   5.499  12.865  0.3895  0.2158 -1.1075
19096TIP3    H278704   4.698   5.579  12.980 -0.5255 -0.0123 -0.4709
19097TIP3   OH278705   4.534   4.585  14.592 -0.0405 -0.4596  0.4269
19097TIP3    H178706   4.497   4.590  14.504  1.7852 -0.0335 -0.3209
19097TIP3    H278707   4.480   4.646  14.644  1.0480  1.9617 -1.1794
19098TIP3   OH278708   4.726   0.511  12.115  0.2686 -0.3616 -0.0843
19098TIP3    H178709   4.694   0.543  12.030  0.0102  1.0309  0.5291
19098TIP3    H278710   4.762   0.425  12.095  1.7864  0.6461 -1.9595
19099TIP3   OH278711   3.436   5.963   2.750  0.4184 -0.3412  0.6293
19099TIP3    H178712   3.529   5.969   2.770  1.0524 -1.7693 -1.6595
19099TIP3    H278713   3.425   5.876   2.711 -1.6734  0.1969 -0.0689
19100TIP3   OH278714   3.212   4.173   4.864 -0.4012 -0.5580 -0.0075
19100TIP3    H178715   3.204   4.114   4.939  0.7485 -1.5031 -0.6124
19100TIP3    H278716   3.123   4.200   4.845 -0.7452 -0.6502  1.4389
19101TIP3   OH278717   5.237   2.503  15.601  0.0257  0.0344  0.1250
19101TIP3    H178718   5.242   2.595  15.626 -1.1793  0.2537 -0.3819
19101TIP3    H278719   5.249   2.503  15.506 -0.4660 -0.2705  0.0581
19102TIP3   OH278720   6.548   1.031  11.630 -0.1587 -0.0042 -0.0506
19102TIP3    H178721   6.579   1.074  11.550  0.0094  1.3485  0.7322
19102TIP3    H278722   6.608   1.061  11.698  0.3664 -2.0105  0.4054
19103TIP3   OH278723   0.778   4.311  13.294 -0.2137 -0.3312  0.7835
19103TIP3    H178724   0.741   4.300  13.207 -0.0443 -1.7450  0.8676
19103TIP3    H278725   0.758   4.228  13.339 -3.5446  1.7173  3.3333
19104TIP3   OH278726   1.195   4.606  11.016 -0.3219  0.0362  0.2161
19104TIP3    H178727   1.285   4.575  11.004  0.2133  1.2983  0.8279
19104TIP3    H278728   1.164   4.626  10.928  1.4174  3.3722  0.2530
19105TIP3   OH278729   4.144   1.391  14.105  0.9914  0.4882  0.5884
19105TIP3    H178730   4.140   1.370  14.198  0.0388  1.7681  0.8619
19105TIP3    H278731   4.093   1.472  14.097 -1.7765 -1.3548 -1.5522
19106TIP3   OH278732   1.342   1.934   5.505 -0.4989  0.2564 -0.2573
19106TIP3    H178733   1.315   2.023   5.484  1.4195  1.8105  3.4881
19106TIP3    H278734   1.435   1.932   5.485  0.1154  0.0472  2.4967
19107TIP3   OH278735   2.470   1.862   4.369 -0.2453 -0.7272 -0.1558
19107TIP3    H178736   2.425   1.783   4.398  0.9849 -1.0755  0.8419
19107TIP3    H278737   2.557   1.857   4.409  0.3232  0.4557 -1.1920
19108TIP3   OH278738   6.054   6.742  14.504  0.3449  0.2312  0.0437
19108TIP3    H178739   5.994   6.815  14.489 -1.4313 -0.9904  1.1086
19108TIP3    H278740   6.000   6.664  14.494  2.0068 -0.9209 -0.0967
19109TIP3   OH278741   5.532   5.477   2.963 -0.3050 -0.0967  0.0820
19109TIP3    H178742   5.511   5.478   3.056  0.8162 -1.3154  0.3590
19109TIP3    H278743   5.490   5.398   2.929 -0.8497  0.4262 -0.4935
19110TIP3   OH278744   4.596   5.881   2.548 -0.2686  0.4149  0.6915
19110TIP3    H178745   4.592   5.948   2.480  3.2170 -1.2681 -1.3371
19110TIP3    H278746   4.530   5.816   2.523  1.8219 -0.7964 -1.8576
19111TIP3   OH278747   3.700   3.290  12.496 -0.0619  0.5534 -0.4053
19111TIP3    H178748   3.630   3.241  12.455  0.9579 -0.0022 -1.4937
19111TIP3    H278749   3.684   3.281  12.590  0.1918 -2.0025 -0.5734
19112TIP3   OH278750   5.123   4.044   1.100  0.2211 -0.2319  0.4670
19112TIP3    H178751   5.217   4.033   1.116  1.0094  0.9042 -2.8919
19112TIP3    H278752   5.099   4.124   1.146  1.0666 -0.1505  0.7718
19113TIP3   OH278753   1.761   6.014   5.865  0.3049  0.8076 -0.1366
19113TIP3    H178754   1.849   6.051   5.862  0.4517  0.6046  1.3508
19113TIP3    H278755   1.754   5.962   5.786  1.5230  0.8260 -0.2667
19114TIP3   OH278756   1.631   1.067  14.322  0.1945 -0.5625  1.0699
19114TIP3    H178757   1.714   1.027  14.350  1.4393  1.8029  0.9098
19114TIP3    H278758   1.651   1.103  14.236 -1.0543 -0.0570  0.9973
19115TIP3   OH278759   4.196   0.220   3.382  0.0238  0.0797  0.5478
19115TIP3    H178760   4.150   0.191   3.461  1.2290 -0.1485  1.1708
19115TIP3    H278761   4.175   0.313   3.375  0.5764  0.2956  1.6054
19116TIP3   OH278762   6.020   3.709   4.802  0.4326 -0.0769 -0.4941
19116TIP3    H178763   5.986   3.634   4.850  1.1612  0.3865  0.7583
19116TIP3    H278764   5.987   3.785   4.849  1.0618  0.3860 -0.7891
19117TIP3   OH278765   4.543   6.368   1.113 -0.1875  0.2780 -0.1380
19117TIP3    H178766   4.554   6.280   1.076 -1.5552  0.4086 -0.8854
19117TIP3    H278767   4.558   6.427   1.040  1.2362  0.6956  0.4821
19118TIP3   OH278768   3.445   2.720   0.964 -0.0351  0.3474 -0.2161
19118TIP3    H178769   3.526   2.670   0.953 -0.1230 -0.3654  2.0758
19118TIP3    H278770   3.441   2.738   1.058 -3.2186 -0.7751 -0.0944
19119TIP3   OH278771   2.319   1.614   4.122 -0.0910  0.1709  0.0705
19119TIP3    H178772   2.233   1.623   4.163 -0.4723 -0.6887 -0.5422
19119TIP3    H278773   2.351   1.704   4.115 -1.3008  0.5767 -0.4682
19120TIP3   OH278774   1.554   0.508  16.773  0.9228  0.2036  0.2279
19120TIP3    H178775   1.635   0.559  16.783 -0.2105  2.2864 -0.8648
19120TIP3    H278776   1.510   0.548  16.698 -0.7793 -1.3701  0.3660
19121TIP3   OH278777   4.871   4.121   0.675  0.4873  0.1726 -0.2897
19121TIP3    H178778   4.851   4.154   0.588  1.0859 -0.5603 -0.7137
19121TIP3    H278779   4.806   4.052   0.690 -0.5665  1.3238  0.4671
19122TIP3   OH278780   5.691   0.837   1.421 -0.1596  0.0738 -0.3718
19122TIP3    H178781   5.713   0.786   1.499 -2.8743 -0.0109  0.3929
19122TIP3    H278782   5.690   0.928   1.452 -0.0344  0.1475 -0.5896
19123TIP3   OH278783   3.776   5.811   5.681  0.2623  0.3105  0.4216
19123TIP3    H178784   3.742   5.726   5.708 -1.3169  0.5448 -0.7668
19123TIP3    H278785   3.844   5.791   5.617  0.1727 -0.0772  0.4489
19124TIP3   OH278786   4.773   2.642  16.000 -0.1948  0.1814 -0.3025
19124TIP3    H178787   4.715   2.636  15.923 -0.4224  1.6050 -0.2553
19124TIP3    H278788   4.846   2.697  15.971  0.7571 -0.9744 -0.1161
19125TIP3   OH278789   6.313   2.891   4.906  0.2219  0.2139 -0.3026
19125TIP3    H178790   6.363   2.969   4.928  1.5381 -0.3487 -1.2281
19125TIP3    H278791   6.251   2.920   4.840  0.0412  0.6839  0.0711
19126TIP3   OH278792   4.903   0.224  14.272  0.0341  0.4258 -0.1908
19126TIP3    H178793   4.826   0.170  14.253 -0.4096  1.3141 -0.9794
19126TIP3    H278794   4.909   0.225  14.368 -0.1558 -0.7303 -0.1616
19127TIP3   OH278795   2.450   1.785   1.382 -0.1307 -0.4036 -0.2765
19127TIP3    H178796   2.429   1.752   1.469  0.8909 -0.2460  0.0395
19127TIP3    H278797   2.494   1.712   1.339 -0.2687 -0.3445 -0.5181
19128TIP3   OH278798   5.861   4.803   4.911  0.3965 -0.1327  0.6792
19128TIP3    H178799   5.932   4.747   4.940 -0.0872  0.3168  2.7674
19128TIP3    H278800   5.899   4.890   4.905  0.0272  0.1042  1.7752
19129TIP3   OH278801   2.540   6.616   0.452  0.0476  0.3554  0.0192
19129TIP3    H178802   2.575   6.594   0.366  2.6710 -0.0100  1.1324
19129TIP3    H278803   2.512   6.532   0.488 -0.4639  0.4198 -0.2288
19130TIP3   OH278804   0.900   3.972  11.031  0.8093 -0.0273  0.5112
19130TIP3    H178805   0.816   3.962  11.075  1.5854 -1.1158  1.7742
19130TIP3    H278806   0.884   3.942  10.942  0.3691 -2.2593  1.3056
19131TIP3   OH278807   6.568   5.006  13.861 -0.9192 -0.6380 -0.1496
19131TIP3    H178808   6.571   5.016  13.956  0.5192  0.4958 -0.3036
19131TIP3    H278809   6.512   5.078  13.831 -0.0820 -0.0433 -0.2902
19132TIP3   OH278810   3.535   1.061  15.129 -0.4446 -0.3475  0.1738
19132TIP3    H178811   3.451   1.105  15.114  0.1519  1.1439  1.0889
19132TIP3    H278812   3.530   1.034  15.221  0.8584  1.5384  0.8369
19133TIP3   OH278813   5.036   5.217   0.778 -0.1464 -0.2050 -0.5579
19133TIP3    H178814   5.015   5.126   0.800  0.1614  0.0999  1.0359
19133TIP3    H278815   5.094   5.246   0.848  0.7646  0.8429 -1.7225
19134TIP3   OH278816   5.110   2.150  14.173  0.2369 -0.1284 -0.0622
19134TIP3    H178817   5.090   2.065  14.135 -0.1149 -0.0515 -0.0511
19134TIP3    H278818   5.081   2.214  14.108 -0.0661 -0.0054  0.1904
19135TIP3   OH278819   1.170   4.252  12.065 -0.0249 -0.0366 -0.0923
19135TIP3    H178820   1.243   4.190  12.063 -1.2884 -1.5315 -2.6185
19135TIP3    H278821   1.211   4.338  12.058  1.4833 -0.8926 -2.4372
19136TIP3   OH278822   6.783   3.204  11.487 -0.0931  0.2330  0.5497
19136TIP3    H178823   6.790   3.210  11.391  1.7769  1.0343  0.7174
19136TIP3    H278824   6.692   3.180  11.502  0.4796 -3.7371 -1.5761
19137TIP3   OH278825   6.144   2.177  11.458  0.4487  0.3091 -0.1890
19137TIP3    H178826   6.138   2.263  11.416 -0.3313  0.1180 -0.4726
19137TIP3    H278827   6.175   2.119  11.388 -0.5623  0.0498 -0.4293
19138TIP3   OH278828   0.543   3.207   5.256  0.5862 -0.2275 -0.3090
19138TIP3    H178829   0.617   3.253   5.297  1.1718 -2.0585  0.7534
19138TIP3    H278830   0.466   3.239   5.303  1.1060 -1.1775  1.2217
19139TIP3   OH278831   1.100   0.770   2.846  0.2369 -0.2452 -0.5681
19139TIP3    H178832   1.126   0.780   2.754  2.1367 -0.9762 -0.1360
19139TIP3    H278833   1.173   0.808   2.895 -1.5309  1.7439  0.6286
19140TIP3   OH278834   4.440   5.582   5.257  0.3928 -0.5965  0.3689
19140TIP3    H178835   4.470   5.619   5.339  0.8783 -1.7286  0.7165
19140TIP3    H278836   4.421   5.490   5.277  1.0867 -1.0397 -0.9097
19141TIP3   OH278837   6.214   5.262   4.633  0.5489 -0.3518 -0.9415
19141TIP3    H178838   6.152   5.315   4.584 -0.5889 -0.0526  0.8069
19141TIP3    H278839   6.266   5.218   4.565 -0.9357  0.1112 -2.4100
19142TIP3   OH278840   3.382   0.172  13.242  0.0060 -0.2880 -0.3034
19142TIP3    H178841   3.384   0.206  13.332  1.4786  2.4433 -1.2981
19142TIP3    H278842   3.474   0.154  13.222 -0.3384 -1.0435 -1.2064
19143TIP3   OH278843   0.079   3.502   5.703 -0.5393 -0.2155  0.2985
19143TIP3    H178844   0.054   3.414   5.675 -0.9472 -0.3431  1.0500
19143TIP3    H278845   0.012   3.559   5.665  0.0202 -0.1600 -0.6324
19144TIP3   OH278846   5.329   1.562  11.198 -0.3097 -0.4524 -0.2079
19144TIP3    H178847   5.342   1.541  11.106  0.6955 -1.7071  0.2015
19144TIP3    H278848   5.337   1.477  11.243  1.6314  0.4766  1.2800
19145TIP3   OH278849   6.656   4.578  16.739  0.4703 -0.3262 -0.0349
19145TIP3    H178850   6.697   4.632  16.806  2.4047 -0.8630 -0.7727
19145TIP3    H278851   6.622   4.642  16.675  1.8226  0.0527 -0.3797
19146TIP3   OH278852   1.629   1.327   3.389 -0.0523 -0.5742  0.1643
19146TIP3    H178853   1.584   1.349   3.471  0.5362 -1.1306  0.6356
19146TIP3    H278854   1.713   1.292   3.417  0.5614  0.1942 -0.7119
19147TIP3   OH278855   6.279   2.793   0.324  0.1791 -0.1622  0.3927
19147TIP3    H178856   6.220   2.720   0.341  0.2531 -0.2094  0.4455
19147TIP3    H278857   6.273   2.848   0.402 -0.1701  0.0865  0.1888
19148TIP3   OH278858   4.352   4.035  12.599  0.1469  0.4770  0.0123
19148TIP3    H178859   4.409   3.994  12.663  0.7445  0.9350 -0.2182
19148TIP3    H278860   4.264   4.024  12.635  0.2640 -1.3404 -0.2593
19149TIP3   OH278861   6.265   5.517  16.259  0.0364 -0.2046 -0.3980
19149TIP3    H178862   6.309   5.579  16.201  1.7267 -0.0273  1.0267
19149TIP3    H278863   6.323   5.440  16.261  0.2667 -0.0251  1.3805
19150TIP3   OH278864   0.482   0.472  11.430 -0.3128 -0.3318 -0.2682
19150TIP3    H178865   0.528   0.501  11.509 -0.1838 -0.5903 -0.2467
19150TIP3    H278866   0.439   0.551  11.397  0.1287 -0.0919 -0.2740
19151TIP3   OH278867   5.951   3.821   3.077 -0.0516 -0.3323  0.1518
19151TIP3    H178868   5.980   3.760   3.145 -0.4699 -1.0322 -0.2921
19151TIP3    H278869   6.030   3.836   3.024 -0.1779 -1.2313 -0.2982
19152TIP3   OH278870   6.147   5.582   0.567  0.3066 -1.0847  0.0431
19152TIP3    H178871   6.234   5.559   0.533  1.0853  1.4440  0.2526
19152TIP3    H278872   6.100   5.618   0.491  1.1965  2.2405  0.9959
19153TIP3   OH278873   2.797   4.406   4.382 -0.2344 -0.2159 -0.1502
19153TIP3    H178874   2.734   4.335   4.381  0.8216 -1.1687 -1.9940
19153TIP3    H278875   2.879   4.366   4.412 -0.6889  1.2106  3.1756
19154TIP3   OH278876   0.684   0.771  14.817 -0.1808 -0.1441 -0.2514
19154TIP3    H178877   0.764   0.718  14.825  0.4844  1.0243  1.0749
19154TIP3    H278878   0.715   0.860  14.803 -1.1504  0.7909  3.0484
19155TIP3   OH278879   1.473   4.817   4.734  0.4086 -0.4369  0.4028
19155TIP3    H178880   1.519   4.794   4.653 -0.6526 -0.9052 -0.0884
19155TIP3    H278881   1.499   4.749   4.796 -1.8636 -2.4311 -0.7297
19156TIP3   OH278882   2.858   2.376   4.882  0.0697  0.0548 -0.2164
19156TIP3    H178883   2.922   2.317   4.842  0.2612  0.1382 -0.0280
19156TIP3    H278884   2.909   2.450   4.914 -0.1699  0.3048 -0.4172
19157TIP3   OH278885   0.671   5.946   3.852 -0.1184  0.1312 -0.0777
19157TIP3    H178886   0.642   5.892   3.926  0.4603 -0.0795 -0.0044
19157TIP3    H278887   0.701   5.884   3.786 -0.6826  0.3197 -0.5144
19158TIP3   OH278888   5.984   4.880   1.189 -0.1725  0.3721  0.3395
19158TIP3    H178889   5.902   4.908   1.150  0.5116  0.5984 -0.9479
19158TIP3    H278890   5.958   4.820   1.259 -1.3736 -0.8671 -1.1374
19159TIP3   OH278891   4.035   3.296  12.001 -0.2122  0.3012  0.1340
19159TIP3    H178892   4.025   3.376  11.950  0.4575  0.3740  0.1085
19159TIP3    H278893   4.102   3.246  11.955  0.1055  0.1856  0.7144
19160TIP3   OH278894   2.287   1.308  15.594  0.3719 -0.4218 -0.1315
19160TIP3    H178895   2.249   1.266  15.517  0.3655 -2.2494  0.8457
19160TIP3    H278896   2.214   1.355  15.635  0.1402 -0.3404 -0.6356
19161TIP3   OH278897   0.476   6.167  12.159 -0.2608  0.4517 -0.1942
19161TIP3    H178898   0.531   6.089  12.150 -1.0502  0.1762 -2.9721
19161TIP3    H278899   0.536   6.240  12.146  0.1361  0.2605  0.5421
19162TIP3   OH278900   4.958   4.780   0.632 -0.0740 -0.2441  0.4701
19162TIP3    H178901   5.048   4.765   0.601 -0.2538 -0.3499 -0.0034
19162TIP3    H278902   4.968   4.843   0.704  0.2269  0.9855 -0.6332
19163TIP3   OH278903   1.507   2.381   0.211  0.3127 -0.3014  0.4097
19163TIP3    H178904   1.473   2.311   0.155  1.2444 -1.8763  1.7638
19163TIP3    H278905   1.513   2.342   0.298  0.2959  1.6607  1.3226
19164TIP3   OH278906   6.484   1.609   3.055 -0.3717 -0.7499 -0.1117
19164TIP3    H178907   6.399   1.641   3.025 -0.3955  0.9288  1.6179
19164TIP3    H278908   6.468   1.517   3.077 -2.0069 -0.2151  1.0901
19165TIP3   OH278909   4.066   4.439  16.114  0.4892 -0.2977 -0.4266
19165TIP3    H178910   4.058   4.383  16.191 -0.5348 -0.0392 -0.3411
19165TIP3    H278911   4.075   4.377  16.041  0.1034 -0.5580 -0.2535
19166TIP3   OH278912   5.285   6.258   3.592 -0.1104  0.4275  0.5652
19166TIP3    H178913   5.377   6.268   3.568 -0.4291 -0.1771 -0.9798
19166TIP3    H278914   5.269   6.327   3.656  1.3571  0.6792  0.6782
19167TIP3   OH278915   3.338   6.353   5.174  0.3806 -0.1866  0.1545
19167TIP3    H178916   3.404   6.390   5.232  0.4195  1.1995 -0.7454
19167TIP3    H278917   3.360   6.388   5.087 -0.5009 -1.1023 -0.4588
19168TIP3   OH278918   6.321   4.225  11.319  0.4250  0.5930 -0.0627
19168TIP3    H178919   6.254   4.158  11.331  0.7065  0.0406 -1.4705
19168TIP3    H278920   6.357   4.239  11.406  2.0122 -2.7908 -0.1174
19169TIP3   OH278921   5.675   6.298   5.414 -0.2897 -0.4352 -0.0726
19169TIP3    H178922   5.624   6.239   5.360  0.7771 -2.1514  0.7459
19169TIP3    H278923   5.610   6.350   5.461 -1.2909 -2.0958  0.4218
19170TIP3   OH278924   2.464   0.932   3.419 -0.1417  0.0477  0.1661
19170TIP3    H178925   2.535   0.912   3.358 -0.1160 -1.7900  0.7926
19170TIP3    H278926   2.506   0.984   3.488  0.5491 -0.8200  0.4056
19171TIP3   OH278927   1.135   4.497  15.317 -0.1111 -0.6612 -0.0686
19171TIP3    H178928   1.066   4.558  15.291  0.7112  0.1795 -0.3403
19171TIP3    H278929   1.148   4.441  15.241 -1.8945 -2.1499  0.7074
19172TIP3   OH278930   2.884   0.788  10.881  0.1183  0.0212 -0.4557
19172TIP3    H178931   2.867   0.817  10.970 -1.5297 -1.8809 -0.1122
19172TIP3    H278932   2.960   0.729  10.889 -0.0295 -0.1477 -0.3121
19173TIP3   OH278933   5.352   6.624   3.517 -0.3207  0.0356 -0.6608
19173TIP3    H178934   5.324   6.565   3.448 -3.2644  0.2360  0.2992
19173TIP3    H278935   5.335   6.712   3.482  0.9524  0.2429 -0.7978
19174TIP3   OH278936   6.442   4.439   2.311  0.4934 -0.1775  0.2345
19174TIP3    H178937   6.390   4.519   2.314 -0.8024 -0.9589 -0.8846
19174TIP3    H278938   6.481   4.438   2.224 -0.0950 -1.1137 -0.0311
19175TIP3   OH278939   4.178   3.443   6.292  0.1018 -0.3406 -0.5598
19175TIP3    H178940   4.181   3.382   6.366  1.3642  1.8719  1.3085
19175TIP3    H278941   4.221   3.522   6.325  0.0888  0.9485 -3.4790
19176TIP3   OH278942   0.442   0.951  11.141 -0.0436  0.3499 -0.0309
19176TIP3    H178943   0.475   1.033  11.103 -0.6660  1.3590  1.5601
19176TIP3    H278944   0.348   0.953  11.126 -0.1399  0.2157  0.5158
19177TIP3   OH278945   1.970   6.292   2.803 -0.9502 -0.0071  0.0093
19177TIP3    H178946   1.887   6.318   2.843  0.2322  2.0993  1.2156
19177TIP3    H278947   2.037   6.331   2.860  0.8375  0.1215 -2.1132
19178TIP3   OH278948   5.081   4.441  15.351 -0.4375  0.3186 -0.0035
19178TIP3    H178949   4.993   4.413  15.374 -0.0243 -0.9810  0.0052
19178TIP3    H278950   5.126   4.449  15.436  0.2415 -1.6776 -0.1529
19179TIP3   OH278951   3.547   3.319  15.453 -0.5235 -0.8390  0.3682
19179TIP3    H178952   3.556   3.248  15.391  1.0146  0.4978 -0.9987
19179TIP3    H278953   3.456   3.348  15.445 -1.9599 -4.3284  2.8925
19180TIP3   OH278954   4.001   2.895   5.963 -0.0046 -0.0638 -0.4199
19180TIP3    H178955   4.056   2.907   6.041 -0.3859 -0.7358 -0.0506
19180TIP3    H278956   3.924   2.848   5.994 -0.5921  0.4884 -1.0262
19181TIP3   OH278957   4.593   1.487   5.698  0.1179  0.1116 -0.2169
19181TIP3    H178958   4.590   1.519   5.607  1.1186  0.8758  0.0132
19181TIP3    H278959   4.514   1.433   5.707  0.2106 -0.2891 -1.6636
19182TIP3   OH278960   6.137   4.500  15.935  0.3586 -0.1806  0.5122
19182TIP3    H178961   6.208   4.559  15.961 -0.2822  0.4409  0.8548
19182TIP3    H278962   6.060   4.532  15.982 -0.3022 -0.4496 -0.3645
19183TIP3   OH278963   4.339   2.980  12.911 -0.4534  0.5862  0.1772
19183TIP3    H178964   4.427   2.962  12.880  0.3363  2.7400  1.0257
19183TIP3    H278965   4.327   2.922  12.986 -0.3966 -0.8870 -0.9403
19184TIP3   OH278966   4.323   5.272  11.613 -0.4333  1.0361 -0.0250
19184TIP3    H178967   4.327   5.233  11.525 -1.6771 -1.3650  0.9420
19184TIP3    H278968   4.233   5.259  11.641 -0.3242  2.7312  1.2335
19185TIP3   OH278969   3.349   4.435   5.984  0.3634  0.0526  0.2416
19185TIP3    H178970   3.336   4.428   6.078  2.6533  0.6809  0.6235
19185TIP3    H278971   3.404   4.513   5.972  1.0119 -0.6383 -1.5017
19186TIP3   OH278972   4.017   6.628  16.978 -0.5709  0.0365 -0.0432
19186TIP3    H178973   4.018   6.604  17.070  0.0427  0.3081  0.0245
19186TIP3    H278974   4.023   6.724  16.978 -1.3176  0.0862 -0.3507
19187TIP3   OH278975   6.372   2.154   1.687 -0.0473  0.2718  0.5379
19187TIP3    H178976   6.413   2.240   1.692 -1.0178  0.9453 -2.5195
19187TIP3    H278977   6.426   2.105   1.625 -0.6442 -0.7092  0.7715
19188TIP3   OH278978   2.199   4.422   5.530  0.2592 -0.2714 -0.0630
19188TIP3    H178979   2.232   4.492   5.473 -0.0737  0.6859  0.9048
19188TIP3    H278980   2.261   4.350   5.519 -0.6505 -0.6876 -2.8476
19189TIP3   OH278981   2.181   3.881   4.361 -0.2670  0.0959  0.0396
19189TIP3    H178982   2.221   3.948   4.306 -0.0121 -0.9778 -1.1099
19189TIP3    H278983   2.162   3.926   4.444 -0.8732  1.8011 -0.9867
19190TIP3   OH278984   3.658   5.294   2.657  0.4426 -0.0692  0.4734
19190TIP3    H178985   3.563   5.302   2.645  0.5852 -0.0609 -0.6772
19190TIP3    H278986   3.670   5.207   2.695 -0.0541  0.0588  0.9235
19191TIP3   OH278987   4.895   2.668   6.373 -0.3719 -1.2919 -1.0622
19191TIP3    H178988   4.941   2.586   6.387  1.5441  0.3322  2.7348
19191TIP3    H278989   4.957   2.721   6.322 -0.0167 -0.8283 -0.1489
19192TIP3   OH278990   1.716   1.448  15.502  0.0991 -0.1540  0.9868
19192TIP3    H178991   1.792   1.448  15.443 -1.2470 -0.2900 -0.7629
19192TIP3    H278992   1.675   1.533  15.488  1.2960  0.9373  3.7671
19193TIP3   OH278993   3.319   4.406   6.255 -0.0331 -0.0360  0.0714
19193TIP3    H178994   3.224   4.396   6.251  0.1777 -2.0326 -0.6426
19193TIP3    H278995   3.348   4.336   6.313  0.8777  1.6377  1.6885
19194TIP3   OH278996   1.048   3.102   0.567 -0.2358 -0.0841  0.0565
19194TIP3    H178997   1.041   3.164   0.640 -3.0462 -0.4100  0.1079
19194TIP3    H278998   0.960   3.065   0.559  0.8084 -2.2667 -1.5683
19195TIP3   OH278999   4.406   3.721   0.199 -0.1053  0.2587  0.0108
19195TIP3    H179000   4.409   3.813   0.176 -0.3232 -0.0142 -1.1307
19195TIP3    H279001   4.332   3.686   0.150  0.0766 -0.5606  0.3045
19196TIP3   OH279002   1.726   0.384   2.762 -0.2358  0.5697  0.7095
19196TIP3    H179003   1.730   0.471   2.803  0.6115  1.4152 -1.1129
19196TIP3    H279004   1.664   0.395   2.689 -1.9361 -0.9772  1.8791
19197TIP3   OH279005   0.612   4.123   4.556  0.4890 -0.1834  0.3287
19197TIP3    H179006   0.546   4.130   4.625 -0.3170 -0.4557 -0.4087
19197TIP3    H279007   0.625   4.213   4.527 -1.0242 -0.3410 -0.8829
19198TIP3   OH279008   3.297   6.669   1.299  0.4204  0.2618 -0.0029
19198TIP3    H179009   3.244   6.592   1.276 -1.4890  1.2214  1.0544
19198TIP3    H279010   3.358   6.638   1.366 -1.5993  0.0699  1.7874
19199TIP3   OH279011   3.675   6.216   3.284  0.1106  0.0853 -0.0862
19199TIP3    H179012   3.588   6.202   3.246  0.4145 -0.5246 -0.5573
19199TIP3    H279013   3.731   6.237   3.209  0.6054 -0.6235  0.0751
19200TIP3   OH279014   4.859   5.363  12.649 -0.1424 -0.4044  0.1792
19200TIP3    H179015   4.851   5.356  12.553 -1.0121 -0.2848  0.2390
19200TIP3    H279016   4.769   5.369  12.680  0.1956  1.3807  0.8744
19201TIP3   OH279017   2.264   3.912  11.600  0.4161 -0.2683  0.7346
19201TIP3    H179018   2.245   3.998  11.561  0.9401 -0.1398  0.7524
19201TIP3    H279019   2.352   3.922  11.637  0.7909 -1.0427  0.0731
19202TIP3   OH279020   4.799   2.820  10.651  1.0211  0.4531 -0.1481
19202TIP3    H179021   4.871   2.879  10.669  0.8980  0.5641 -0.0146
19202TIP3    H279022   4.749   2.864  10.582  0.7809  0.6306  0.1371
19203TIP3   OH279023   5.079   0.450  11.855 -0.0026  0.2768  0.7150
19203TIP3    H179024   5.073   0.361  11.889  0.9584 -0.1542 -0.2313
19203TIP3    H279025   5.138   0.495  11.915  0.1651  0.0427  0.7266
19204TIP3   OH279026   6.516   3.025   5.389 -0.5529  0.3671  0.0872
19204TIP3    H179027   6.426   3.055   5.377 -0.5406  0.3634 -0.0129
19204TIP3    H279028   6.569   3.085   5.336 -0.3113  1.5104  1.5607
19205TIP3   OH279029   0.314   4.734  11.104  0.1408  0.2796  0.3814
19205TIP3    H179030   0.303   4.655  11.051 -0.5494 -0.3115  1.4058
19205TIP3    H279031   0.300   4.806  11.042  0.6218 -0.3959 -0.5235
19206TIP3   OH279032   1.797   6.651   3.857 -0.0645  0.0987  0.1891
19206TIP3    H179033   1.807   6.670   3.950 -0.2768  1.0044  0.0305
19206TIP3    H279034   1.720   6.702   3.830  0.2704  0.2059 -0.5804
19207TIP3   OH279035   3.064   6.408   3.764 -0.0872 -0.5565  0.4007
19207TIP3    H179036   3.097   6.403   3.675  0.5976  0.6571  0.5747
19207TIP3    H279037   3.105   6.335   3.809 -0.6490 -1.3368 -0.3392
19208TIP3   OH279038   4.780   1.060   1.931  0.3193 -0.5646 -0.1380
19208TIP3    H179039   4.864   1.027   1.900  0.7075  0.4064 -0.1414
19208TIP3    H279040   4.720   1.046   1.857  0.6022 -0.7916 -0.3225
19209TIP3   OH279041   6.183   4.099  11.059  0.0893  0.3030  0.2056
19209TIP3    H179042   6.229   4.179  11.036  3.6048 -1.5912  0.2576
19209TIP3    H279043   6.151   4.064  10.976  0.7818  0.4903 -0.1444
19210TIP3   OH279044   4.123   5.858   3.823 -0.2744  0.4883  0.1371
19210TIP3    H179045   4.062   5.822   3.888 -0.7517 -0.8705 -1.0412
19210TIP3    H279046   4.105   5.952   3.823 -2.8514  0.0372 -0.6592
19211TIP3   OH279047   4.362   5.726   4.598  0.0226  0.7633  0.7593
19211TIP3    H179048   4.427   5.763   4.658  0.0734 -0.7821  1.6925
19211TIP3    H279049   4.396   5.639   4.577 -1.1816  0.3929  0.3360
19212TIP3   OH279050   2.860   4.333   5.180 -0.3159 -0.7405  0.4242
19212TIP3    H179051   2.894   4.244   5.193 -0.2764 -0.6913  0.6623
19212TIP3    H279052   2.867   4.374   5.267 -1.3030 -0.8392  0.5511
19213TIP3   OH279053   3.994   3.302  16.606  0.1423 -0.2607  0.3056
19213TIP3    H179054   3.982   3.350  16.688 -0.5923 -0.4226  0.2867
19213TIP3    H279055   3.977   3.211  16.629 -1.2620 -0.1499 -0.3009
19214TIP3   OH279056   1.358   6.149  14.766  0.2729 -0.1528 -0.4224
19214TIP3    H179057   1.274   6.122  14.728  1.5254 -0.0001 -3.4010
19214TIP3    H279058   1.352   6.245  14.771 -0.4887 -0.2630  1.3169
19215TIP3   OH279059   3.000   0.155  14.195  0.3995  0.2675  0.4318
19215TIP3    H179060   2.915   0.123  14.225 -0.2551  1.1881 -0.4006
19215TIP3    H279061   2.990   0.160  14.100  1.9071 -1.1034  0.1848
19216TIP3   OH279062   6.038   3.746   0.186  0.1811  0.0902 -0.2876
19216TIP3    H179063   6.094   3.671   0.162 -0.7128 -1.2684  1.7209
19216TIP3    H279064   5.949   3.715   0.170 -0.1488  1.3090 -0.9062
19217TIP3   OH279065   5.781   2.572  13.320 -0.5828  0.2163 -0.6528
19217TIP3    H179066   5.736   2.624  13.254 -0.6880  0.2362 -0.5643
19217TIP3    H279067   5.816   2.498  13.271 -1.5875 -0.3379 -0.5495
19218TIP3   OH279068   3.265   4.414  13.811  0.1246 -0.8448 -0.2641
19218TIP3    H179069   3.247   4.448  13.898 -0.2557 -1.6000 -0.0452
19218TIP3    H279070   3.214   4.470  13.752 -1.5851 -1.8696  0.2047
19219TIP3   OH279071   3.051   0.540  13.602  0.1430 -0.5149  0.7099
19219TIP3    H179072   2.982   0.559  13.538 -1.3933  0.1835  2.5017
19219TIP3    H279073   3.068   0.446  13.592  0.3372 -0.3022 -1.0891
19220TIP3   OH279074   3.075   1.137   0.026 -0.2087  0.3707 -0.2909
19220TIP3    H179075   3.118   1.199   0.085 -0.7630  0.6153 -0.1338
19220TIP3    H279076   3.138   1.065   0.016 -0.0907  0.3443  0.5748
19221TIP3   OH279077   0.922   6.583   5.607  0.2285 -0.2474 -0.4192
19221TIP3    H179078   0.986   6.608   5.540  1.2841  1.2110  1.1048
19221TIP3    H279079   0.846   6.637   5.589  0.5774  0.2735 -0.3273
19222TIP3   OH279080   5.689   6.221  12.797  0.2594  0.1214 -0.0560
19222TIP3    H179081   5.622   6.169  12.841  0.9631 -0.5533  0.2257
19222TIP3    H279082   5.697   6.300  12.851 -0.9626  0.6243 -0.6062
19223TIP3   OH279083   4.124   0.852  12.310  0.6491 -0.1464 -0.3309
19223TIP3    H179084   4.202   0.878  12.260  0.5270  0.1858 -0.3510
19223TIP3    H279085   4.144   0.764  12.340  1.9872  0.7714  1.5988
19224TIP3   OH279086   2.434   5.569   4.148  0.2032  0.4494  0.3817
19224TIP3    H179087   2.387   5.493   4.115 -1.1856  0.2990  2.5694
19224TIP3    H279088   2.504   5.533   4.202  0.8954  0.7115 -0.3297
19225TIP3   OH279089   1.732   3.435   4.963 -0.1173 -0.7142 -0.2430
19225TIP3    H179090   1.678   3.457   4.887  0.7387 -1.3064 -1.0494
19225TIP3    H279091   1.822   3.444   4.931  0.3132  1.9935  1.5708
19226TIP3   OH279092   6.328   4.361   4.776 -0.2379 -0.5219 -0.7275
19226TIP3    H179093   6.360   4.439   4.730  0.3032  0.0596  0.6328
19226TIP3    H279094   6.389   4.348   4.848 -1.4635 -1.0379  0.2358
19227TIP3   OH279095   2.160   1.305  13.246  0.2685 -0.0243 -0.4251
19227TIP3    H179096   2.087   1.285  13.187 -0.3015  0.2445  0.1899
19227TIP3    H279097   2.227   1.240  13.224 -0.2059 -0.3583 -0.8913
19228TIP3   OH279098   1.607   4.606   0.089 -0.1345 -0.6063 -0.1475
19228TIP3    H179099   1.611   4.523   0.042  1.3835 -0.0159 -1.0885
19228TIP3    H279100   1.513   4.624   0.096 -0.4908 -2.4573  0.1908
19229TIP3   OH279101   0.822   5.320  11.596 -0.8738 -0.2443 -0.6515
19229TIP3    H179102   0.838   5.399  11.648 -1.0724 -0.0578 -0.8742
19229TIP3    H279103   0.903   5.269  11.604 -1.3361 -0.7656  0.7938
19230TIP3   OH279104   3.898   4.590  15.947 -0.3858  0.5668  0.0836
19230TIP3    H179105   3.944   4.655  15.894 -0.0895 -1.2067 -1.9146
19230TIP3    H279106   3.962   4.562  16.012  0.5445 -0.0461 -1.0797
19231TIP3   OH279107   5.261   3.429  11.472 -0.7099  0.5360 -0.2216
19231TIP3    H179108   5.313   3.509  11.467 -0.5834  0.5583  1.1542
19231TIP3    H279109   5.194   3.448  11.538 -0.3625 -0.6718  0.5026
19232TIP3   OH279110   3.346   6.682  14.643 -0.1670 -0.1056 -0.2694
19232TIP3    H179111   3.331   6.599  14.688  0.9555 -0.7685 -1.0806
19232TIP3    H279112   3.364   6.658  14.553 -2.1721  1.2022 -1.0637
19233TIP3   OH279113   3.879   3.470   2.970  0.3778  0.0445 -0.0636
19233TIP3    H179114   3.899   3.378   2.951 -0.8897 -0.2298 -0.1205
19233TIP3    H279115   3.959   3.504   3.009  1.1951 -0.8332 -0.9122
19234TIP3   OH279116   1.807   2.460  11.198  0.7113 -0.1559  1.3631
19234TIP3    H179117   1.799   2.497  11.110  2.1262  1.5109  1.9252
19234TIP3    H279118   1.789   2.367  11.185  1.4681 -0.0497 -0.8021
19235TIP3   OH279119   4.308   2.539   0.504  0.7525  0.1491 -0.5523
19235TIP3    H179120   4.305   2.634   0.489 -2.0952  0.2321  0.2886
19235TIP3    H279121   4.230   2.521   0.557  0.5882 -2.8539 -1.7531
19236TIP3   OH279122   6.022   4.791  11.230 -0.3571  0.0012  0.0555
19236TIP3    H179123   6.032   4.886  11.226 -1.1802  0.0815 -0.1929
19236TIP3    H279124   6.012   4.772  11.324  3.2273 -0.2279  0.4799
19237TIP3   OH279125   0.301   1.819   0.156 -0.1213  0.7071 -0.4251
19237TIP3    H179126   0.372   1.786   0.101 -0.5887 -0.4091 -0.3692
19237TIP3    H279127   0.318   1.913   0.163  0.3475  0.7499 -1.8912
19238TIP3   OH279128   0.181   3.551   0.042 -0.6745 -0.2293 -0.5336
19238TIP3    H179129   0.239   3.611   0.089 -1.5410 -0.2245  0.5682
19238TIP3    H279130   0.112   3.530   0.106 -1.6806 -0.5097 -1.6987
19239TIP3   OH279131   6.476   6.218  11.258 -0.5123  0.0808 -0.0236
19239TIP3    H179132   6.484   6.150  11.190 -0.6124 -1.2928  1.3251
19239TIP3    H279133   6.476   6.170  11.340 -0.0325  1.7733  0.9822
19240TIP3   OH279134   5.311   5.618   2.931 -0.6186 -0.4903 -0.1893
19240TIP3    H179135   5.386   5.559   2.940  0.2783  0.4792 -1.1645
19240TIP3    H279136   5.281   5.606   2.841 -0.9593 -0.0943 -0.1318
19241TIP3   OH279137   0.954   4.306   2.107  0.0251 -0.3136  0.2807
19241TIP3    H179138   0.871   4.318   2.153  0.4587 -0.0551  1.0005
19241TIP3    H279139   0.940   4.348   2.022 -0.5408 -0.1625  0.4447
19242TIP3   OH279140   4.028   1.791   4.039  0.2627  0.5488  0.2592
19242TIP3    H179141   4.036   1.886   4.050  1.1508  0.6323 -0.9380
19242TIP3    H279142   3.950   1.767   4.088  0.0262  1.9023  0.5606
19243TIP3   OH279143   0.512   4.756   1.683  0.0299 -0.0276 -0.6453
19243TIP3    H179144   0.572   4.824   1.653  0.5040 -0.5082 -0.7915
19243TIP3    H279145   0.443   4.803   1.729  1.3721  0.3933  0.9412
19244TIP3   OH279146   3.236   6.244  14.457  0.2159  0.0978 -0.0707
19244TIP3    H179147   3.185   6.292  14.393 -0.2938  0.6795  0.7651
19244TIP3    H279148   3.203   6.154  14.451  0.8214 -0.0550 -1.2724
19245TIP3   OH279149   2.182   2.146  16.901  0.1082 -0.8340 -0.4732
19245TIP3    H179150   2.117   2.169  16.835  0.1080  1.5019  0.2609
19245TIP3    H279151   2.256   2.205  16.883  0.3858 -0.6489  1.1605
19246TIP3   OH279152   3.844   5.511   1.421  0.0642  0.3258 -0.1914
19246TIP3    H179153   3.894   5.470   1.491  1.5789 -1.9544 -2.4990
19246TIP3    H279154   3.905   5.513   1.346 -2.5611 -0.5294 -2.4340
19247TIP3   OH279155   5.986   5.830  13.024  0.3134 -0.4708  0.4951
19247TIP3    H179156   5.982   5.792  12.936 -2.5153 -1.3934  0.9894
19247TIP3    H279157   5.991   5.925  13.009  0.1050 -0.6311 -0.6376
19248TIP3   OH279158   1.698   6.639   5.481 -0.0310  0.2413  0.3590
19248TIP3    H179159   1.736   6.654   5.567  0.7389 -2.5533  0.5501
19248TIP3    H279160   1.609   6.609   5.499  0.0952 -0.2403  0.2119
19249TIP3   OH279161   4.006   2.259  12.055  0.3276 -0.4012 -0.5276
19249TIP3    H179162   3.989   2.353  12.052  1.9863 -0.0082  0.9260
19249TIP3    H279163   4.098   2.251  12.030  0.1928 -1.6366 -0.6436
19250TIP3   OH279164   3.216   2.802  16.081 -0.3581 -0.2082 -0.0719
19250TIP3    H179165   3.183   2.715  16.105  0.0874 -0.5325 -0.6413
19250TIP3    H279166   3.311   2.796  16.092 -0.3757  0.3961  0.4852
19251TIP3   OH279167   2.106   3.268   1.419 -0.1104 -0.2293 -0.0915
19251TIP3    H179168   2.155   3.349   1.432 -2.3531  1.0983  0.3972
19251TIP3    H279169   2.093   3.233   1.507 -0.8410 -0.0620 -0.1271
19252TIP3   OH279170   3.150   6.303  12.892  0.2148  0.2467  0.3941
19252TIP3    H179171   3.217   6.369  12.912  0.2190  0.0069  1.1762
19252TIP3    H279172   3.083   6.315  12.959  0.0788 -0.3600  0.3721
19253TIP3   OH279173   1.597   6.479  12.096  0.1172 -0.1730 -0.9052
19253TIP3    H179174   1.629   6.564  12.126  0.8963 -0.3896 -1.1233
19253TIP3    H279175   1.604   6.483  12.000 -0.1908 -0.3498 -0.9369
19254TIP3   OH279176   2.879   3.112   5.330 -0.4143  0.0107 -0.1866
19254TIP3    H179177   2.818   3.045   5.362 -0.5832  0.3745  0.2586
19254TIP3    H279178   2.844   3.137   5.245 -1.0260  0.3821  0.1662
19255TIP3   OH279179   1.262   1.736   3.622 -0.1892  0.6475  0.3667
19255TIP3    H179180   1.241   1.826   3.647 -1.7827  0.4280 -0.1704
19255TIP3    H279181   1.178   1.696   3.601  0.4944 -1.0244  0.7434
19256TIP3   OH279182   0.931   3.195   3.912  0.5969 -0.0572  0.4801
19256TIP3    H179183   0.939   3.151   3.828 -1.1135  1.4217 -0.5082
19256TIP3    H279184   0.962   3.131   3.976  0.3504 -1.8151 -1.1121
19257TIP3   OH279185   2.007   1.746   2.673 -0.4073  0.0494  0.2139
19257TIP3    H179186   2.031   1.834   2.704 -1.8650  0.0562  1.3831
19257TIP3    H279187   1.945   1.714   2.738  0.7037 -2.1804  0.2073
19258TIP3   OH279188   0.462   5.725  12.655 -0.3114 -0.0817  0.6769
19258TIP3    H179189   0.501   5.793  12.710  0.5813 -0.4904  0.5511
19258TIP3    H279190   0.457   5.765  12.568 -1.0520  0.3071  0.8960
19259TIP3   OH279191   2.062   0.508   2.728 -0.4163 -0.1530  0.1386
19259TIP3    H179192   2.101   0.550   2.651 -0.9858 -0.6491 -0.4323
19259TIP3    H279193   1.993   0.452   2.692 -1.9998  1.0949  1.1435
19260TIP3   OH279194   5.796   0.060   2.284  0.3013 -0.1047 -0.7007
19260TIP3    H179195   5.794   0.110   2.365  0.1408 -1.0060 -0.1344
19260TIP3    H279196   5.873   0.003   2.292 -0.2463 -0.8636 -0.7639
19261TIP3   OH279197   2.051   6.527  17.197  0.2279 -0.3446  0.4634
19261TIP3    H179198   2.003   6.524  17.280 -0.0333  1.5539  0.3849
19261TIP3    H279199   2.078   6.618  17.188  0.2188 -0.5268 -1.5798
19262TIP3   OH279200   0.749   2.499   1.664 -0.1046 -0.3446  0.0731
19262TIP3    H179201   0.771   2.527   1.575  1.6515 -1.8381  0.0093
19262TIP3    H279202   0.703   2.574   1.702  0.0467  0.6954 -1.7366
19263TIP3   OH279203   1.261   1.477  15.103  0.6453 -0.4561 -0.0201
19263TIP3    H179204   1.216   1.520  15.031  0.7151 -0.2213  0.0769
19263TIP3    H279205   1.328   1.539  15.130  1.0829 -0.8404 -0.2200
19264TIP3   OH279206   4.736   2.498  16.987 -0.0879  0.1297  0.4580
19264TIP3    H179207   4.757   2.430  17.051  1.3358  2.5711  2.6885
19264TIP3    H279208   4.658   2.466  16.942 -0.1318 -2.4211  2.2656
19265TIP3   OH279209   5.622   5.536  16.634 -0.6525  0.1855 -0.2530
19265TIP3    H179210   5.572   5.528  16.553 -0.9005 -1.2794  0.0354
19265TIP3    H279211   5.714   5.537  16.606 -0.6766 -1.6895 -0.4796
19266TIP3   OH279212   2.544   4.210   3.719  0.2939 -0.6205  0.1395
19266TIP3    H179213   2.470   4.234   3.774  1.4030  0.1368  1.3335
19266TIP3    H279214   2.513   4.137   3.666 -2.0328  1.1449 -1.0010
19267TIP3   OH279215   6.299   3.253  17.217  0.1246 -0.5110 -0.2272
19267TIP3    H179216   6.237   3.230  17.286  0.3262 -0.6797 -0.0988
19267TIP3    H279217   6.251   3.312  17.160 -0.1921 -0.7316 -0.1906
19268TIP3   OH279218   0.251   0.762   4.476 -0.3794  0.4468  0.5901
19268TIP3    H179219   0.297   0.681   4.454 -0.1614  0.6274  0.3829
19268TIP3    H279220   0.315   0.813   4.525 -0.4699  0.5580  0.5917
19269TIP3   OH279221   3.718   3.725  16.793 -0.0091  0.4436  0.6277
19269TIP3    H179222   3.703   3.801  16.737  2.1810  1.2842  1.1452
19269TIP3    H279223   3.674   3.653  16.749 -3.6124  2.3209  0.9761
19270TIP3   OH279224   4.975   3.115  16.646 -0.3736 -0.1651  0.2311
19270TIP3    H179225   5.026   3.120  16.727 -0.0161  2.5048 -0.1293
19270TIP3    H279226   5.040   3.091  16.579 -0.2455 -0.1340  0.3430
19271TIP3   OH279227   0.975   5.349   2.390 -0.2214  0.0079  0.7140
19271TIP3    H179228   0.917   5.284   2.431 -0.6768  0.0208  0.0971
19271TIP3    H279229   0.925   5.431   2.395  0.8372  0.5568  2.5516
19272TIP3   OH279230   1.588   0.081   5.042 -0.1440 -0.4549 -0.8160
19272TIP3    H179231   1.625   0.083   5.130 -0.7792 -2.3381 -0.4780
19272TIP3    H279232   1.608   0.167   5.006  0.7313  0.1011  0.9143
19273TIP3   OH279233   3.242   3.305   0.524  0.3371  0.4958 -0.0343
19273TIP3    H179234   3.181   3.326   0.595  1.6045  0.4745  1.1010
19273TIP3    H279235   3.327   3.335   0.557  2.1551 -5.4912  1.4122
19274TIP3   OH279236   5.241   1.599   5.975  0.6818  0.6503  0.4001
19274TIP3    H179237   5.246   1.557   6.061 -1.8152  2.1431  1.3236
19274TIP3    H279238   5.252   1.692   5.993  1.3978  0.8697 -1.0727
19275TIP3   OH279239   3.027   6.473   5.481 -0.2506 -0.1730  0.1617
19275TIP3    H179240   2.982   6.461   5.565 -1.6776  0.7047 -0.4434
19275TIP3    H279241   3.120   6.459   5.501 -0.5187  0.4766  1.9822
19276TIP3   OH279242   3.767   1.958   1.530  0.0345 -0.1580 -0.1890
19276TIP3    H179243   3.836   1.997   1.476  0.0155 -1.1982 -0.9973
19276TIP3    H279244   3.803   1.873   1.556 -0.8139 -0.5657 -0.3454
19277TIP3   OH279245   3.640   3.210  16.498  0.2167 -0.7293  0.0783
19277TIP3    H179246   3.723   3.224  16.543 -0.0713  1.5435 -0.0436
19277TIP3    H279247   3.585   3.165  16.562  1.9488 -3.5181 -0.3014
19278TIP3   OH279248   4.573   2.645   3.273  0.5802  0.1232  0.1135
19278TIP3    H179249   4.499   2.704   3.290  0.0972  0.4727 -2.9081
19278TIP3    H279250   4.648   2.687   3.315 -0.5258  0.8353  1.4126
19279TIP3   OH279251   0.219   0.179  11.560 -0.1159  0.5910 -0.4769
19279TIP3    H179252   0.202   0.271  11.580  0.8323  0.6082  0.2958
19279TIP3    H279253   0.184   0.167  11.472  1.8177  2.2851 -1.5278
19280TIP3   OH279254   6.595   5.220  16.454  0.0076 -0.7495  0.1539
19280TIP3    H179255   6.553   5.135  16.444  0.1190 -0.6735 -1.0419
19280TIP3    H279256   6.688   5.201  16.455  0.0479 -0.6105 -0.5495
19281TIP3   OH279257   6.198   4.602  11.567 -0.3155 -0.3279  0.2688
19281TIP3    H179258   6.168   4.536  11.504 -2.4333 -0.2572  1.1550
19281TIP3    H279259   6.234   4.672  11.514 -1.5693 -0.5121 -0.8403
19282TIP3   OH279260   0.517   1.682  12.492 -0.0482  0.3319  0.1024
19282TIP3    H179261   0.567   1.691  12.574  2.3477 -0.3680 -1.2124
19282TIP3    H279262   0.514   1.771  12.456  3.2780 -0.0914 -1.4464
19283TIP3   OH279263   3.723   1.536  14.652 -0.1843 -1.0107 -0.1988
19283TIP3    H179264   3.661   1.504  14.717 -1.3040  1.0685 -0.2072
19283TIP3    H279265   3.804   1.487  14.670 -1.0020 -1.7416  1.5780
19284TIP3   OH279266   0.379   0.435  15.510  0.6908  0.6190  0.2402
19284TIP3    H179267   0.309   0.492  15.541  0.5846 -0.1285  1.3808
19284TIP3    H279268   0.403   0.471  15.425 -2.5845 -0.4222 -1.1992
19285TIP3   OH279269   4.179   2.172  14.441  0.1691  0.0972 -0.1577
19285TIP3    H179270   4.097   2.171  14.491  0.2482 -0.5865 -0.0362
19285TIP3    H279271   4.245   2.147  14.505  0.4702  0.6173 -0.2653
19286TIP3   OH279272   4.877   4.428   3.298  0.1557 -0.0490  0.5704
19286TIP3    H179273   4.812   4.482   3.343  1.0107  1.7941 -0.3671
19286TIP3    H279274   4.873   4.455   3.207 -0.0011 -2.2074 -0.0893
19287TIP3   OH279275   2.308   3.534  15.793 -0.3458 -0.7488 -0.0966
19287TIP3    H179276   2.393   3.571  15.769 -0.3281 -1.2377 -0.8190
19287TIP3    H279277   2.304   3.539  15.888  0.6573 -1.0915 -0.0398
19288TIP3   OH279278   5.077   6.229   5.478 -0.0412  0.2209 -0.1584
19288TIP3    H179279   5.026   6.308   5.496  0.3962  0.5161 -0.2230
19288TIP3    H279280   5.153   6.235   5.535 -0.3723 -0.5121  0.3663
19289TIP3   OH279281   6.221   0.285   2.792 -0.1519 -0.4519  0.2305
19289TIP3    H179282   6.249   0.375   2.813  2.1405 -0.8125 -1.1782
19289TIP3    H279283   6.288   0.229   2.832 -0.2774 -1.4415 -0.9263
19290TIP3   OH279284   0.060   4.415   4.610  0.6705 -0.1650 -1.2324
19290TIP3    H179285   0.015   4.393   4.529 -2.3590 -1.1679  0.6239
19290TIP3    H279286   0.066   4.332   4.658 -0.8118  0.9681  1.0469
19291TIP3   OH279287   4.055   0.122  16.985 -0.0549  0.1273 -0.5372
19291TIP3    H179288   4.109   0.114  17.064 -1.1187 -3.2212 -0.0450
19291TIP3    H279289   4.119   0.130  16.914  1.0107 -0.2063  0.3539
19292TIP3   OH279290   1.179   2.489   1.615 -0.0166 -0.2837 -0.3112
19292TIP3    H179291   1.149   2.551   1.681  0.4508  0.7585 -1.0535
19292TIP3    H279292   1.270   2.471   1.639  0.3322  0.5388 -0.9797
19293TIP3   OH279293   0.124   6.101  13.716 -0.9387 -0.8050 -0.3131
19293TIP3    H179294   0.030   6.091  13.699 -1.3047  0.8705  0.6167
19293TIP3    H279295   0.129   6.156  13.794  0.8225 -0.7580 -0.4321
19294TIP3   OH279296   0.508   6.644   1.152 -0.7141  0.2465  0.0618
19294TIP3    H179297   0.573   6.715   1.147  0.4911 -0.7345  1.4949
19294TIP3    H279298   0.561   6.564   1.156 -2.0576 -0.6959 -0.6316
19295TIP3   OH279299   2.358   3.098   2.529  0.6788 -0.1687 -0.7395
19295TIP3    H179300   2.294   3.081   2.598  2.4604 -0.0210  1.0108
19295TIP3    H279301   2.309   3.148   2.464 -0.1783  3.0822  2.1911
19296TIP3   OH279302   4.977   1.448   2.296  0.6167  0.4884 -0.2047
19296TIP3    H179303   4.945   1.425   2.209  2.7284  0.0034 -0.8816
19296TIP3    H279304   4.899   1.449   2.352 -0.7747  0.9472 -2.1234
19297TIP3   OH279305   5.558   5.820   2.971 -0.1806 -0.8128 -0.3068
19297TIP3    H179306   5.585   5.782   3.055  0.3288  1.6206  0.6608
19297TIP3    H279307   5.463   5.805   2.968 -0.2997 -0.3688  0.9910
19298TIP3   OH279308   0.002   4.382  12.495 -0.2000  0.1342 -0.0220
19298TIP3    H179309   0.013   4.290  12.515 -1.5102 -0.0923 -0.2788
19298TIP3    H279310   0.024   4.390  12.402 -0.9107 -0.0694 -0.2063
19299TIP3   OH279311   5.946   4.999  14.294  0.0176 -0.4503 -0.1265
19299TIP3    H179312   5.919   4.967  14.207  0.4657 -1.0655 -0.0487
19299TIP3    H279313   5.939   4.922  14.351 -1.0256  0.1454  0.5566
19300TIP3   OH279314   6.003   3.536  14.474 -0.4883 -0.4200 -0.2636
19300TIP3    H179315   6.066   3.601  14.443 -0.0067 -0.0728  1.4146
19300TIP3    H279316   5.918   3.572  14.451 -0.1346 -0.2353 -1.2946
19301TIP3   OH279317   3.738   4.443   3.014 -0.3797 -0.0328  0.4913
19301TIP3    H179318   3.644   4.449   3.033 -0.6832 -1.6162 -0.4163
19301TIP3    H279319   3.772   4.386   3.084  0.4016  2.6139  2.3442
19302TIP3   OH279320   3.530   3.740   6.346 -0.4778 -0.5371 -0.2914
19302TIP3    H179321   3.576   3.740   6.430 -1.0493  0.5836  0.0324
19302TIP3    H279322   3.588   3.788   6.287 -0.0691 -1.3385 -0.5549
19303TIP3   OH279323   1.587   5.490   2.205  0.2199  0.3666 -0.2894
19303TIP3    H179324   1.493   5.509   2.200  0.1756  0.3073  0.2727
19303TIP3    H279325   1.624   5.564   2.253  0.1977 -0.4707  1.0186
19304TIP3   OH279326   4.037   0.307   2.912  0.0441 -0.1990 -0.1734
19304TIP3    H179327   4.015   0.345   2.827 -1.9458 -2.8719 -0.8987
19304TIP3    H279328   4.022   0.378   2.975 -0.8871  1.0503 -1.7758
19305TIP3   OH279329   4.903   0.208   5.261  0.0597  0.2277  0.0420
19305TIP3    H179330   4.821   0.216   5.212  0.4648 -1.9502 -1.0411
19305TIP3    H279331   4.946   0.131   5.224  3.1768  2.0186 -0.2202
19306TIP3   OH279332   0.408   2.572  11.767 -0.2695 -0.0934 -0.1119
19306TIP3    H179333   0.357   2.638  11.813 -1.5844  0.3368 -2.1315
19306TIP3    H279334   0.346   2.529  11.709  0.8872 -2.1287  0.1002
19307TIP3   OH279335   1.752   1.552   1.625 -0.1074 -0.0730 -0.1103
19307TIP3    H179336   1.694   1.623   1.599  1.3357  0.8783 -0.8073
19307TIP3    H279337   1.814   1.544   1.552  2.4766  0.9569  1.8842
19308TIP3   OH279338   1.899   3.181  11.691 -0.2289  0.0008  0.0813
19308TIP3    H179339   1.968   3.115  11.694 -1.3653 -1.2277 -0.3948
19308TIP3    H279340   1.943   3.260  11.660  0.6762 -1.1626 -1.6692
19309TIP3   OH279341   1.267   3.771   5.751  0.3314 -0.5027 -0.6155
19309TIP3    H179342   1.330   3.706   5.782 -0.6936 -0.5269  1.4997
19309TIP3    H279343   1.238   3.816   5.831  0.9306  2.4624 -2.0210
19310TIP3   OH279344   5.255   5.435   1.748  0.0199  0.6368  0.0558
19310TIP3    H179345   5.215   5.517   1.718  1.1510  2.2523  2.7670
19310TIP3    H279346   5.322   5.463   1.811  0.3798 -2.3847  1.0817
19311TIP3   OH279347   5.820   2.819   6.391  0.3247  0.1245 -0.2342
19311TIP3    H179348   5.810   2.911   6.417  0.3135  0.2832 -0.7832
19311TIP3    H279349   5.890   2.821   6.325 -0.1883 -0.1585 -0.7869
19312TIP3   OH279350   5.108   3.825  12.399 -0.2960  0.5995 -0.3479
19312TIP3    H179351   5.075   3.895  12.344 -0.7831 -0.6580 -1.7048
19312TIP3    H279352   5.202   3.823  12.382 -0.4815  0.0400 -1.3730
19313TIP3   OH279353   3.088   5.106   2.068  0.0128  0.2993  0.3814
19313TIP3    H179354   3.038   5.031   2.037  0.6108 -0.7890  2.0141
19313TIP3    H279355   3.141   5.132   1.993 -1.1597 -0.0676 -0.6044
19314TIP3   OH279356   5.087   3.289   3.346  0.8968 -0.1826 -0.3463
19314TIP3    H179357   5.067   3.289   3.440  0.0569  0.4990 -0.5113
19314TIP3    H279358   5.019   3.345   3.308  1.6025  0.0365 -1.2835
19315TIP3   OH279359   1.882   0.787  13.348 -0.4727 -0.4217 -0.5409
19315TIP3    H179360   1.796   0.774  13.388 -1.3616  2.0859 -1.5509
19315TIP3    H279361   1.926   0.849  13.406 -1.4628  2.6026 -2.8761
19316TIP3   OH279362   5.226   5.269  14.254  0.6195 -0.5340 -0.0124
19316TIP3    H179363   5.225   5.224  14.170  0.2166 -1.4723  0.4898
19316TIP3    H279364   5.218   5.362  14.231 -0.1782 -0.8299 -0.9749
19317TIP3   OH279365   6.070   0.844   2.576  0.4037  0.0623  1.0433
19317TIP3    H179366   6.050   0.813   2.488 -0.4699  0.2771  1.1587
19317TIP3    H279367   6.144   0.904   2.564  0.4631 -0.1185  0.4920
19318TIP3   OH279368   4.334   1.680  14.051 -0.0974  0.1347  0.2609
19318TIP3    H179369   4.355   1.772  14.031 -0.4745  0.2139  0.2149
19318TIP3    H279370   4.255   1.686  14.106 -0.1522 -0.1634  0.2112
19319TIP3   OH279371   0.055   1.144   0.920 -0.1720 -0.5426 -0.4596
19319TIP3    H179372  -0.031   1.162   0.957 -0.4603 -3.5006  0.4672
19319TIP3    H279373   0.083   1.227   0.883 -3.5482  0.4309 -1.0370
19320TIP3   OH279374   5.895   1.393  17.117  0.0509 -0.0338 -1.1201
19320TIP3    H179375   5.808   1.376  17.083 -0.1058 -0.2404 -0.6198
19320TIP3    H279376   5.949   1.407  17.039 -0.5138  0.5266 -1.4137
19321TIP3   OH279377   2.565   6.055   5.652 -0.2772  0.2765  0.3298
19321TIP3    H179378   2.626   5.982   5.661  0.8757  1.2995  1.0593
19321TIP3    H279379   2.487   6.028   5.700 -0.0156 -0.6182  0.2621
19322TIP3   OH279380   0.920   5.318  12.240  0.1282  0.8117 -0.6428
19322TIP3    H179381   0.835   5.357  12.264 -0.0540 -0.4498  0.8556
19322TIP3    H279382   0.921   5.319  12.144 -3.3321 -2.7708 -0.8589
19323TIP3   OH279383   5.326   3.439   3.503 -0.5791 -0.4296 -0.0818
19323TIP3    H179384   5.299   3.488   3.581 -1.4952 -2.5767  0.9984
19323TIP3    H279385   5.307   3.347   3.525  1.4790 -1.3254 -1.8763
19324TIP3   OH279386   5.354   3.536   1.407  0.7356  0.0764 -0.1613
19324TIP3    H179387   5.289   3.573   1.466  0.3999 -2.2508  1.0214
19324TIP3    H279388   5.322   3.447   1.390  2.6225 -0.4422 -1.1066
19325TIP3   OH279389   3.789   2.146   0.079  0.0535 -0.8951  0.5223
19325TIP3    H179390   3.776   2.072   0.138 -2.2461  0.0082  1.2123
19325TIP3    H279391   3.746   2.120  -0.002  0.3624 -0.8252  0.3340
19326TIP3   OH279392   5.932   5.826  15.806  0.5752 -0.2344  0.5426
19326TIP3    H179393   5.945   5.838  15.711 -1.2072  0.3063  0.3378
19326TIP3    H279394   5.922   5.915  15.840 -1.6944 -0.5422  0.7655
19327TIP3   OH279395   1.575   1.030   3.682  0.1275 -0.5507 -0.3670
19327TIP3    H179396   1.503   1.054   3.741  1.2168 -0.4310  0.9287
19327TIP3    H279397   1.632   1.107   3.681  0.6991 -0.9761 -0.7137
19328TIP3   OH279398   3.307   5.528  14.790 -0.0672 -0.4218  0.3836
19328TIP3    H179399   3.390   5.487  14.765  0.0847 -0.3141  0.7063
19328TIP3    H279400   3.322   5.622  14.780  0.0141 -0.3736  0.9266
19329TIP3   OH279401   3.604   0.519  13.358  0.1866  0.1154 -0.3553
19329TIP3    H179402   3.575   0.573  13.285  0.0262  1.3096  0.5950
19329TIP3    H279403   3.636   0.581  13.423  2.9293 -1.0502 -0.5272
19330TIP3   OH279404   4.323   0.443   5.609 -0.0997 -0.2640 -0.6283
19330TIP3    H179405   4.269   0.365   5.624  3.0260 -2.1857  1.4202
19330TIP3    H279406   4.366   0.427   5.525  3.3393 -2.6285  1.4515
19331TIP3   OH279407   5.402   6.135  10.633  0.0643  0.2341 -0.6582
19331TIP3    H179408   5.482   6.156  10.586 -0.2013  1.7822 -0.4311
19331TIP3    H279409   5.381   6.045  10.606  0.6609  0.6091 -2.4032
19332TIP3   OH279410   3.640   3.894   4.567 -0.2099 -0.0315 -0.3295
19332TIP3    H179411   3.702   3.824   4.549 -2.7066 -1.5539 -3.4884
19332TIP3    H279412   3.648   3.953   4.492 -0.3869  1.4016  0.7583
19333TIP3   OH279413   3.044   6.119  13.200  0.4754 -0.3995  0.5806
19333TIP3    H179414   3.110   6.104  13.267  0.8997  0.1333  0.2890
19333TIP3    H279415   3.038   6.214  13.193 -1.4085 -0.4184  1.6559
19334TIP3   OH279416   5.529   0.085  17.126  0.4191  0.1928 -0.5656
19334TIP3    H179417   5.531  -0.001  17.083 -1.8612  0.3623 -1.0458
19334TIP3    H279418   5.491   0.067  17.213  0.5233  0.6200 -0.4317
19335TIP3   OH279419   0.674   1.364   0.642 -0.0925 -0.8299  0.4200
19335TIP3    H179420   0.643   1.437   0.589  0.7584 -0.0843  0.9332
19335TIP3    H279421   0.761   1.344   0.607  0.6797 -0.0075  1.8545
19336TIP3   OH279422   2.152   2.933   4.342  0.8915 -0.1352 -0.2990
19336TIP3    H179423   2.220   2.988   4.381 -1.1443  2.3144 -0.0781
19336TIP3    H279424   2.114   2.987   4.273 -0.5279 -1.6007 -0.6956
19337TIP3   OH279425   5.381   4.544   4.444 -0.1012  0.1401  0.3154
19337TIP3    H179426   5.343   4.619   4.399  0.9177  1.6016  1.8544
19337TIP3    H279427   5.475   4.562   4.445  0.2772 -1.6640 -0.2004
19338TIP3   OH279428   6.674   1.626  15.559  0.0305 -0.7017 -0.2012
19338TIP3    H179429   6.736   1.554  15.553  0.5499 -0.3715  1.0219
19338TIP3    H279430   6.727   1.705  15.550 -0.3582 -0.4421 -0.2583
19339TIP3   OH279431   3.496   1.748   1.698 -0.3813  0.5438  0.4117
19339TIP3    H179432   3.591   1.751   1.691 -0.2663  0.6675  1.7815
19339TIP3    H279433   3.472   1.836   1.728 -0.8864  0.3977  0.4357
19340TIP3   OH279434   3.342   0.998  16.411 -0.5460  0.5061  0.5093
19340TIP3    H179435   3.402   0.941  16.363 -1.0119  0.4376  0.0007
19340TIP3    H279436   3.366   1.087  16.383 -1.3499  0.4224 -0.4834
19341TIP3   OH279437   1.099   6.515   3.354 -0.1030 -0.1903 -0.3519
19341TIP3    H179438   1.089   6.499   3.260  3.8979  0.1434 -0.8982
19341TIP3    H279439   1.122   6.429   3.390 -1.9886 -0.3943  0.4154
19342TIP3   OH279440   4.869   0.209   4.887  0.1286 -0.4442 -0.3865
19342TIP3    H179441   4.836   0.259   4.812 -0.8669  1.9838  1.5921
19342TIP3    H279442   4.944   0.259   4.919 -0.9438 -0.0848  1.6904
19343TIP3   OH279443   5.619   2.083   5.069  0.1028 -0.1786  0.2403
19343TIP3    H179444   5.606   2.171   5.104 -0.1382  0.2627 -0.9179
19343TIP3    H279445   5.618   2.025   5.146 -1.2902  0.6679  0.8787
19344TIP3   OH279446   4.793   4.823  12.894  0.5797 -0.1730 -0.3207
19344TIP3    H179447   4.703   4.817  12.924  0.6775  1.7792  0.4159
19344TIP3    H279448   4.843   4.844  12.973  1.6993 -1.2967 -0.7084
19345TIP3   OH279449   4.883   6.353  12.150 -0.4323  0.3026  0.1198
19345TIP3    H179450   4.962   6.386  12.107 -0.2510 -0.2088  0.0657
19345TIP3    H279451   4.915   6.291  12.215 -0.8481 -0.6849 -0.6048
19346TIP3   OH279452   4.783   2.853  12.999 -0.0820  0.4834 -0.6674
19346TIP3    H179453   4.716   2.850  13.067  1.2577 -0.8485  0.6262
19346TIP3    H279454   4.751   2.917  12.937 -2.7163 -0.3880 -0.2418
19347TIP3   OH279455   2.054   4.630   2.192 -0.3130  0.0171 -0.3939
19347TIP3    H179456   1.960   4.615   2.200 -0.1374 -1.2003 -0.5103
19347TIP3    H279457   2.062   4.717   2.153 -1.3962 -0.1429 -0.9698
19348TIP3   OH279458   5.462   1.845   4.921  0.2662  0.2392  0.0205
19348TIP3    H179459   5.482   1.778   4.986  1.7955 -0.8191 -1.4795
19348TIP3    H279460   5.505   1.924   4.954 -1.2608  0.4143  1.6271
19349TIP3   OH279461   5.709   6.688   4.798  0.4495  0.4356  0.0902
19349TIP3    H179462   5.619   6.720   4.794  0.9087  1.7276 -0.4858
19349TIP3    H279463   5.756   6.742   4.734  1.7998  0.3647  1.0001
19350TIP3   OH279464   4.984   4.452   0.391 -0.1434  0.5099  0.0720
19350TIP3    H179465   4.899   4.410   0.403  1.8921 -3.7400  0.3647
19350TIP3    H279466   5.017   4.464   0.481 -0.5204  2.4248 -0.0276
19351TIP3   OH279467   0.987   5.434  14.842  0.5329  0.1149 -0.5533
19351TIP3    H179468   1.017   5.364  14.784 -0.2310 -1.2654  0.7071
19351TIP3    H279469   0.902   5.460  14.805 -0.7555 -1.9227  0.8770
19352TIP3   OH279470   6.114   4.801   0.964  0.4671  0.0527 -0.1956
19352TIP3    H179471   6.069   4.866   0.910  1.6651  0.9374 -0.1466
19352TIP3    H279472   6.072   4.809   1.050 -0.1222  0.0052 -0.4782
19353TIP3   OH279473   1.539   6.740  13.307  0.5056 -0.0309  1.3482
19353TIP3    H179474   1.546   6.647  13.329  1.4451  0.1625  1.9169
19353TIP3    H279475   1.455   6.767  13.342  0.2624 -0.6432  1.2559
19354TIP3   OH279476   5.830   0.638   4.630  0.1506  0.5663  0.2662
19354TIP3    H179477   5.908   0.584   4.639  0.0713  0.3245 -0.4002
19354TIP3    H279478   5.850   0.698   4.558 -0.3861  0.2960 -0.1151
19355TIP3   OH279479   0.444   4.447   5.891  0.1034 -0.3530  0.0584
19355TIP3    H179480   0.381   4.379   5.914 -0.2329 -0.0470  0.0395
19355TIP3    H279481   0.451   4.500   5.970 -0.7434  0.4590 -0.4083
19356TIP3   OH279482   4.016   5.571  15.514  0.4735 -0.0036 -0.1494
19356TIP3    H179483   3.938   5.547  15.563  1.9381 -0.2041  2.1529
19356TIP3    H279484   4.004   5.664  15.494 -0.6345 -0.1916 -0.3976
19357TIP3   OH279485   2.363   1.304   4.353 -0.1923  0.5807  0.5068
19357TIP3    H179486   2.284   1.357   4.366 -0.4282  0.1534  0.8484
19357TIP3    H279487   2.354   1.232   4.416 -0.9369 -1.0862 -1.4232
19358TIP3   OH279488   1.608   1.240   2.233 -0.6587  0.6046  0.5114
19358TIP3    H179489   1.550   1.232   2.309  2.0716 -5.2980  2.2734
19358TIP3    H279490   1.564   1.190   2.164  0.3328 -0.3123  0.5386
19359TIP3   OH279491   4.911   2.743  15.498 -0.2207  0.2070  0.2347
19359TIP3    H179492   4.822   2.711  15.483 -0.7027  0.5130  2.3297
19359TIP3    H279493   4.963   2.699  15.431 -1.9107 -0.0737 -0.9485
19360TIP3   OH279494   5.556   1.220   2.751  0.1793  0.3098 -0.4494
19360TIP3    H179495   5.566   1.206   2.657  0.1435  0.6704 -0.5094
19360TIP3    H279496   5.493   1.291   2.758  0.3222  0.4083 -0.1591
19361TIP3   OH279497   4.621   1.112   1.152 -0.2194  0.0497  0.0630
19361TIP3    H179498   4.680   1.087   1.081 -1.0252  1.1496 -1.0166
19361TIP3    H279499   4.678   1.144   1.222  0.6101 -1.5619  0.1323
19362TIP3   OH279500   5.649   1.090   1.503  0.2402  0.1527  0.0785
19362TIP3    H179501   5.579   1.142   1.541  0.6836 -0.2871  1.4999
19362TIP3    H279502   5.697   1.151   1.447 -0.7548  0.6567 -0.2311
19363TIP3   OH279503   3.702   4.838   5.620  0.3940  0.2989  0.2934
19363TIP3    H179504   3.797   4.841   5.619  0.3793  1.7110  1.3207
19363TIP3    H279505   3.680   4.805   5.707 -0.0514 -0.8654 -0.2500
19364TIP3   OH279506   1.736   6.231   3.554  0.1555  0.1016 -0.6264
19364TIP3    H179507   1.716   6.311   3.603 -0.4434 -0.5673  0.2457
19364TIP3    H279508   1.825   6.208   3.581  0.6398  0.8981 -1.4889
19365TIP3   OH279509   1.592   2.021  17.188 -0.3277  0.4463 -0.9821
19365TIP3    H179510   1.575   1.937  17.231  0.3118  0.1949 -1.2140
19365TIP3    H279511   1.531   2.082  17.229  1.4529  0.5921  1.4857
19366TIP3   OH279512   4.844   1.011   0.398 -0.4004 -0.6337  0.3276
19366TIP3    H179513   4.841   0.924   0.357 -1.4148  0.1343 -1.2869
19366TIP3    H279514   4.886   1.066   0.333 -0.4615  0.2622  1.0421
19367TIP3   OH279515   1.732   5.109   3.536  0.7682 -0.1297 -0.1955
19367TIP3    H179516   1.797   5.152   3.592  1.4774 -0.9599 -0.3691
19367TIP3    H279517   1.668   5.072   3.596  0.7484  0.2358  0.0048
19368TIP3   OH279518   1.996   2.427  12.291 -0.2200 -0.2754  0.1071
19368TIP3    H179519   1.905   2.424  12.263  0.1292  0.3946 -1.1262
19368TIP3    H279520   1.992   2.432  12.387 -1.5016  0.9510 -0.0036
19369TIP3   OH279521   3.556   1.328   3.735 -0.1964 -0.0962  0.5396
19369TIP3    H179522   3.536   1.323   3.641  1.9968  0.0463  0.0380
19369TIP3    H279523   3.471   1.317   3.778 -1.0392 -1.6135 -1.4187
19370TIP3   OH279524   0.612   5.736  11.620 -0.2187  0.2113  0.0781
19370TIP3    H179525   0.541   5.756  11.558 -0.5634 -0.9404  0.0876
19370TIP3    H279526   0.692   5.761  11.574 -0.4064 -1.4170 -1.1721
19371TIP3   OH279527   6.344   5.223   4.352  0.3796  0.2464 -0.0548
19371TIP3    H179528   6.403   5.148   4.360  0.2751  0.1118 -0.5217
19371TIP3    H279529   6.257   5.184   4.341  0.2467  0.4409  0.2867
19372TIP3   OH279530   2.159   5.281   4.979 -0.0333  0.3263 -0.8617
19372TIP3    H179531   2.069   5.313   4.978  0.5595  2.1259 -0.1452
19372TIP3    H279532   2.206   5.344   5.035  1.4431 -1.1603 -0.3930
19373TIP3   OH279533   6.683   0.777  11.140  0.1818  0.3226 -0.4919
19373TIP3    H179534   6.589   0.766  11.152  0.2257  1.1859  0.7185
19373TIP3    H279535   6.695   0.872  11.135  1.5360  0.5654  4.4449
19374TIP3   OH279536   2.853   1.198  12.948 -0.2350  0.0032  0.0728
19374TIP3    H179537   2.823   1.149  12.872 -2.1232  0.2600  0.6304
19374TIP3    H279538   2.866   1.287  12.916  2.9551 -0.7492 -0.8784
19375TIP3   OH279539   3.187   1.316  14.192  0.1377 -0.4860  0.1603
19375TIP3    H179540   3.147   1.393  14.232  0.0166 -1.0452  1.1191
19375TIP3    H279541   3.216   1.346  14.105 -2.2082 -0.0291 -0.4852
19376TIP3   OH279542   2.879   0.561   4.732 -0.0836  0.5514 -0.6038
19376TIP3    H179543   2.874   0.564   4.637 -0.6683  0.1403 -0.5866
19376TIP3    H279544   2.794   0.595   4.762 -0.0860  0.2244 -0.2344
19377TIP3   OH279545   1.722   6.387   3.785  0.4330  0.3371 -0.2138
19377TIP3    H179546   1.763   6.473   3.789  0.8410  0.1120  0.8764
19377TIP3    H279547   1.748   6.345   3.868  1.1188 -1.2172 -1.1818
19378TIP3   OH279548   3.193   6.356  14.851 -0.1724  0.0583 -0.2374
19378TIP3    H179549   3.172   6.269  14.818 -3.1092  0.3501  0.7084
19378TIP3    H279550   3.178   6.414  14.777 -0.2575 -0.0054 -0.2701
19379TIP3   OH279551   3.824   1.807   5.656 -0.5279 -0.2183 -0.4409
19379TIP3    H179552   3.793   1.752   5.728  1.3378 -0.5982  0.1133
19379TIP3    H279553   3.875   1.875   5.700  0.3471 -0.2690 -1.3704
19380TIP3   OH279554   0.508   4.523   3.551 -0.1061 -0.0925 -0.9164
19380TIP3    H179555   0.538   4.433   3.534  0.8183 -0.0581  0.4597
19380TIP3    H279556   0.429   4.532   3.498 -0.8697 -2.1303 -0.1972
19381TIP3   OH279557   0.447   3.911  11.744 -0.3686 -0.0895 -0.3121
19381TIP3    H179558   0.393   3.987  11.765 -0.9782 -0.6941  0.3489
19381TIP3    H279559   0.385   3.838  11.740  0.2124 -0.5541 -0.9307
19382TIP3   OH279560   0.605   1.408  17.071  0.5267 -0.1824  0.1996
19382TIP3    H179561   0.534   1.456  17.027 -0.6815 -2.5264 -0.5448
19382TIP3    H279562   0.682   1.425  17.018  0.2330  1.2971  0.2247
19383TIP3   OH279563   1.317   0.392   3.232  0.2716  0.0403 -0.5298
19383TIP3    H179564   1.377   0.425   3.299 -0.1414  0.9904 -0.6268
19383TIP3    H279565   1.245   0.455   3.231  0.8836  0.7532 -2.7401
19384TIP3   OH279566   4.791   1.084   2.495 -0.0488 -0.4525 -0.2361
19384TIP3    H179567   4.732   1.157   2.512  0.0646 -0.4154  0.0012
19384TIP3    H279568   4.765   1.016   2.557 -1.2221 -1.2314 -1.5643
19385TIP3   OH279569   3.800   2.445  14.451 -0.1261 -0.3072 -0.7465
19385TIP3    H179570   3.747   2.403  14.383 -0.6643 -0.5689 -0.1664
19385TIP3    H279571   3.807   2.536  14.423  1.0632 -0.7779 -2.0192
19386TIP3   OH279572   5.329   5.051  10.367  0.0935 -0.2410  0.1606
19386TIP3    H179573   5.379   5.132  10.360  0.6877 -0.6454 -0.3182
19386TIP3    H279574   5.237   5.080  10.373  0.4057  0.5106  1.3860
19387TIP3   OH279575   5.602   3.656   2.047 -0.0993 -0.2543  0.5839
19387TIP3    H179576   5.662   3.639   1.974  2.0243  1.3970  1.8871
19387TIP3    H279577   5.529   3.598   2.031  0.4096 -0.1094 -2.7706
19388TIP3   OH279578   1.742   4.255   4.872  0.2135  0.7191  0.3723
19388TIP3    H179579   1.662   4.284   4.828 -1.0777 -2.4691  0.5028
19388TIP3    H279580   1.770   4.178   4.823  2.6084  1.1614  1.0107
19389TIP3   OH279581   4.667   5.050  15.753 -0.0716 -0.2239  0.5179
19389TIP3    H179582   4.675   5.040  15.848  0.0084  2.2013  0.8103
19389TIP3    H279583   4.752   5.083  15.725 -0.3653 -0.1378 -0.2753
19390TIP3   OH279584   6.461   4.458  13.519  0.0426  0.5202  0.3145
19390TIP3    H179585   6.431   4.368  13.519 -1.0844  0.8875  0.0754
19390TIP3    H279586   6.421   4.497  13.596  3.1283 -0.0057  2.2523
19391TIP3   OH279587   0.017   1.590   2.211  0.3371  0.1201 -0.3299
19391TIP3    H179588   0.004   1.495   2.213  1.3713 -0.0167  0.5747
19391TIP3    H279589   0.090   1.602   2.150  0.9983  0.2289  0.4773
19392TIP3   OH279590   3.472   6.647   5.101 -0.3807  0.9475 -0.5950
19392TIP3    H179591   3.565   6.638   5.120 -0.7541 -0.7344  0.5970
19392TIP3    H279592   3.461   6.607   5.015 -0.2175 -0.1983 -0.0962
19393TIP3   OH279593   2.027   0.523  16.301  0.4490 -0.3483  0.3385
19393TIP3    H179594   1.951   0.581  16.312  0.7371  0.0978 -0.0258
19393TIP3    H279595   2.004   0.467  16.227  0.2792 -0.5355  0.5302
19394TIP3   OH279596   6.639   3.599  11.773  0.2645 -0.0006 -0.3832
19394TIP3    H179597   6.660   3.583  11.681 -0.0897 -0.9494 -0.3075
19394TIP3    H279598   6.545   3.613  11.774  0.3236  0.3667 -0.2159
19395TIP3   OH279599   6.009   0.929   3.483 -0.1966  0.0623 -0.2670
19395TIP3    H179600   5.926   0.888   3.458 -0.5506  0.9003 -0.5075
19395TIP3    H279601   6.064   0.857   3.514 -1.4046 -0.3543  0.9529
19396TIP3   OH279602   5.614   3.952  14.395  0.2958  0.3639  0.6143
19396TIP3    H179603   5.674   3.937  14.321  2.1845 -0.8750  2.3073
19396TIP3    H279604   5.611   4.047  14.405 -0.1205  0.5560 -1.1458
19397TIP3   OH279605   1.794   4.586   2.135 -0.5365 -0.0981  0.2530
19397TIP3    H179606   1.768   4.646   2.066 -0.9658 -1.0965 -0.4603
19397TIP3    H279607   1.735   4.606   2.208 -1.4445 -0.4401 -0.3834
19398TIP3   OH279608   6.608   5.852  11.002 -0.3502 -0.2078 -0.8929
19398TIP3    H179609   6.642   5.777  10.954  0.4080 -1.1751  1.0964
19398TIP3    H279610   6.686   5.905  11.022 -0.7554  0.5976 -1.4026
19399TIP3   OH279611   1.134   0.144  12.276 -0.2835  0.1899  0.4763
19399TIP3    H179612   1.148   0.238  12.285 -1.2254  0.4095 -0.1583
19399TIP3    H279613   1.044   0.137  12.242  0.7374 -0.8145 -2.1150
19400TIP3   OH279614   4.204   2.515  17.169  0.1444  0.6748  0.7713
19400TIP3    H179615   4.213   2.535  17.262  2.8955  1.1686  0.4384
19400TIP3    H279616   4.245   2.428  17.159 -0.6857  0.3466  0.1222
19401TIP3   OH279617   6.344   4.635   2.718 -1.1543 -0.1843 -0.2272
19401TIP3    H179618   6.370   4.638   2.810 -0.9329 -1.1506 -0.2589
19401TIP3    H279619   6.424   4.652   2.669 -0.7670 -2.1845 -0.3007
19402TIP3   OH279620   2.266   4.207  12.757 -0.0720  0.3550 -0.0904
19402TIP3    H179621   2.355   4.237  12.774 -0.5584  1.0388  1.3471
19402TIP3    H279622   2.270   4.112  12.772  0.6111  0.2480 -0.9238
19403TIP3   OH279623   0.959   3.332  16.995  0.2366 -0.5878  0.7509
19403TIP3    H179624   1.002   3.370  17.071  0.2303  0.5717  0.1965
19403TIP3    H279625   0.964   3.401  16.928  1.0949 -1.9390 -0.6051
19404TIP3   OH279626   5.632   6.659  11.546 -0.1067  0.3436  0.9949
19404TIP3    H179627   5.727   6.650  11.540 -0.2166  0.1397 -0.7431
19404TIP3    H279628   5.618   6.753  11.560  0.2794  0.7996 -1.3979
19405TIP3   OH279629   0.361   2.441   0.176 -1.3283  0.2858 -0.3080
19405TIP3    H179630   0.415   2.497   0.121 -0.7309  1.7152  1.6827
19405TIP3    H279631   0.422   2.382   0.219 -1.7273 -0.4645 -0.7672
19406TIP3   OH279632   0.349   5.923  13.764  0.8809  0.2193  0.0553
19406TIP3    H179633   0.390   5.986  13.705  0.2937  0.3133 -0.2575
19406TIP3    H279634   0.257   5.950  13.769  0.5756 -0.7242 -0.2514
19407TIP3   OH279635   2.820   5.618   0.431 -0.0797  0.1814  0.6791
19407TIP3    H179636   2.867   5.620   0.514  0.4928 -1.1547  0.3877
19407TIP3    H279637   2.817   5.526   0.407 -1.3738  0.4279 -0.1502
19408TIP3   OH279638   1.226   5.848   4.307 -0.0433 -0.3430 -0.4226
19408TIP3    H179639   1.281   5.873   4.382  0.8172  1.2392 -1.5573
19408TIP3    H279640   1.230   5.753   4.306  0.4177 -0.3584  1.1986
19409TIP3   OH279641   6.644   1.119   5.339  0.0317  0.1338 -0.3937
19409TIP3    H179642   6.611   1.105   5.428 -0.4953 -0.6548 -0.6986
19409TIP3    H279643   6.658   1.213   5.333 -0.2773  0.2391  0.4019
19410TIP3   OH279644   2.016   2.606  15.597  0.0870 -0.3466 -0.1538
19410TIP3    H179645   1.981   2.652  15.521 -1.6158  0.8139  1.2793
19410TIP3    H279646   2.091   2.659  15.624 -1.2316  1.0571  0.8500
19411TIP3   OH279647   2.957   2.966   3.070  0.2179 -0.1658  0.3267
19411TIP3    H179648   2.931   2.903   3.136  1.7169 -0.5214  0.5962
19411TIP3    H279649   3.052   2.974   3.080  0.4117  0.0974 -1.4897
19412TIP3   OH279650   6.741   1.256  12.442 -0.2346  0.2946 -0.1930
19412TIP3    H179651   6.822   1.249  12.493  0.5418 -0.9161 -1.5352
19412TIP3    H279652   6.759   1.328  12.380  0.1958 -0.5773 -1.1065
19413TIP3   OH279653   0.578   0.432  10.713  0.1072 -0.1959  0.3026
19413TIP3    H179654   0.493   0.475  10.702 -0.1773 -0.7669  0.2597
19413TIP3    H279655   0.593   0.432  10.807  0.6314  1.0032  0.2246
19414TIP3   OH279656   4.757   1.743   5.477  1.2757  0.0404  0.1910
19414TIP3    H179657   4.784   1.805   5.409 -0.3242  0.6134  0.0761
19414TIP3    H279658   4.700   1.681   5.432  1.4152 -0.4638  0.7017
19415TIP3   OH279659   2.966   4.647   3.208  0.2437 -0.3708 -0.2550
19415TIP3    H179660   3.058   4.673   3.212  0.9177 -2.5114 -0.7925
19415TIP3    H279661   2.960   4.595   3.127 -1.6407  0.4990 -0.6957
19416TIP3   OH279662   6.600   4.339   4.495  0.1810 -0.0147  0.1367
19416TIP3    H179663   6.510   4.321   4.466  0.5951 -0.9329 -0.5793
19416TIP3    H279664   6.611   4.433   4.481 -0.4141 -0.0330 -0.4668
19417TIP3   OH279665   2.481   0.283   1.328 -0.1449  0.2333  0.1041
19417TIP3    H179666   2.428   0.267   1.405 -0.8232  1.0867 -0.1719
19417TIP3    H279667   2.519   0.198   1.306  0.6678  0.1335  1.8156
19418TIP3   OH279668   0.477   4.850   3.852 -0.3923 -0.6337  0.1406
19418TIP3    H179669   0.382   4.852   3.864 -0.4489 -0.1189 -0.4042
19418TIP3    H279670   0.492   4.777   3.791 -0.6532  0.8512 -1.7323
19419TIP3   OH279671   2.918   4.915  13.037  0.3329 -0.3598 -0.0361
19419TIP3    H179672   2.834   4.939  13.077  0.3244 -3.1901  1.8394
19419TIP3    H279673   2.983   4.966  13.084 -0.2131  0.9385 -0.6713
19420TIP3   OH279674   5.414   4.064   0.383  0.7765 -0.1832  0.3192
19420TIP3    H179675   5.460   4.019   0.312 -0.3117 -0.1470 -0.4258
19420TIP3    H279676   5.483   4.093   0.442  1.5645 -2.0298  0.3493
19421TIP3   OH279677   6.176   1.033   5.802  0.3293  0.1421  0.2608
19421TIP3    H179678   6.268   1.025   5.827 -0.1394 -0.0198  1.9601
19421TIP3    H279679   6.165   0.965   5.735  1.5315  0.4247 -0.2506
19422TIP3   OH279680   1.976   0.728   5.455  0.0605  0.3422 -0.2795
19422TIP3    H179681   1.993   0.764   5.542  0.7295  0.5626 -0.5008
19422TIP3    H279682   1.886   0.755   5.435 -0.3479 -0.3170  0.6364
19423TIP3   OH279683   2.840   6.449  15.767 -0.2288  0.0549 -0.3110
19423TIP3    H179684   2.796   6.490  15.842 -0.6701  0.5289 -0.8248
19423TIP3    H279685   2.930   6.436  15.796 -0.1848  1.0195  0.0086
19424TIP3   OH279686   1.712   6.280   5.549 -0.1329  0.5804  0.6378
19424TIP3    H179687   1.672   6.284   5.636 -0.8403 -0.0865  0.3548
19424TIP3    H279688   1.749   6.192   5.544 -1.2195  0.1612 -0.2093
19425TIP3   OH279689   1.127   2.939  16.108  0.0819  0.2194  0.1386
19425TIP3    H179690   1.127   2.850  16.072  0.4370 -0.0821  0.8594
19425TIP3    H279691   1.220   2.960  16.118  0.0027  0.8257 -0.3981
19426TIP3   OH279692   6.305   3.160   0.757  0.1518 -0.0948 -1.0700
19426TIP3    H179693   6.214   3.152   0.785 -0.2748 -0.6635 -2.5923
19426TIP3    H279694   6.302   3.223   0.685  0.9183 -0.3628 -1.3386
19427TIP3   OH279695   3.086   3.798  16.489 -0.2225 -0.4469  0.0227
19427TIP3    H179696   3.032   3.866  16.450  0.5228 -0.2361 -0.6412
19427TIP3    H279697   3.027   3.754  16.551 -1.4475 -0.8594 -1.4079
19428TIP3   OH279698   2.638   0.975  15.092  0.2720  0.1550 -0.5190
19428TIP3    H179699   2.731   0.953  15.100  0.2107  0.6536  2.1598
19428TIP3    H279700   2.633   1.067  15.118 -1.0103  0.0425 -0.3604
19429TIP3   OH279701   1.947   5.441   5.419 -0.9758  0.1867  0.0305
19429TIP3    H179702   1.879   5.414   5.481  0.8826 -0.3953  1.8545
19429TIP3    H279703   1.987   5.359   5.391  0.3903  0.6617  0.5982
19430TIP3   OH279704   0.024   3.899  14.960 -0.2700  0.2637 -0.4265
19430TIP3    H179705   0.078   3.978  14.959 -1.9840  1.4682 -0.5880
19430TIP3    H279706  -0.055   3.926  15.007 -1.0357 -1.2517 -0.8508
19431TIP3   OH279707   2.085   3.266  13.303  0.1170 -0.3378 -0.3744
19431TIP3    H179708   2.072   3.251  13.210 -1.1341 -0.8007 -0.1344
19431TIP3    H279709   2.041   3.350  13.320 -0.2923 -0.6116 -0.0644
19432TIP3   OH279710   2.618   4.188  12.495  0.5275 -0.5636 -0.5908
19432TIP3    H179711   2.710   4.165  12.503  0.7185  0.8762  2.0715
19432TIP3    H279712   2.619   4.276  12.457  0.2911 -0.4538 -0.3500
19433TIP3   OH279713   6.728   2.146  17.185 -0.0290 -0.1293 -0.3097
19433TIP3    H179714   6.698   2.093  17.260 -0.0197 -0.3255 -0.4425
19433TIP3    H279715   6.669   2.121  17.114 -0.9417  1.0961 -0.0052
19434TIP3   OH279716   4.335   0.273   3.091  0.7602  0.1416 -0.0373
19434TIP3    H179717   4.317   0.336   3.161  0.6032  0.8986 -0.7602
19434TIP3    H279718   4.430   0.279   3.078  0.9840 -0.9789  1.0394
19435TIP3   OH279719   3.022   2.449   1.261 -0.0092 -0.0681  0.4288
19435TIP3    H179720   3.064   2.472   1.178 -1.6832 -1.0391 -0.7108
19435TIP3    H279721   3.090   2.464   1.327  0.7954  2.4459 -0.8946
19436TIP3   OH279722   2.645   1.821  12.657 -0.1666  0.2948  0.1062
19436TIP3    H179723   2.562   1.815  12.704 -0.4314  0.2791 -0.3635
19436TIP3    H279724   2.708   1.849  12.723 -0.7259  1.2305  0.2466
19437TIP3   OH279725   0.254   0.167  15.049  0.2655 -0.1586 -0.1896
19437TIP3    H179726   0.235   0.088  15.101  1.3734  0.6670  1.5033
19437TIP3    H279727   0.211   0.238  15.097  0.6309  0.5136 -0.8445
19438TIP3   OH279728   6.333   5.194   3.706  0.7278  0.1761  0.6051
19438TIP3    H179729   6.310   5.283   3.733 -0.8136 -0.1149  0.3341
19438TIP3    H279730   6.266   5.139   3.747  2.9469 -1.1223  2.5714
19439TIP3   OH279731   4.873   4.841   1.184  0.0288 -0.0601 -0.0190
19439TIP3    H179732   4.874   4.936   1.175 -0.7660 -0.1429 -1.1872
19439TIP3    H279733   4.843   4.825   1.273  0.1560  0.7904  0.1783
19440TIP3   OH279734   5.064   1.533   1.123 -0.2110 -0.0198 -0.3299
19440TIP3    H179735   5.083   1.603   1.061  1.1071  0.6437  0.8070
19440TIP3    H279736   5.103   1.562   1.206 -0.3989 -1.6983  0.3709
19441TIP3   OH279737   1.731   3.518  13.007 -0.0464  0.3798 -1.0926
19441TIP3    H179738   1.823   3.505  12.985  0.0310  1.2710 -1.2983
19441TIP3    H279739   1.729   3.603  13.051 -0.9839  1.0634 -2.4195
19442TIP3   OH279740   6.592   3.587  12.079 -0.5507 -0.0245  0.0560
19442TIP3    H179741   6.607   3.570  11.986 -3.1483 -1.3816 -0.1646
19442TIP3    H279742   6.656   3.532  12.124  1.2914  1.2781 -0.9043
19443TIP3   OH279743   0.973   1.507   0.737  0.2252  0.3380  0.1300
19443TIP3    H179744   0.903   1.569   0.715 -0.3783  0.0725  1.2964
19443TIP3    H279745   0.971   1.443   0.666 -0.1121  0.8308 -0.3151
19444TIP3   OH279746   0.975   1.554  11.795  0.4981  0.1186 -0.2545
19444TIP3    H179747   1.064   1.578  11.821  1.0647 -1.4882 -0.6765
19444TIP3    H279748   0.941   1.631  11.750  1.2250  1.1883  1.0109
19445TIP3   OH279749   3.853   2.987  11.450 -0.0837 -0.8534 -0.0425
19445TIP3    H179750   3.801   3.066  11.463 -1.5125 -1.8484  0.4677
19445TIP3    H279751   3.913   3.009  11.379 -1.1216  0.3659 -0.5695
19446TIP3   OH279752   3.797   4.080  12.775  0.0378  0.3604  0.4626
19446TIP3    H179753   3.809   4.146  12.706  0.4163  1.4233  1.5357
19446TIP3    H279754   3.876   4.087  12.829  0.2955 -1.2910  0.3400
19447TIP3   OH279755   6.729   3.809   1.316  0.1154  0.1196  0.2176
19447TIP3    H179756   6.706   3.749   1.388 -0.3444  1.5066  1.2386
19447TIP3    H279757   6.693   3.893   1.343 -0.2082  0.6169 -1.7374
19448TIP3   OH279758   1.400   6.723  15.257 -0.1239 -0.3255 -0.4480
19448TIP3    H179759   1.480   6.697  15.211 -1.2131  0.6889 -2.9905
19448TIP3    H279760   1.346   6.644  15.257  0.6959 -0.9140  0.9689
19449TIP3   OH279761   3.470   2.194   2.377  0.1964 -0.1538  0.3855
19449TIP3    H179762   3.490   2.272   2.325  0.8567 -0.0947  0.7202
19449TIP3    H279763   3.467   2.123   2.313 -2.5896  0.4608 -0.2455
19450TIP3   OH279764   3.341   3.426  12.646 -0.0651  0.4658 -0.3936
19450TIP3    H179765   3.328   3.407  12.739 -0.4643  1.5425 -0.2162
19450TIP3    H279766   3.273   3.376  12.601  1.6859 -2.0509 -0.3393
19451TIP3   OH279767   4.019   5.766   3.015  0.3301 -0.0740 -0.1791
19451TIP3    H179768   4.103   5.804   2.989 -0.3378  1.3742 -0.2576
19451TIP3    H279769   3.994   5.815   3.093  0.0509 -1.2080  0.4511
19452TIP3   OH279770   5.811   5.194  16.634  0.5582 -0.0397  0.1185
19452TIP3    H179771   5.861   5.260  16.587 -1.4257  1.0782 -0.5142
19452TIP3    H279772   5.854   5.111  16.613  0.3692  0.5567 -2.8234
19453TIP3   OH279773   5.941   4.718  15.256  0.1284  0.3927 -0.0508
19453TIP3    H179774   6.024   4.757  15.229  1.5593 -2.5591 -0.1886
19453TIP3    H279775   5.885   4.725  15.179  1.2587 -0.2199 -0.9441
19454TIP3   OH279776   3.497   5.224   3.191  0.0946 -0.2212 -0.3363
19454TIP3    H179777   3.560   5.295   3.179  0.2750 -0.4393 -0.6778
19454TIP3    H279778   3.411   5.267   3.187  0.2186  0.0594  0.0167
19455TIP3   OH279779   4.567   0.794  11.485  0.7129  0.4901  0.1251
19455TIP3    H179780   4.558   0.889  11.498  0.8062  0.4322  0.6101
19455TIP3    H279781   4.488   0.757  11.525  0.0452  0.4524 -1.1822
19456TIP3   OH279782   3.733   2.715   0.354  0.0126  0.0264 -0.1154
19456TIP3    H179783   3.683   2.689   0.276  0.6469  0.5228 -0.6873
19456TIP3    H279784   3.697   2.801   0.377  0.5685  0.3585 -0.4940
19457TIP3   OH279785   3.554   3.463   3.579 -0.5157  0.2909  0.0631
19457TIP3    H179786   3.469   3.421   3.591 -0.4794 -0.1294 -1.0988
19457TIP3    H279787   3.532   3.555   3.562 -0.6289  0.6116  1.7738
19458TIP3   OH279788   2.905   4.212  17.181 -0.1244  0.0157 -0.1703
19458TIP3    H179789   2.959   4.264  17.121  0.0634 -0.7260 -0.6437
19458TIP3    H279790   2.916   4.255  17.266 -0.0145  0.7913 -0.5718
19459TIP3   OH279791   6.502   6.424  13.512 -0.3886  0.1616  0.1872
19459TIP3    H179792   6.484   6.500  13.455  0.0244  1.0936  1.2719
19459TIP3    H279793   6.427   6.421  13.572  0.2555  0.5486  1.0206
19460TIP3   OH279794   4.449   4.321  14.654  0.0372 -0.1889 -0.8896
19460TIP3    H179795   4.354   4.320  14.646  0.1353 -1.1192 -2.0763
19460TIP3    H279796   4.470   4.410  14.683 -1.2123 -0.1040 -0.2070
19461TIP3   OH279797   6.147   0.553  10.451  0.0662 -0.9104 -0.0717
19461TIP3    H179798   6.144   0.496  10.374  0.3974  1.2462 -1.7036
19461TIP3    H279799   6.056   0.556  10.482 -0.2918 -0.7754 -1.1157
19462TIP3   OH279800   1.885   4.954  15.726 -0.3661 -0.9730 -0.0624
19462TIP3    H179801   1.914   4.880  15.780 -0.8132 -0.8003  0.4191
19462TIP3    H279802   1.790   4.948  15.727 -0.4052 -0.3440  0.0467
19463TIP3   OH279803   0.357   6.390   1.295 -0.4522 -0.4565  0.3770
19463TIP3    H179804   0.404   6.446   1.232 -0.2165  0.7959  1.6373
19463TIP3    H279805   0.389   6.302   1.277  1.1658  0.1581  0.0967
19464TIP3   OH279806   5.090   1.547   4.890 -0.1655  0.0629  0.0324
19464TIP3    H179807   5.160   1.520   4.949  1.2288 -0.5649 -1.8878
19464TIP3    H279808   5.041   1.466   4.872  1.0284 -0.2685 -1.7866
19465TIP3   OH279809   2.254   4.880   2.962 -0.0776  0.1794 -0.3059
19465TIP3    H179810   2.162   4.890   2.939 -0.5817 -0.4213  1.3621
19465TIP3    H279811   2.281   4.967   2.993 -1.5150 -0.7704  3.9992
19466TIP3   OH279812   6.143   2.178   4.143 -0.4320  0.4326  0.1251
19466TIP3    H179813   6.186   2.264   4.144  0.4163  0.0081  0.6646
19466TIP3    H279814   6.050   2.197   4.155 -0.1422  1.2165  1.2151
19467TIP3   OH279815   6.179   4.289  16.976 -0.2426 -0.3566 -0.1314
19467TIP3    H179816   6.185   4.385  16.979  0.8761 -0.3782 -1.2484
19467TIP3    H279817   6.104   4.271  16.920 -1.2358 -0.1385  1.1066
19468TIP3   OH279818   2.213   6.649  15.604 -0.4055 -0.7020  0.4447
19468TIP3    H179819   2.294   6.622  15.561 -0.2914 -0.5234  0.5400
19468TIP3    H279820   2.224   6.620  15.695 -0.1379 -0.0568  0.6276
19469TIP3   OH279821   0.099   2.268   1.398  0.1968 -0.1420  0.0173
19469TIP3    H179822   0.050   2.328   1.454 -0.8492 -1.0266  0.0736
19469TIP3    H279823   0.190   2.278   1.425 -0.2796 -0.4174  1.7574
19470TIP3   OH279824   5.970   5.974   5.308 -0.2758 -0.0421  0.4839
19470TIP3    H179825   6.049   5.956   5.358  1.2296 -0.5028 -1.9620
19470TIP3    H279826   5.910   6.013   5.371  1.8592  0.2582  2.4060
19471TIP3   OH279827   2.625   6.320  14.615  0.1664 -0.1871  0.5696
19471TIP3    H179828   2.554   6.264  14.585  0.5376 -0.0548 -0.5984
19471TIP3    H279829   2.704   6.282  14.576  0.6565  0.0100  1.3667
19472TIP3   OH279830   2.672   2.626  11.785 -0.0136  0.1748 -0.2692
19472TIP3    H179831   2.676   2.664  11.873 -0.1031 -0.6044  0.0688
19472TIP3    H279832   2.578   2.616  11.768 -0.0318  1.1457 -0.8120
19473TIP3   OH279833   3.414   6.359  16.177  0.2393  0.2706 -0.3125
19473TIP3    H179834   3.408   6.278  16.128 -2.3574  1.5238 -2.2115
19473TIP3    H279835   3.462   6.419  16.120  2.8046 -0.0799  1.3823
19474TIP3   OH279836   6.671   3.163  13.067  0.6653 -0.1713 -0.5754
19474TIP3    H179837   6.666   3.245  13.116  1.1934  0.3966 -1.4602
19474TIP3    H279838   6.592   3.162  13.013  1.1582  0.2420 -1.3120
19475TIP3   OH279839   4.301   2.385   6.647 -0.2540  0.6974  0.0168
19475TIP3    H179840   4.377   2.326   6.644 -2.3356 -2.1228  1.2991
19475TIP3    H279841   4.335   2.466   6.685  1.9498 -0.7688  1.2514
19476TIP3   OH279842   6.635   2.398  15.024  0.2453  0.0898  0.1262
19476TIP3    H179843   6.671   2.417  15.110  1.3188  0.7188 -0.4373
19476TIP3    H279844   6.655   2.306  15.009  0.6233  0.1424  0.2981
19477TIP3   OH279845   5.822   1.358   0.315  0.2853 -0.2216 -0.4742
19477TIP3    H179846   5.908   1.317   0.309  0.6824  0.3760  1.0138
19477TIP3    H279847   5.761   1.284   0.318  0.7331 -0.6470 -1.5555
19478TIP3   OH279848   2.176   5.020   3.588  0.2742 -0.4357 -0.0941
19478TIP3    H179849   2.217   4.972   3.660 -2.7222  0.1610  2.1061
19478TIP3    H279850   2.127   4.953   3.539 -1.0652 -0.2135  0.9148
19479TIP3   OH279851   5.747   3.568   1.498 -0.6313 -0.4523  0.0099
19479TIP3    H179852   5.747   3.481   1.457 -0.1215 -0.4026 -0.1018
19479TIP3    H279853   5.684   3.618   1.447  0.9028 -0.0236 -1.5308
19480TIP3   OH279854   4.269   1.607   5.567  0.3091  0.6352  0.3129
19480TIP3    H179855   4.199   1.543   5.577  1.2331 -0.5404 -0.6704
19480TIP3    H279856   4.244   1.679   5.625 -0.3160 -0.9424  2.0164
19481TIP3   OH279857   0.768   0.755   0.004  0.3791 -0.1495 -0.0068
19481TIP3    H179858   0.841   0.752  -0.058  0.0528 -0.4167 -0.3789
19481TIP3    H279859   0.714   0.679  -0.018 -1.4001  1.4666 -1.4474
19482TIP3   OH279860   6.329   5.572   4.216 -0.0948  0.0983  0.5149
19482TIP3    H179861   6.343   5.628   4.140 -0.5744  0.5625  0.7646
19482TIP3    H279862   6.414   5.531   4.232  0.6273  1.7821  1.1472
19483TIP3   OH279863   0.888   0.071   5.549  0.0005  0.0236  0.5816
19483TIP3    H179864   0.974   0.030   5.556  1.2425  2.4109 -0.0590
19483TIP3    H279865   0.854   0.040   5.465  1.3687  1.0360 -0.3821
19484TIP3   OH279866   0.895   0.185   1.754 -0.6263 -0.6522  0.3981
19484TIP3    H179867   0.825   0.244   1.726  1.1029  1.0619 -0.4417
19484TIP3    H279868   0.913   0.213   1.844 -2.5324 -2.6071  1.4274
19485TIP3   OH279869   0.974   0.176  13.964  0.2505 -0.3941 -0.2527
19485TIP3    H179870   1.050   0.140  13.918  1.6600  1.3008  0.6966
19485TIP3    H279871   0.993   0.163  14.056 -0.0941  1.0521  0.0292
19486TIP3   OH279872   6.578   2.587  14.234 -0.4553 -0.0283 -0.1485
19486TIP3    H179873   6.653   2.539  14.269 -0.8861 -1.1186 -0.6867
19486TIP3    H279874   6.518   2.519  14.204 -1.1542  0.8489 -0.7834
19487TIP3   OH279875   5.367   0.129  13.896 -0.4412  0.2171 -0.1145
19487TIP3    H179876   5.411   0.102  13.816  0.1094  0.0611  0.2401
19487TIP3    H279877   5.274   0.129  13.873 -0.2730  0.3526 -0.8010
19488TIP3   OH279878   2.281   4.492   0.651 -0.3764 -0.5055  0.2496
19488TIP3    H179879   2.294   4.508   0.745  0.1592 -0.5220  0.1805
19488TIP3    H279880   2.186   4.491   0.640 -0.4277  1.0027  0.5213
19489TIP3   OH279881   3.131   2.699  10.866  0.0801 -0.2904  0.2511
19489TIP3    H179882   3.039   2.704  10.840 -0.4386  1.2701  2.2540
19489TIP3    H279883   3.180   2.718  10.786 -1.3767  0.4640 -0.4726
19490TIP3   OH279884   3.085   2.588  15.401  0.0789 -0.0171 -0.5697
19490TIP3    H179885   3.032   2.604  15.324 -0.2615 -0.6700 -0.4703
19490TIP3    H279886   3.172   2.622  15.378 -0.5828  1.8431 -0.4150
19491TIP3   OH279887   5.003   3.160  14.303 -0.1333  0.3370 -0.1147
19491TIP3    H179888   4.966   3.074  14.282  0.1054  0.2222 -0.0714
19491TIP3    H279889   4.932   3.222  14.289 -0.7156 -0.0190  1.1938
19492TIP3   OH279890   4.563   6.644   2.342  0.2413 -0.2391 -0.0264
19492TIP3    H179891   4.535   6.633   2.251  2.3928 -0.8861 -0.6224
19492TIP3    H279892   4.560   6.556   2.379  2.1319 -0.4223 -0.2911
19493TIP3   OH279893   0.070   6.222  10.664  0.7295 -0.0905 -0.3483
19493TIP3    H179894   0.159   6.213  10.629  0.3666 -0.3536 -1.2202
19493TIP3    H279895   0.067   6.310  10.701  1.3713 -0.1003 -0.2640
19494TIP3   OH279896   3.157   4.461   4.148  0.0339  0.2825  0.0566
19494TIP3    H179897   3.229   4.431   4.092 -1.2613 -0.7076 -1.1154
19494TIP3    H279898   3.094   4.389   4.146 -0.7013  0.8516  1.6321
19495TIP3   OH279899   5.140   1.734   3.779  0.1339 -0.1947  0.3412
19495TIP3    H179900   5.063   1.682   3.754  0.9741 -1.6434  0.7021
19495TIP3    H279901   5.210   1.669   3.788  1.1281  0.9815  1.1101
19496TIP3   OH279902   5.664   6.429  14.335 -0.1751  0.2826  0.4150
19496TIP3    H179903   5.574   6.423  14.305 -0.3883 -1.0394  1.2950
19496TIP3    H279904   5.657   6.462  14.425  0.1462 -1.0213  0.9198
19497TIP3   OH279905   5.536   5.249   5.602 -0.5203  0.9119 -0.0919
19497TIP3    H179906   5.600   5.304   5.557 -0.9968  1.4324 -0.1394
19497TIP3    H279907   5.569   5.243   5.692  0.9896 -0.9887 -0.7500
19498TIP3   OH279908   3.390   0.558  11.255 -0.4059  0.2230  0.0222
19498TIP3    H179909   3.294   0.550  11.260 -0.3750 -0.9510 -0.9935
19498TIP3    H279910   3.406   0.653  11.254 -1.4503  0.4432  1.7725
19499TIP3   OH279911   1.029   3.079  12.879  0.0026  0.1263 -0.0535
19499TIP3    H179912   0.946   3.041  12.849  0.8264 -1.1470 -0.7514
19499TIP3    H279913   1.094   3.049  12.816  1.3408 -0.4880  1.5739
19500TIP3   OH279914   0.610   1.837  15.155 -0.2369 -0.2606  0.2139
19500TIP3    H179915   0.576   1.773  15.093 -1.5711 -0.8051  1.4857
19500TIP3    H279916   0.567   1.919  15.132  0.7564 -0.0046 -0.8073
19501TIP3   OH279917   6.030   4.656  10.528 -0.6657  1.1199  0.8250
19501TIP3    H179918   6.031   4.584  10.466 -2.0384  1.6327  0.1965
19501TIP3    H279919   6.032   4.614  10.614  2.0820  0.4235  0.4823
19502TIP3   OH279920   5.137   1.258  11.130 -0.2629 -0.3729  0.1237
19502TIP3    H179921   5.169   1.191  11.070  0.1910 -1.3013  1.3804
19502TIP3    H279922   5.044   1.236  11.143 -0.5450  0.2562 -0.7928
19503TIP3   OH279923   4.184   6.512   6.649 -0.2593 -0.4613 -0.5336
19503TIP3    H179924   4.202   6.506   6.555 -0.6253  1.1296 -0.7208
19503TIP3    H279925   4.199   6.605   6.670 -1.5178 -0.5248  0.6946
19504TIP3   OH279926   6.519   1.941   3.057  0.9472 -0.3667  0.6659
19504TIP3    H179927   6.515   2.026   3.013  3.4736 -0.2341  0.6549
19504TIP3    H279928   6.453   1.947   3.126  0.0363  1.0307 -0.3019
19505TIP3   OH279929   0.208   6.160  16.545  0.0437  0.3574  0.6121
19505TIP3    H179930   0.198   6.101  16.620  0.2121  0.0776  0.4147
19505TIP3    H279931   0.252   6.237  16.582  0.3847  0.1017  0.7416
19506TIP3   OH279932   0.685   6.688  11.030  0.2666  0.7993 -0.1413
19506TIP3    H179933   0.608   6.652  10.986  0.1349  0.1631  0.6046
19506TIP3    H279934   0.650   6.756  11.088  0.1893  0.0762  0.6716
19507TIP3   OH279935   2.510   5.014  16.614  0.3972  0.4274 -0.2420
19507TIP3    H179936   2.437   4.957  16.594 -0.0502  1.1014 -0.5387
19507TIP3    H279937   2.494   5.093  16.563  0.7852  0.9889  0.4913
19508TIP3   OH279938   5.924   1.949   3.869  0.4592 -0.3273  0.0161
19508TIP3    H179939   5.996   1.965   3.930  1.5439 -2.9707 -0.5061
19508TIP3    H279940   5.852   2.002   3.903  2.6178  2.4749  0.5095
19509TIP3   OH279941   4.739   3.686   5.170 -0.9198  0.1160  0.2482
19509TIP3    H179942   4.663   3.633   5.195  0.0092 -0.9815  0.8065
19509TIP3    H279943   4.702   3.771   5.146 -2.6020 -1.1763 -1.9784
19510TIP3   OH279944   5.951   1.167  11.959  0.4461 -0.5387  0.0322
19510TIP3    H179945   5.909   1.107  12.021  0.0387  1.6142  1.9380
19510TIP3    H279946   6.008   1.222  12.014  1.1465  0.5007 -1.7017
19511TIP3   OH279947   5.963   6.638  16.333 -0.9271 -0.1262  0.7283
19511TIP3    H179948   5.919   6.605  16.255  0.5809 -0.8761  0.1758
19511TIP3    H279949   6.056   6.626  16.315 -0.5687 -0.5315  2.7530
19512TIP3   OH279950   4.548   4.345  12.290  0.0121  0.0945  0.5827
19512TIP3    H179951   4.473   4.305  12.336  0.8003 -0.4336  1.4452
19512TIP3    H279952   4.509   4.406  12.229 -1.1865 -1.0228  0.2018
19513TIP3   OH279953   1.377   4.539   4.072 -0.0471 -0.2512 -0.4435
19513TIP3    H179954   1.413   4.511   3.988  2.2553  1.3005 -0.0494
19513TIP3    H279955   1.408   4.473   4.135 -1.9513 -1.5296 -0.8180
19514TIP3   OH279956   2.031   4.350   4.634  0.2948 -0.1561 -0.1870
19514TIP3    H179957   2.065   4.378   4.549  0.7237 -1.4724 -0.4552
19514TIP3    H279958   1.973   4.277   4.614  0.3387 -0.4271  0.6528
19515TIP3   OH279959   0.847   5.125   5.460  0.3458  0.1534  0.1058
19515TIP3    H179960   0.754   5.109   5.474  0.4120  0.6001  1.0653
19515TIP3    H279961   0.881   5.041   5.430 -0.1356 -0.3309  0.9069
19516TIP3   OH279962   5.740   0.322  14.932 -0.7767  0.3049 -0.8041
19516TIP3    H179963   5.811   0.303  14.993 -1.2272 -0.9580 -0.6442
19516TIP3    H279964   5.728   0.416  14.936 -1.6507  0.1040  2.0159
19517TIP3   OH279965   5.255   5.302   6.018  0.0931  0.8013 -0.6066
19517TIP3    H179966   5.212   5.218   6.002  0.1235  0.7286 -0.3093
19517TIP3    H279967   5.301   5.290   6.100  1.3981  0.5893 -1.3532
19518TIP3   OH279968   0.588   0.031   2.715  0.4318 -0.1293  0.9344
19518TIP3    H179969   0.674   0.046   2.753  1.5037 -0.1952 -1.3906
19518TIP3    H279970   0.606  -0.006   2.628 -1.9173  0.4234  0.1799
19519TIP3   OH279971   1.256   0.324   1.133 -0.0768  0.4298  0.0482
19519TIP3    H179972   1.236   0.361   1.048 -0.7236  0.3276  0.1541
19519TIP3    H279973   1.191   0.255   1.146 -1.0666  1.5654  1.3609
19520TIP3   OH279974   3.954   3.608   6.157  0.2309  0.5048 -0.2201
19520TIP3    H179975   3.897   3.601   6.233  1.5459  0.9717  0.8394
19520TIP3    H279976   4.002   3.525   6.154 -1.0261 -0.1878 -1.5499
19521TIP3   OH279977   4.341   6.151  11.382 -0.2595 -0.2845  0.3903
19521TIP3    H179978   4.363   6.243  11.366 -1.7604  0.1991  0.9523
19521TIP3    H279979   4.400   6.124  11.452  0.0230  0.3289  0.3933
19522TIP3   OH279980   4.869   1.662  14.109  0.6072 -0.4862 -0.3187
19522TIP3    H179981   4.878   1.594  14.042  1.2012  1.3699 -2.1979
19522TIP3    H279982   4.775   1.679  14.114  0.3309 -2.2922  1.0742
19523TIP3   OH279983   2.609   2.261   1.774  0.0093  0.1109 -0.0189
19523TIP3    H179984   2.559   2.180   1.762 -0.1372  0.5394 -2.7012
19523TIP3    H279985   2.561   2.309   1.841 -3.8441  0.9124 -3.1527
19524TIP3   OH279986   0.247   5.321  15.450  0.3187  0.2392 -0.3188
19524TIP3    H179987   0.176   5.344  15.509  0.4956  0.5994 -0.2446
19524TIP3    H279988   0.264   5.401  15.400 -2.0198 -0.9346 -3.1538
19525TIP3   OH279989   4.578   4.168  16.343 -0.8880  0.0097  0.4069
19525TIP3    H179990   4.623   4.144  16.424 -0.6112 -0.3986  0.1357
19525TIP3    H279991   4.638   4.226  16.298 -0.3646 -0.9992 -0.2261
19526TIP3   OH279992   1.710   2.233  13.665 -0.0559  0.2590 -0.1208
19526TIP3    H179993   1.775   2.235  13.735 -0.0607  0.2481 -0.1154
19526TIP3    H279994   1.637   2.285  13.699 -0.3448 -0.3285  0.1739
19527TIP3   OH279995   4.849   6.266  15.471 -1.0325  0.4042  1.0585
19527TIP3    H179996   4.877   6.325  15.402 -1.6775  0.2277  0.6448
19527TIP3    H279997   4.924   6.261  15.530 -0.4429  0.4675  0.3175
19528TIP3   OH279998   4.668   4.353   4.026  0.7125 -0.0238 -0.2995
19528TIP3    H179999   4.676   4.342   4.121  2.1597  0.7029 -0.3311
19528TIP3    H280000   4.757   4.363   3.995  0.0365  3.5772 -1.2795
19529TIP3   OH280001   4.850   0.916  15.869 -0.2616 -0.1402  0.1446
19529TIP3    H180002   4.787   0.967  15.920 -1.1340  0.9260 -1.9584
19529TIP3    H280003   4.802   0.890  15.791  1.7158  0.1346 -1.1927
19530TIP3   OH280004   3.876   6.117  13.875 -0.6401 -0.8700 -0.1472
19530TIP3    H180005   3.944   6.129  13.942 -1.3566 -1.1444  0.6356
19530TIP3    H280006   3.870   6.203  13.833 -0.8588 -0.4141  0.7876
19531TIP3   OH280007   3.040   3.311  15.082 -0.5602 -0.3037 -0.7552
19531TIP3    H180008   3.051   3.296  14.988  2.4300  0.7433 -0.6220
19531TIP3    H280009   3.104   3.379  15.103 -1.7351  0.0438  1.9027
19532TIP3   OH280010   5.821   6.546   3.038  0.0515 -0.1631  0.6848
19532TIP3    H180011   5.788   6.632   3.064 -0.9996 -0.6298  0.9344
19532TIP3    H280012   5.754   6.485   3.068  1.1965 -1.1566  1.2695
19533TIP3   OH280013   4.602   4.752   4.253 -0.0221 -0.2536  0.6931
19533TIP3    H180014   4.644   4.683   4.202  0.4814  0.2409  0.4396
19533TIP3    H280015   4.630   4.736   4.343  0.2416 -0.2708  0.6076
19534TIP3   OH280016   1.211   0.976  15.259 -0.3365 -0.5710 -0.0427
19534TIP3    H180017   1.261   0.971  15.178 -0.3211 -1.2645  0.0093
19534TIP3    H280018   1.226   0.892  15.302  0.7905  0.3456  1.3517
19535TIP3   OH280019   0.257   0.502   5.666 -0.5555  0.1211 -0.0132
19535TIP3    H180020   0.347   0.500   5.697 -0.8529 -0.2656  0.8275
19535TIP3    H280021   0.208   0.543   5.736 -0.7485  2.0175 -1.2315
19536TIP3   OH280022   5.967   1.353   2.203  0.0461 -0.2049  0.1154
19536TIP3    H180023   5.962   1.263   2.172  0.8403  0.3075 -1.5670
19536TIP3    H280024   6.019   1.398   2.137 -0.2198  1.4573  1.0129
19537TIP3   OH280025   1.678   1.179  14.765 -0.1127  0.3623  0.4695
19537TIP3    H180026   1.716   1.091  14.758 -1.0798 -0.0461  0.2380
19537TIP3    H280027   1.753   1.238  14.758  0.5181 -0.4375  0.3762
19538TIP3   OH280028   3.070   2.938  15.144 -0.2754  0.3394 -0.0976
19538TIP3    H180029   3.074   3.025  15.103 -2.9381  0.6334  0.1901
19538TIP3    H280030   3.051   2.879  15.072 -1.0833  0.3467  0.1071
19539TIP3   OH280031   0.375   2.235   2.152 -0.1684 -0.5403  0.1798
19539TIP3    H180032   0.367   2.151   2.198 -0.2145 -0.9221 -0.5246
19539TIP3    H280033   0.411   2.212   2.066 -0.1429  0.1674 -0.0007
19540TIP3   OH280034   5.737   3.961   3.017  0.5524 -0.0247  0.4270
19540TIP3    H180035   5.826   3.927   3.021  0.1910 -0.8019  2.6834
19540TIP3    H280036   5.697   3.933   3.099 -1.4536  1.2030 -0.0955
19541TIP3   OH280037   4.993   3.522   1.498 -0.6695 -0.5031 -0.0306
19541TIP3    H180038   4.976   3.469   1.577  1.0655  0.0775  0.7721
19541TIP3    H280039   4.907   3.540   1.462 -1.4370 -1.6947  1.1432
19542TIP3   OH280040   1.295   3.878  13.350  0.6200 -0.1596 -0.8887
19542TIP3    H180041   1.294   3.785  13.325  1.2716 -1.0055  2.0762
19542TIP3    H280042   1.203   3.905  13.342 -0.1520 -1.9593  1.2732
19543TIP3   OH280043   6.659   5.366   0.586 -0.0028 -0.2066 -0.2627
19543TIP3    H180044   6.618   5.320   0.659 -0.2452 -1.3587 -1.1043
19543TIP3    H280045   6.656   5.303   0.514 -0.1587  1.0634 -1.3838
19544TIP3   OH280046   4.262   1.916  15.726 -0.4051  0.7889  0.3531
19544TIP3    H180047   4.326   1.925  15.655 -0.9543  0.9127 -0.1328
19544TIP3    H280048   4.305   1.956  15.802  0.3845  0.1996  0.2198
19545TIP3   OH280049   4.783   1.546   0.820  0.0395 -0.0594 -0.1832
19545TIP3    H180050   4.762   1.458   0.851  0.0700 -0.2557 -0.7057
19545TIP3    H280051   4.867   1.567   0.862 -0.6946  0.3192  1.0961
19546TIP3   OH280052   4.171   0.851   3.442  0.1685  0.2421 -0.2519
19546TIP3    H180053   4.109   0.779   3.442  0.7895 -0.2967  0.0094
19546TIP3    H280054   4.243   0.821   3.499 -0.2584  1.6551  1.0673
19547TIP3   OH280055   2.913   5.808  16.206  0.2299 -0.2182 -0.3775
19547TIP3    H180056   2.902   5.792  16.112  0.7631  0.6524 -0.5971
19547TIP3    H280057   2.846   5.873  16.227  1.6581  1.4059 -0.6855
19548TIP3   OH280058   6.151   3.512   0.141 -0.1177 -0.1628 -0.1687
19548TIP3    H180059   6.116   3.463   0.066 -2.2221 -0.2251  0.8374
19548TIP3    H280060   6.082   3.508   0.207  1.3179  0.7450  1.4239
19549TIP3   OH280061   3.995   1.335   4.930 -0.0138 -0.3790  0.4264
19549TIP3    H180062   3.932   1.294   4.870  0.3786  1.0221 -0.9950
19549TIP3    H280063   3.944   1.356   5.008 -1.7089  2.0144 -1.2454
19550TIP3   OH280064   0.890   5.278   1.657  0.9411 -0.2962  0.1978
19550TIP3    H180065   0.983   5.256   1.662  1.0926  0.3036  0.0747
19550TIP3    H280066   0.881   5.355   1.714  0.4715 -0.5126  0.4187
19551TIP3   OH280067   0.579   5.167  14.546 -0.6855 -0.3479 -1.4018
19551TIP3    H180068   0.636   5.091  14.535 -0.7242 -0.2861 -2.0326
19551TIP3    H280069   0.491   5.133  14.535 -1.0572 -1.1330  3.0687
19552TIP3   OH280070   6.222   3.535  15.588  0.1217  0.1501  0.5774
19552TIP3    H180071   6.244   3.561  15.678 -0.2988 -0.0904  0.7543
19552TIP3    H280072   6.186   3.447  15.597 -1.7508  0.8655  0.4340
19553TIP3   OH280073   2.043   2.381   5.345  0.3063 -0.5537  0.1474
19553TIP3    H180074   1.968   2.332   5.378  0.1716 -0.0629  0.5754
19553TIP3    H280075   2.005   2.448   5.288  0.5742 -1.8077 -1.5574
19554TIP3   OH280076   2.456   4.472  16.185 -0.5965 -0.0570  0.6012
19554TIP3    H180077   2.443   4.469  16.280  2.2526  0.5529  1.0504
19554TIP3    H280078   2.547   4.498  16.174 -1.1078  0.6710 -2.3364
19555TIP3   OH280079   5.005   3.933  11.711  0.2077  0.2029  0.4810
19555TIP3    H180080   4.982   3.973  11.795 -0.8639  1.5557 -0.4545
19555TIP3    H280081   4.978   3.996  11.645  1.6237 -0.5767 -0.8800
19556TIP3   OH280082   0.446   5.123  15.981  0.2277 -0.2880 -0.2494
19556TIP3    H180083   0.494   5.206  15.975 -0.8818  0.3176 -0.9272
19556TIP3    H280084   0.477   5.072  15.907  2.7203 -1.4708  1.5420
19557TIP3   OH280085   5.342   5.660  14.417  0.1799 -0.2326 -0.1299
19557TIP3    H180086   5.417   5.615  14.380  1.9201  1.9305  0.6934
19557TIP3    H280087   5.296   5.593  14.468  2.4529 -1.1863  0.6899
19558TIP3   OH280088   0.281   2.372  11.131 -0.7521  0.5929 -0.3278
19558TIP3    H180089   0.365   2.342  11.098 -1.2074 -1.2704  0.1322
19558TIP3    H280090   0.222   2.367  11.056 -0.4845  1.8577 -0.6399
19559TIP3   OH280091   2.527   5.150  15.773 -0.0384  0.5474  0.0652
19559TIP3    H180092   2.432   5.150  15.786  0.1490  2.0355  1.6244
19559TIP3    H280093   2.560   5.092  15.841  0.3189  1.6922  0.8786
19560TIP3   OH280094   0.279   5.336   0.521 -0.0595  0.1077 -0.0534
19560TIP3    H180095   0.286   5.287   0.439 -0.5719 -1.4624  0.8432
19560TIP3    H280096   0.339   5.293   0.581  0.5353  1.4369  0.3390
19561TIP3   OH280097   5.702   4.074  13.899  0.3794  0.3368 -0.0113
19561TIP3    H180098   5.780   4.105  13.852 -0.0539  1.1596 -0.1808
19561TIP3    H280099   5.669   4.150  13.945  0.5950 -0.3920  1.3671
19562TIP3   OH280100   4.580   5.629  11.161 -0.0698  0.2253 -0.1545
19562TIP3    H180101   4.561   5.654  11.252  1.1192  0.8209 -0.0588
19562TIP3    H280102   4.535   5.546  11.150 -0.3344  0.2044  0.9535
19563TIP3   OH280103   1.384   2.951  15.132  0.1886  0.2586  0.2465
19563TIP3    H180104   1.458   2.976  15.077  1.0727  2.0659  2.1722
19563TIP3    H280105   1.383   2.855  15.129  1.9704  0.2380 -0.6204
19564TIP3   OH280106   4.494   2.701   2.304 -0.0347  0.1055  0.4672
19564TIP3    H180107   4.497   2.793   2.331  0.9117  0.9464 -2.2758
19564TIP3    H280108   4.582   2.667   2.322 -0.7096 -0.6280  2.5358
19565TIP3   OH280109   0.964   5.351   1.982  0.1978  0.4676  0.1641
19565TIP3    H180110   1.016   5.366   2.060  0.7292  2.1293 -0.5002
19565TIP3    H280111   0.910   5.429   1.973 -0.1289  0.1301 -0.9171
19566TIP3   OH280112   1.473   3.011  12.176  0.8384 -0.0439 -0.8758
19566TIP3    H180113   1.436   3.097  12.156 -1.0945  0.0748  2.6978
19566TIP3    H280114   1.411   2.949  12.136 -0.4857  0.2227  0.6966
19567TIP3   OH280115   3.295   6.667   0.597 -0.2153  0.5439 -0.3360
19567TIP3    H180116   3.220   6.726   0.602  0.1674  1.0605 -0.7156
19567TIP3    H280117   3.278   6.612   0.521 -0.4876  0.2834 -0.0853
19568TIP3   OH280118   3.787   2.801   4.577 -0.3500 -0.1266 -0.6400
19568TIP3    H180119   3.757   2.818   4.488  0.9240 -1.9727 -1.4517
19568TIP3    H280120   3.859   2.739   4.567  2.1038  2.2743  1.4338
19569TIP3   OH280121   2.542   4.701   5.025 -0.6806 -0.0447 -0.5793
19569TIP3    H180122   2.505   4.614   5.013 -1.1021  0.0414  0.0922
19569TIP3    H280123   2.470   4.761   5.005  0.4331  0.2455 -4.1495
19570TIP3   OH280124   1.825   1.040   0.534 -0.3902 -0.4304  0.2748
19570TIP3    H180125   1.834   1.135   0.525  0.6863 -0.5534 -0.0531
19570TIP3    H280126   1.804   1.010   0.446  0.1775 -0.5956  0.1990
19571TIP3   OH280127   0.802   5.175   2.514  0.2845  0.3196  0.1472
19571TIP3    H180128   0.776   5.165   2.605  0.1190  0.8363  0.1574
19571TIP3    H280129   0.720   5.170   2.464  0.3863 -0.0827  0.0126
19572TIP3   OH280130   2.788   6.044  11.815 -0.4741 -0.4322  0.8023
19572TIP3    H180131   2.700   6.031  11.777 -0.4170 -1.0735  0.8848
19572TIP3    H280132   2.844   6.059  11.739 -0.9334  1.6946  0.8400
19573TIP3   OH280133   4.523   4.907   2.840 -0.3116 -0.2023 -0.8105
19573TIP3    H180134   4.485   4.905   2.752  0.5020  1.0357 -1.2021
19573TIP3    H280135   4.448   4.924   2.898 -0.8378 -0.9597 -1.2557
19574TIP3   OH280136   2.134   4.841   4.077  0.8561  0.3098  0.2083
19574TIP3    H180137   2.204   4.798   4.127  0.3187 -0.1545  0.5671
19574TIP3    H280138   2.075   4.877   4.144  0.6067  0.4705 -0.0944
19575TIP3   OH280139   6.742   0.219   4.232 -0.5169 -0.1489 -0.0999
19575TIP3    H180140   6.750   0.297   4.288 -1.3236 -0.3615  0.3097
19575TIP3    H280141   6.826   0.175   4.242  0.3384  1.1900 -1.1235
19576TIP3   OH280142   2.121   1.324  14.280  0.3794 -0.2390  0.0973
19576TIP3    H180143   2.128   1.397  14.218 -1.2112 -0.5514 -0.4537
19576TIP3    H280144   2.028   1.316  14.297  0.5378 -2.1748  0.1221
19577TIP3   OH280145   0.050   4.421  15.524 -0.1659  0.1437  0.1395
19577TIP3    H180146  -0.018   4.452  15.583 -1.1178 -0.0518 -0.8330
19577TIP3    H280147   0.128   4.470  15.549 -0.8006  0.7710  0.9030
19578TIP3   OH280148   1.690   6.242  14.690 -0.6898 -0.2043 -0.0122
19578TIP3    H180149   1.617   6.222  14.750 -0.1647 -1.2380  0.3069
19578TIP3    H280150   1.665   6.200  14.608 -0.8094  0.1125 -0.1395
19579TIP3   OH280151   1.556   3.594   1.744  0.2855 -0.7028  0.1058
19579TIP3    H180152   1.607   3.556   1.816 -0.5068 -0.4352  0.8173
19579TIP3    H280153   1.606   3.672   1.718  1.3697 -1.6394 -0.6652
19580TIP3   OH280154   3.856   2.943  11.746 -0.0541 -0.1918 -0.5099
19580TIP3    H180155   3.827   3.033  11.735  1.6737  0.8080  2.4902
19580TIP3    H280156   3.923   2.931  11.679 -0.6186  0.5899 -1.2171
19581TIP3   OH280157   1.488   0.989  13.163 -0.4772 -0.0053  0.2544
19581TIP3    H180158   1.409   1.043  13.168  1.6717  3.2571  0.7434
19581TIP3    H280159   1.505   0.964  13.253 -0.6988 -0.2926  0.2142
19582TIP3   OH280160   0.087   3.510  17.019  0.2694  0.5328 -1.1166
19582TIP3    H180161   0.142   3.467  17.085  0.2191  1.5994 -0.3790
19582TIP3    H280162   0.010   3.539  17.066  0.2658  1.3765 -1.6323
19583TIP3   OH280163   0.712   6.415  11.895  0.7737  0.5343 -0.3010
19583TIP3    H180164   0.744   6.433  11.984  1.9136 -0.3845 -0.5063
19583TIP3    H280165   0.682   6.500  11.862  1.1773  1.0465  0.6388
19584TIP3   OH280166   6.132   1.312   4.046  0.7652 -0.2346 -0.2666
19584TIP3    H180167   6.045   1.332   4.079 -0.2165 -0.0541 -2.8602
19584TIP3    H280168   6.187   1.382   4.081  0.1031 -0.9206  2.2272
19585TIP3   OH280169   4.841   3.455   3.993  0.5170 -0.0049 -0.1670
19585TIP3    H180170   4.783   3.433   3.920 -1.2378  2.6481  0.3789
19585TIP3    H280171   4.787   3.441   4.071  1.2381  0.6344  0.4472
19586TIP3   OH280172   5.950   5.981   4.503 -0.3385  0.0941 -0.2569
19586TIP3    H180173   5.948   5.917   4.574 -0.3144  0.7223  0.3136
19586TIP3    H280174   5.970   6.064   4.546 -1.5789  0.7101 -0.8284
19587TIP3   OH280175   5.386   1.645  14.192  0.2783  0.1365 -0.4189
19587TIP3    H180176   5.327   1.668  14.263 -0.0039  1.7830 -1.1757
19587TIP3    H280177   5.338   1.581  14.140  0.3616 -0.8270  0.6730
19588TIP3   OH280178   0.728   6.623  16.184 -0.0438 -0.0295  0.2853
19588TIP3    H180179   0.784   6.696  16.210 -1.3530  0.4895  1.6978
19588TIP3    H280180   0.715   6.635  16.090  0.0608  1.3501  0.4373
19589TIP3   OH280181   4.265   3.136  13.292  0.1687  0.0343  0.5613
19589TIP3    H180182   4.182   3.094  13.267  0.1799  1.2832 -1.7351
19589TIP3    H280183   4.239   3.204  13.355 -0.7853  1.3713 -1.2198
19590TIP3   OH280184   3.602   0.106  15.567  0.2123  0.1738  0.2061
19590TIP3    H180185   3.573   0.090  15.477  0.1541  0.1746  0.2244
19590TIP3    H280186   3.541   0.172  15.600  2.1704  2.5416 -0.7645
19591TIP3   OH280187   3.051   1.867  10.973 -0.0325 -0.0645 -0.2361
19591TIP3    H180188   3.069   1.881  10.880  0.3157 -1.6157 -0.4150
19591TIP3    H280189   2.964   1.903  10.987  0.6657  1.9018 -0.7329
19592TIP3   OH280190   4.547   3.266  11.662 -0.0895  0.5471  0.1483
19592TIP3    H180191   4.626   3.290  11.711 -0.8009  0.3902  1.4087
19592TIP3    H280192   4.544   3.329  11.590  1.5159  0.1587 -0.2879
19593TIP3   OH280193   6.429   6.210  15.625  0.7296  0.7533  0.0120
19593TIP3    H180194   6.425   6.115  15.615 -0.8714  0.6790  1.1385
19593TIP3    H280195   6.364   6.243  15.564 -0.4726  0.9677  1.3800
19594TIP3   OH280196   6.342   1.791   2.844  0.5489  0.1203 -0.0479
19594TIP3    H180197   6.313   1.816   2.756  2.0686 -1.6363 -1.0723
19594TIP3    H280198   6.412   1.853   2.864 -1.0528  1.7262  0.7294
19595TIP3   OH280199   0.067   0.559   2.010  0.3060 -0.1513 -0.1513
19595TIP3    H180200   0.013   0.480   2.003  1.2350 -1.0950  2.5304
19595TIP3    H280201   0.006   0.626   2.041  0.5987 -1.2704  3.1047
19596TIP3   OH280202   6.558   2.306  12.956  0.4492  0.0218  0.0857
19596TIP3    H180203   6.483   2.356  12.987  0.4182 -0.0292  0.0934
19596TIP3    H280204   6.522   2.219  12.936  0.1896  0.4609 -1.4121
19597TIP3   OH280205   3.529   2.801  11.869 -0.1306  0.2709  1.2134
19597TIP3    H180206   3.552   2.804  11.777  0.4331 -0.4578  1.3293
19597TIP3    H280207   3.470   2.876  11.882  0.7393  1.0758  0.5358
19598TIP3   OH280208   1.949   6.634   4.396 -0.6814 -0.3173 -0.1826
19598TIP3    H180209   1.882   6.597   4.453  1.1449 -4.0931 -0.3410
19598TIP3    H280210   2.022   6.655   4.454  0.0138 -1.2317 -0.7302
19599TIP3   OH280211   0.637   4.507   4.111  0.2961 -0.4447  0.4786
19599TIP3    H180212   0.626   4.584   4.166 -1.7958 -1.0313  0.8992
19599TIP3    H280213   0.581   4.523   4.035  0.0037 -1.4554  0.4696
19600TIP3   OH280214   2.091   2.933   3.888  0.0023  1.3313  0.2124
19600TIP3    H180215   2.129   2.990   3.822 -0.0954  0.5540 -0.5184
19600TIP3    H280216   2.056   2.859   3.839 -0.8281  1.1581  1.0507
19601TIP3   OH280217   3.326   6.045  15.004  0.3352  0.3262  0.0042
19601TIP3    H180218   3.387   6.113  14.975 -0.5945  0.7370 -1.0322
19601TIP3    H280219   3.248   6.058  14.950 -0.3723 -0.6975  0.7574
19602TIP3   OH280220   1.899   0.906  11.239 -0.2792  0.4878  0.4471
19602TIP3    H180221   1.847   0.880  11.315 -0.1357 -0.1693  0.3203
19602TIP3    H280222   1.843   0.967  11.192 -0.2044  1.2315  1.3025
19603TIP3   OH280223   3.752   1.124   6.639  0.1263  0.1215  0.1937
19603TIP3    H180224   3.656   1.129   6.642  0.0176 -1.7459  0.0325
19603TIP3    H280225   3.781   1.193   6.699 -1.3095  0.7804  0.1590
19604TIP3   OH280226   3.455   4.528  11.667  0.2587  0.5590  0.1018
19604TIP3    H180227   3.482   4.619  11.681  1.3887  0.2835 -0.2811
19604TIP3    H280228   3.448   4.520  11.572  0.7135  0.0803  0.1105
19605TIP3   OH280229   1.531   5.337  11.244  0.6788 -0.0954  0.1575
19605TIP3    H180230   1.470   5.374  11.309 -1.0035  0.3753 -1.6364
19605TIP3    H280231   1.475   5.288  11.184  2.4320 -2.1611  0.1354
19606TIP3   OH280232   2.911   5.500   6.001 -0.4991  0.3402 -0.2240
19606TIP3    H180233   2.979   5.552   6.044 -0.4305 -0.3849  0.5524
19606TIP3    H280234   2.859   5.564   5.952  0.8339  0.8881 -0.9533
19607TIP3   OH280235   0.866   1.653  14.724  0.4395 -0.2334  0.1177
19607TIP3    H180236   0.793   1.607  14.683  0.2222  1.0871 -0.9896
19607TIP3    H280237   0.850   1.645  14.818  0.4061 -2.4124 -0.0313
19608TIP3   OH280238   1.890   6.641  15.092  0.0679 -0.0024 -0.3068
19608TIP3    H180239   1.928   6.727  15.105  1.0998 -0.8000  2.1068
19608TIP3    H280240   1.912   6.592  15.171 -2.8946 -1.6170 -0.3883
19609TIP3   OH280241   2.054   2.743   2.902  0.3127  0.0732 -0.0157
19609TIP3    H180242   2.045   2.683   2.828 -1.6853  1.4861 -0.9498
19609TIP3    H280243   2.111   2.813   2.870 -0.1955  0.4596 -0.0839
19610TIP3   OH280244   1.292   3.144  10.587  0.4810 -0.4573 -0.3571
19610TIP3    H180245   1.215   3.162  10.533 -1.9430  0.1151  3.0958
19610TIP3    H280246   1.273   3.062  10.631  0.6564  0.9213  2.4365
19611TIP3   OH280247   1.556   2.402  11.748  0.2716  0.4304  0.4545
19611TIP3    H180248   1.644   2.439  11.736 -0.4054  2.6425  2.0186
19611TIP3    H280249   1.560   2.317  11.704  2.7848  1.0752 -0.6747
19612TIP3   OH280250   2.054   3.894  14.683 -0.1589  0.2091 -0.3940
19612TIP3    H180251   2.110   3.957  14.727 -0.4175  0.8932 -1.0327
19612TIP3    H280252   1.967   3.907  14.720  0.0025 -0.5463  0.2758
19613TIP3   OH280253   6.048   2.828  16.591  0.2270  0.6213 -0.1454
19613TIP3    H180254   6.042   2.796  16.681  2.0777  1.0968  0.1490
19613TIP3    H280255   6.081   2.917  16.599 -1.0693  1.2173 -1.2180
19614TIP3   OH280256   0.985   3.016  13.841  0.5239 -0.4568 -0.6536
19614TIP3    H180257   0.908   2.997  13.788  0.2327  0.4516 -0.5598
19614TIP3    H280258   1.059   2.997  13.784  0.2329 -1.2379 -0.7785
19615TIP3   OH280259   6.674   0.249  16.447 -0.2108 -0.2622  0.3176
19615TIP3    H180260   6.601   0.267  16.388  0.8232 -1.0053 -1.2019
19615TIP3    H280261   6.687   0.155  16.441  0.4938 -0.2082  1.0398
19616TIP3   OH280262   5.331   2.154  17.003  0.3555  0.2895  0.0056
19616TIP3    H180263   5.297   2.213  17.070  1.9745 -0.4393  1.5088
19616TIP3    H280264   5.371   2.083  17.052  1.0107 -0.5769 -1.7517
19617TIP3   OH280265   3.682   5.342   1.695  0.4639  0.6255 -0.5380
19617TIP3    H180266   3.755   5.312   1.749  0.6654  0.6359 -0.8035
19617TIP3    H280267   3.695   5.437   1.687  0.9822  0.4848 -1.4166
19618TIP3   OH280268   5.152   0.291   0.077  0.0606  0.3136 -0.0201
19618TIP3    H180269   5.064   0.292   0.114  0.2216 -2.4923  0.5920
19618TIP3    H280270   5.163   0.202   0.044  2.3161  0.9022 -0.9447
19619TIP3   OH280271   0.085   5.103   0.314  0.1032  0.7326  0.3584
19619TIP3    H180272   0.107   5.123   0.223  1.3784  1.1060  0.7514
19619TIP3    H280273   0.169   5.089   0.358 -0.5755 -1.6529  0.9857
19620TIP3   OH280274   2.364   0.730   1.408 -0.0560 -0.0286 -0.0266
19620TIP3    H180275   2.362   0.682   1.325 -1.5632 -0.2253  0.1128
19620TIP3    H280276   2.357   0.662   1.475 -0.1034  0.2299  0.2316
19621TIP3   OH280277   0.868   5.531   4.156 -0.3111  0.1200  0.1532
19621TIP3    H180278   0.896   5.497   4.241  0.4536  0.5338  0.0706
19621TIP3    H280279   0.846   5.453   4.105  1.6556 -0.2834 -0.1161
19622TIP3   OH280280   2.808   5.260  10.736 -0.2882  0.2030 -0.0285
19622TIP3    H180281   2.879   5.275  10.799 -0.3280  2.5523 -0.5144
19622TIP3    H280282   2.848   5.207  10.667  0.3894 -0.3583  0.7838
19623TIP3   OH280283   0.945   3.203  14.578  0.0360  0.1504 -0.0105
19623TIP3    H180284   0.891   3.192  14.656  1.3401 -1.4123  0.7063
19623TIP3    H280285   0.891   3.167  14.507 -0.9532  1.1204  0.2379
19624TIP3   OH280286   3.679   3.211   3.100  0.0737 -0.3887 -0.0160
19624TIP3    H180287   3.637   3.297   3.094 -0.5266 -0.7277 -0.8333
19624TIP3    H280288   3.666   3.184   3.191 -2.5387 -0.9849 -0.5190
19625TIP3   OH280289   1.553   5.058   1.392  0.3593 -0.1830 -0.1540
19625TIP3    H180290   1.518   5.002   1.462  1.2045 -0.6954 -0.1422
19625TIP3    H280291   1.582   5.137   1.437  2.5247 -1.2198  0.3344
19626TIP3   OH280292   1.278   1.548   0.180  0.7348 -0.1648 -0.2948
19626TIP3    H180293   1.212   1.614   0.160  0.0188 -0.2553  1.7071
19626TIP3    H280294   1.351   1.597   0.217  1.4362 -0.1739 -1.6278
19627TIP3   OH280295   4.889   4.707   1.738  0.5856  0.7804  0.6444
19627TIP3    H180296   4.794   4.695   1.737  0.5249  1.2947 -0.9487
19627TIP3    H280297   4.923   4.628   1.780 -0.5113  0.4316  0.8922
19628TIP3   OH280298   6.604   2.235  16.491  0.3017  0.2275 -0.2928
19628TIP3    H180299   6.673   2.274  16.544 -0.3171 -0.0073  0.6972
19628TIP3    H280300   6.644   2.156  16.454  0.6130  0.1772  0.1484
19629TIP3   OH280301   0.446   0.247   2.856 -0.1634 -0.2171 -0.0231
19629TIP3    H180302   0.406   0.162   2.838  0.3531 -0.4124 -0.2503
19629TIP3    H280303   0.540   0.232   2.844 -0.0155  0.2191  0.5791
19630TIP3   OH280304   4.524   0.564   1.246  1.0767 -0.0394  0.9630
19630TIP3    H180305   4.476   0.629   1.297  0.5979 -0.2275  0.7529
19630TIP3    H280306   4.501   0.480   1.286 -2.4939 -0.5905 -2.0183
19631TIP3   OH280307   1.936   4.107  11.532  0.6601  0.5497 -0.5518
19631TIP3    H180308   2.001   4.063  11.477  0.7633  1.3026 -1.0501
19631TIP3    H280309   1.948   4.200  11.513  0.6570  0.8198  0.7137
19632TIP3   OH280310   4.885   5.953   2.467  0.0262 -0.1541  0.1800
19632TIP3    H180311   4.971   5.963   2.509 -0.1884 -0.6707  0.7440
19632TIP3    H280312   4.874   5.858   2.458 -0.3197 -0.0742 -0.2372
19633TIP3   OH280313   3.462   4.298   3.132  0.5823 -0.4527  0.2911
19633TIP3    H180314   3.470   4.252   3.048  0.4062 -1.5151  0.8627
19633TIP3    H280315   3.503   4.240   3.195 -0.4391 -0.2252  1.1660
19634TIP3   OH280316   0.794   5.172  10.246  0.0047 -0.3208 -0.0353
19634TIP3    H180317   0.752   5.221  10.175  0.2055 -1.5660 -1.0305
19634TIP3    H280318   0.872   5.133  10.205  0.5964 -0.3519  1.0866
19635TIP3   OH280319   5.794   4.592  13.111 -1.0443  0.5832 -0.4493
19635TIP3    H180320   5.770   4.579  13.203 -0.0415  2.5816  0.1251
19635TIP3    H280321   5.880   4.633  13.114 -0.7191  0.0906 -2.3166
19636TIP3   OH280322   0.449   1.567  11.888  0.3957 -0.3764  0.4298
19636TIP3    H180323   0.450   1.623  11.810  1.5151 -0.0106  0.6968
19636TIP3    H280324   0.357   1.565  11.916  0.0069 -0.4034 -0.8169
19637TIP3   OH280325   2.506   4.527   5.762 -0.2257  0.2677  0.0993
19637TIP3    H180326   2.474   4.587   5.829 -1.9857 -0.6886  0.1615
19637TIP3    H280327   2.494   4.573   5.679 -0.8184  0.3112  0.2115
19638TIP3   OH280328   0.973   6.438   0.314  0.1896  0.7161 -0.3022
19638TIP3    H180329   0.954   6.402   0.400 -0.6641 -0.2234 -0.8644
19638TIP3    H280330   1.005   6.363   0.263 -3.1307  0.3171 -1.9583
19639TIP3   OH280331   5.808   4.683  11.762 -0.5035  0.1806  0.6656
19639TIP3    H180332   5.827   4.673  11.668 -2.5772 -1.9199  0.4192
19639TIP3    H280333   5.889   4.718  11.799  1.0965 -1.0013 -1.5627
19640TIP3   OH280334   6.287   3.352  14.516  0.6098 -0.0028 -0.3653
19640TIP3    H180335   6.244   3.267  14.510  2.1903 -0.8222 -0.4818
19640TIP3    H280336   6.315   3.371  14.427  1.3047  0.0728 -0.1324
19641TIP3   OH280337   6.411   4.625   0.806 -0.2321  0.4107  0.2042
19641TIP3    H180338   6.318   4.633   0.829 -0.7355 -1.8889 -0.8608
19641TIP3    H280339   6.435   4.538   0.836  0.7861 -0.1586 -2.1895
19642TIP3   OH280340   6.545   4.662   3.209 -0.8265 -0.5318  0.2749
19642TIP3    H180341   6.502   4.655   3.123  0.2447  0.3698 -0.3548
19642TIP3    H280342   6.489   4.611   3.268 -0.9543 -2.1567 -1.1961
19643TIP3   OH280343   6.554   5.727   4.429  0.2275  0.7636  0.0746
19643TIP3    H180344   6.530   5.793   4.364  1.0739  1.5119  0.4993
19643TIP3    H280345   6.489   5.737   4.498 -0.9100 -0.3029 -0.8227
19644TIP3   OH280346   6.485   1.595  15.747  0.7103 -0.1348  0.2361
19644TIP3    H180347   6.548   1.606  15.676  1.4640  0.2794  0.9666
19644TIP3    H280348   6.505   1.666  15.808 -0.9970  0.5257  0.0815
19645TIP3   OH280349   1.547   1.820  13.173  0.1948  0.0290  0.1651
19645TIP3    H180350   1.470   1.826  13.116  1.2731  0.8545 -1.2506
19645TIP3    H280351   1.598   1.899  13.153  1.9675 -1.0684  0.2364
19646TIP3   OH280352   0.808   0.482   4.133 -0.1644  0.3262  0.1141
19646TIP3    H180353   0.827   0.498   4.040  1.5694  1.5364  0.6338
19646TIP3    H280354   0.840   0.561   4.177 -1.1287 -0.1645  1.7192
19647TIP3   OH280355   6.331   5.719   3.750  0.2816  0.7063  0.0028
19647TIP3    H180356   6.245   5.679   3.763  1.3911 -0.9306  2.8359
19647TIP3    H280357   6.373   5.662   3.685 -0.4736  1.0646 -0.8124
19648TIP3   OH280358   1.395   6.050  13.190 -0.3441  0.2456  0.3059
19648TIP3    H180359   1.388   5.975  13.131  1.7453 -0.9599  1.5356
19648TIP3    H280360   1.475   6.094  13.164 -0.7955  1.2094  0.5516
19649TIP3   OH280361   4.330   5.243  14.969  0.1852  0.1303  0.5498
19649TIP3    H180362   4.307   5.199  14.887 -3.1456  2.3809  0.2082
19649TIP3    H280363   4.276   5.200  15.035  2.1130 -0.9754  1.4723
19650TIP3   OH280364   1.400   4.823   0.264 -0.0075  0.0310 -0.4508
19650TIP3    H180365   1.375   4.913   0.243 -0.6033  0.1084  0.5537
19650TIP3    H280366   1.392   4.817   0.360 -1.3906 -1.5101 -0.6459
19651TIP3   OH280367   0.041   0.447  12.392 -0.5153  0.4959  0.4901
19651TIP3    H180368   0.002   0.527  12.359  0.0856  0.5901 -0.0006
19651TIP3    H280369  -0.017   0.377  12.361 -1.9987  0.8637  2.3964
19652TIP3   OH280370   4.523   2.199   4.076 -0.1458  0.6262  0.7648
19652TIP3    H180371   4.502   2.227   4.165 -0.4072  0.0380  0.8891
19652TIP3    H280372   4.600   2.250   4.053  1.6786 -1.3169  2.4045
19653TIP3   OH280373   1.057   5.345   3.007 -0.5468 -0.3826 -0.2477
19653TIP3    H180374   1.148   5.330   3.034  0.0264  0.1446 -1.8653
19653TIP3    H280375   1.031   5.424   3.055 -0.0211 -0.2926 -0.1049
19654TIP3   OH280376   4.394   4.416   4.856  0.3188 -0.0881  0.1084
19654TIP3    H180377   4.467   4.408   4.917 -0.1268  0.4492  0.7138
19654TIP3    H280378   4.434   4.404   4.769  1.2207  0.7507  0.3952
19655TIP3   OH280379   0.718   0.057   1.169  0.5789 -0.0303 -0.4707
19655TIP3    H180380   0.787   0.065   1.235  0.1072  1.2435 -0.1080
19655TIP3    H280381   0.732   0.133   1.112 -0.8989  0.5708 -0.0373
19656TIP3   OH280382   6.531   4.806  10.960 -0.0470 -0.2660  0.6310
19656TIP3    H180383   6.595   4.782  11.027 -0.4150  1.1172  1.5083
19656TIP3    H280384   6.563   4.890  10.926  1.4753 -2.0861 -2.6685
19657TIP3   OH280385   1.519   4.884   0.979 -0.0266 -0.0103 -0.1129
19657TIP3    H180386   1.583   4.853   1.042  0.7288  3.4609  0.9239
19657TIP3    H280387   1.456   4.812   0.971  1.7254 -1.8423  1.9532
19658TIP3   OH280388   4.004   2.063   3.823  0.2086 -0.0488 -0.7631
19658TIP3    H180389   4.096   2.068   3.800 -0.0430 -1.2248 -2.1322
19658TIP3    H280390   3.982   1.970   3.814 -1.2507  0.3026 -1.0463
19659TIP3   OH280391   0.478   0.177   0.153 -0.6907 -0.2237 -0.0560
19659TIP3    H180392   0.561   0.163   0.107  0.3364  1.4279  1.2258
19659TIP3    H280393   0.483   0.118   0.229 -0.6803 -0.1080  0.0330
19660TIP3   OH280394   1.541   1.397  15.247 -0.2936  0.4104 -0.0587
19660TIP3    H180395   1.534   1.486  15.212  0.0047  0.2849 -0.4525
19660TIP3    H280396   1.569   1.344  15.172  0.8769  0.2235  0.5005
19661TIP3   OH280397   5.725   4.949   4.036  0.5986 -0.1541  0.4453
19661TIP3    H180398   5.719   5.034   3.993 -0.9288 -0.3051  0.3370
19661TIP3    H280399   5.774   4.966   4.116 -0.4725  1.0093  0.8674
19662TIP3   OH280400   4.972   4.674  14.702  0.2572  0.3522  0.1617
19662TIP3    H180401   4.931   4.756  14.672 -2.0152 -0.6329  0.4593
19662TIP3    H280402   5.008   4.636  14.622  0.2963  1.0862 -0.1814
19663TIP3   OH280403   4.772   3.395   4.649 -0.1499 -0.2822  0.3287
19663TIP3    H180404   4.729   3.372   4.732 -0.1424 -0.3552  0.3130
19663TIP3    H280405   4.857   3.353   4.654  0.4691  1.0218  0.9598
19664TIP3   OH280406   6.563   5.983   6.048  0.3379 -0.4412 -0.6188
19664TIP3    H180407   6.532   6.038   5.977  1.8822 -1.0653 -1.8163
19664TIP3    H280408   6.504   5.908   6.048 -0.2349  0.0059 -0.6240
19665TIP3   OH280409   5.670   0.885   4.705 -0.0723  0.0836 -0.0476
19665TIP3    H180410   5.715   0.803   4.725 -1.7766 -0.7367  0.4280
19665TIP3    H280411   5.690   0.901   4.613  1.2365 -0.2373  0.1665
19666TIP3   OH280412   1.703   0.986   4.035  0.1560 -0.0005 -0.0751
19666TIP3    H180413   1.643   0.912   4.029  0.8779 -0.7564  1.7309
19666TIP3    H280414   1.778   0.961   3.981 -0.4903  0.3049 -1.1218
19667TIP3   OH280415   6.300   5.213  13.287  0.1529  0.4433  0.2601
19667TIP3    H180416   6.380   5.231  13.238  0.6552  0.9757  1.2634
19667TIP3    H280417   6.295   5.283  13.352 -0.5202 -0.2368  0.9499
19668TIP3   OH280418   4.387   6.124   1.870 -0.0934  0.3321  0.7743
19668TIP3    H180419   4.312   6.081   1.829  0.8356 -0.1279 -0.4568
19668TIP3    H280420   4.429   6.055   1.921  1.0671 -0.0834 -0.7392
19669TIP3   OH280421   2.124   2.095   1.549 -0.5364 -0.9664 -0.0621
19669TIP3    H180422   2.175   2.028   1.503 -1.1449 -0.6418 -1.2083
19669TIP3    H280423   2.173   2.176   1.535 -0.8965 -0.8105 -0.4002
19670TIP3   OH280424   5.613   0.672  15.788  0.2103 -0.5597 -0.0697
19670TIP3    H180425   5.576   0.660  15.876  1.3378 -1.1034  0.3539
19670TIP3    H280426   5.636   0.765  15.783 -0.3458 -0.4208  0.0184
19671TIP3   OH280427   3.072   4.011  15.035 -0.1270 -0.2651  0.5525
19671TIP3    H180428   2.977   4.021  15.026 -0.2155  0.5519  2.1654
19671TIP3    H280429   3.105   4.101  15.041  0.2889 -0.5832  4.0185
19672TIP3   OH280430   5.013   3.046   0.427 -0.0252 -0.1700  0.6840
19672TIP3    H180431   5.027   3.131   0.469 -0.5097  0.4304 -0.3384
19672TIP3    H280432   4.946   3.004   0.481 -0.6207  0.5766  0.5491
19673TIP3   OH280433   2.112   2.465   3.887  0.5319  0.7515 -0.2347
19673TIP3    H180434   2.023   2.498   3.870  0.8885  0.6407 -2.4977
19673TIP3    H280435   2.152   2.533   3.940 -0.6810  1.1395  0.2157
19674TIP3   OH280436   2.943   0.756   1.048  0.3584 -0.0333  0.1532
19674TIP3    H180437   2.992   0.678   1.021 -0.4489 -0.8137  0.9095
19674TIP3    H280438   3.010   0.822   1.065  1.2018 -1.2173  1.5720
19675TIP3   OH280439   2.133   1.045  10.607 -0.1927  0.6132  0.0189
19675TIP3    H180440   2.079   1.114  10.645 -2.2132 -2.0409  2.1606
19675TIP3    H280441   2.203   1.031  10.671  0.3583  0.8415 -0.5305
19676TIP3   OH280442   5.964   5.824  14.455  0.6657 -0.5697  0.1811
19676TIP3    H180443   5.940   5.793  14.367  0.0177 -0.1508  0.2061
19676TIP3    H280444   6.059   5.814  14.459  0.8597  0.6714 -1.0695
19677TIP3   OH280445   5.117   5.841  11.780  0.1143  0.3702 -0.5273
19677TIP3    H180446   5.091   5.821  11.870  1.8884 -1.9295 -0.4940
19677TIP3    H280447   5.086   5.931  11.766 -0.6786  0.5631  2.1836
19678TIP3   OH280448   2.847   1.869   1.088 -0.2078  0.5163 -0.3921
19678TIP3    H180449   2.823   1.897   1.176 -1.3134  0.1212 -0.5562
19678TIP3    H280450   2.928   1.917   1.068 -1.4308  2.7514 -0.2339
19679TIP3   OH280451   0.572   3.483  16.656  0.5764 -0.2588 -0.2466
19679TIP3    H180452   0.488   3.480  16.703  0.8202  0.5830  0.2673
19679TIP3    H280453   0.619   3.556  16.697  1.2729 -0.2707 -1.0154
19680TIP3   OH280454   5.190   4.950  11.790 -0.3400  0.1824 -0.0057
19680TIP3    H180455   5.175   4.907  11.705  2.6365 -0.8035 -0.1011
19680TIP3    H280456   5.129   4.907  11.850  0.0934 -1.7018 -0.8740
19681TIP3   OH280457   5.571   2.594   0.106  0.6444 -0.4927 -0.6432
19681TIP3    H180458   5.497   2.549   0.148  0.9303  0.7941  1.2994
19681TIP3    H280459   5.531   2.646   0.036 -0.0159 -1.5559 -1.0669
19682TIP3   OH280460   5.728   0.754  13.892  0.3265 -0.3550 -0.6745
19682TIP3    H180461   5.802   0.738  13.951 -0.1652  1.4486  0.4524
19682TIP3    H280462   5.706   0.667  13.858  0.0135 -1.5864  2.4796
19683TIP3   OH280463   3.937   6.422  14.801  0.5377 -0.3564  0.0657
19683TIP3    H180464   3.928   6.327  14.813  1.1767 -0.5998 -1.3503
19683TIP3    H280465   3.944   6.456  14.890  0.8649 -1.6930  0.5672
19684TIP3   OH280466   0.898   1.000   0.763  0.2998 -0.0374 -0.9737
19684TIP3    H180467   0.852   1.078   0.794  1.3949  0.5657 -0.8791
19684TIP3    H280468   0.970   1.033   0.710 -0.5985 -1.0327 -2.8802
19685TIP3   OH280469   0.322   1.246  16.071  0.0938  0.1907  0.2476
19685TIP3    H180470   0.363   1.331  16.088  0.0569  0.4335 -0.8655
19685TIP3    H280471   0.317   1.205  16.157  1.5218  0.6810  0.5771
19686TIP3   OH280472   4.155   1.580   6.576  0.0740 -1.0797  0.1500
19686TIP3    H180473   4.201   1.599   6.495 -2.3356 -0.5038 -1.1408
19686TIP3    H280474   4.107   1.498   6.558 -2.9446  0.6740 -0.1555
19687TIP3   OH280475   6.013   2.768  10.685  0.3908 -0.2917 -0.1768
19687TIP3    H180476   5.983   2.810  10.766 -0.4065  0.8165 -1.0200
19687TIP3    H280477   6.106   2.751  10.699  0.3302  0.2129  0.8491
19688TIP3   OH280478   3.165   5.997  14.418 -0.6152 -0.3503  0.3286
19688TIP3    H180479   3.165   5.908  14.454  0.4806  0.3242  2.1057
19688TIP3    H280480   3.082   6.004  14.372 -0.3429 -2.5935 -0.6012
19689TIP3   OH280481   5.104   0.115  15.905  0.3964  0.2677  0.7596
19689TIP3    H180482   5.078   0.190  15.852 -0.2210 -1.4502 -1.4195
19689TIP3    H280483   5.169   0.150  15.966 -0.7891  2.8162  0.6198
19690TIP3   OH280484   3.446   2.838  10.995 -0.1266 -1.0692 -0.1071
19690TIP3    H180485   3.529   2.796  11.017 -0.8215 -1.9832  0.7748
19690TIP3    H280486   3.390   2.823  11.071 -0.0797  2.2953  0.6566
19691TIP3   OH280487   4.230   3.693  14.066  0.2008 -0.1328 -0.3678
19691TIP3    H180488   4.210   3.610  14.109  2.8844  0.6320  2.5956
19691TIP3    H280489   4.222   3.675  13.972 -3.5995 -2.4909  0.3155
19692TIP3   OH280490   0.778   6.435   1.698 -0.0294  0.5570  0.4690
19692TIP3    H180491   0.713   6.505   1.708 -1.3383 -0.7189  0.9636
19692TIP3    H280492   0.861   6.482   1.690 -1.0366  2.2266 -0.5767
19693TIP3   OH280493   0.598   2.261   5.837 -0.1790  0.0645 -0.1949
19693TIP3    H180494   0.561   2.348   5.856  1.2109  0.7530 -0.5499
19693TIP3    H280495   0.563   2.204   5.905  1.2929  1.5608  1.8720
19694TIP3   OH280496   6.441   0.709  13.218  0.4141 -0.1386  0.6722
19694TIP3    H180497   6.520   0.664  13.248  1.1153  1.2153  0.8861
19694TIP3    H280498   6.398   0.646  13.161  0.7352 -1.5385  1.9484
19695TIP3   OH280499   4.636   0.016  15.531 -0.1803  0.1206  0.0035
19695TIP3    H180500   4.693   0.031  15.455  0.3011 -0.7198  0.1963
19695TIP3    H280501   4.696   0.001  15.604 -0.6469  0.6986  0.5033
19696TIP3   OH280502   6.207   4.961  10.119 -0.0828 -0.4615 -0.3813
19696TIP3    H180503   6.195   4.938  10.027 -0.8547 -1.9821  0.0774
19696TIP3    H280504   6.298   4.938  10.138 -0.2048 -1.0581 -0.5125
19697TIP3   OH280505   4.578   6.582   0.357 -0.4868  0.2148 -0.1946
19697TIP3    H180506   4.516   6.510   0.347  0.4295 -0.5620 -0.3075
19697TIP3    H280507   4.604   6.604   0.268  1.2318 -1.0775 -0.0352
19698TIP3   OH280508   4.349   3.648   2.605 -0.2627 -0.5743  0.0332
19698TIP3    H180509   4.433   3.615   2.638 -0.6526 -2.9734 -1.2547
19698TIP3    H280510   4.340   3.608   2.518 -2.2184  0.5617 -0.3093
19699TIP3   OH280511   0.513   4.521  12.382  0.2640  0.0091  0.1775
19699TIP3    H180512   0.551   4.556  12.462  1.3161 -0.0146 -0.3123
19699TIP3    H280513   0.460   4.594  12.347  0.3405  0.2369  0.5385
19700TIP3   OH280514   2.943   1.030   3.925  0.2863 -0.0438  0.7386
19700TIP3    H180515   2.983   1.038   3.838  1.1167 -0.5993  1.0624
19700TIP3    H280516   3.013   0.997   3.981 -0.6590 -1.1520  1.2894
19701TIP3   OH280517   1.572   4.156  13.054 -0.4642 -0.2540  0.0160
19701TIP3    H180518   1.615   4.198  13.128 -0.1635 -3.0515  1.4878
19701TIP3    H280519   1.491   4.205  13.043  0.1667  1.1182  1.2559
19702TIP3   OH280520   2.203   6.486   1.782  0.2999  0.1354  0.2791
19702TIP3    H180521   2.170   6.569   1.816  0.0162 -0.9097  2.6461
19702TIP3    H280522   2.125   6.439   1.753  0.4971  0.8243 -1.4436
19703TIP3   OH280523   4.379   0.715   2.161  0.3780 -0.1530 -0.4184
19703TIP3    H180524   4.433   0.681   2.089 -0.0163 -1.7036 -0.0081
19703TIP3    H280525   4.289   0.707   2.130  0.2824  0.6206 -0.3469
19704TIP3   OH280526   4.282   2.010   3.760 -0.4868  0.5959  0.3665
19704TIP3    H180527   4.347   2.080   3.755 -0.2540  0.4243  0.8945
19704TIP3    H280528   4.332   1.930   3.741 -0.6700  0.5289  0.1628
19705TIP3   OH280529   2.237   3.239   6.312  0.0857  0.2648 -0.0608
19705TIP3    H180530   2.200   3.262   6.397  1.2566 -0.8035  0.7580
19705TIP3    H280531   2.276   3.152   6.326 -0.6450 -0.3880 -1.9722
19706TIP3   OH280532   0.670   6.225   4.514 -0.2140  0.2388  0.3723
19706TIP3    H180533   0.592   6.201   4.465  0.5857 -0.3168 -0.6353
19706TIP3    H280534   0.720   6.144   4.523 -0.5147  0.2491  2.4134
19707TIP3   OH280535   2.286   6.288  16.572  0.0800 -0.0609  0.5026
19707TIP3    H180536   2.328   6.306  16.657 -0.6508  1.5332  0.5526
19707TIP3    H280537   2.297   6.194  16.559  1.0481 -0.1634  1.9151
19708TIP3   OH280538   1.448   0.740  12.996  0.1147  0.5764  1.3163
19708TIP3    H180539   1.475   0.796  12.923 -3.0036  1.6432  0.9017
19708TIP3    H280540   1.467   0.793  13.074 -1.3993  1.6207  0.9997
19709TIP3   OH280541   4.705   0.472   3.495 -0.5080  0.2094  0.3079
19709TIP3    H180542   4.736   0.414   3.565  0.2841 -0.7969 -0.8741
19709TIP3    H280543   4.781   0.527   3.473 -0.3321 -0.4554 -0.7560
19710TIP3   OH280544   5.422   1.938  16.556 -0.1707  0.1067 -0.0357
19710TIP3    H180545   5.494   2.001  16.544  0.3860 -0.7681 -1.3884
19710TIP3    H280546   5.350   1.991  16.590  0.6951  1.2348  0.0984
19711TIP3   OH280547   0.642   0.028   3.762 -0.4942  0.2661 -0.2012
19711TIP3    H180548   0.701   0.088   3.716 -0.9358  1.6536  1.0322
19711TIP3    H280549   0.554   0.057   3.737 -0.7434  1.1658  1.6673
19712TIP3   OH280550   4.466   4.123   5.027  0.2422 -0.4377  0.0289
19712TIP3    H180551   4.426   4.178   4.960 -0.1458 -0.8020 -0.0448
19712TIP3    H280552   4.394   4.068   5.058  0.3303 -0.0144  1.0044
19713TIP3   OH280553   3.497   4.699   4.184 -0.7154 -0.0766 -0.1576
19713TIP3    H180554   3.571   4.705   4.245 -0.6274 -1.8736 -0.0504
19713TIP3    H280555   3.532   4.650   4.110 -0.5320  2.9189 -2.1536
19714TIP3   OH280556   4.872   0.755   1.649  0.2442 -0.3537  0.2499
19714TIP3    H180557   4.896   0.771   1.558  0.0717  1.5535  0.5175
19714TIP3    H280558   4.779   0.733   1.646 -0.3533  2.1149  0.1939
19715TIP3   OH280559   5.581   3.866  13.664  0.2536 -0.6852 -0.3759
19715TIP3    H180560   5.511   3.806  13.691  0.8725 -1.8150 -1.2442
19715TIP3    H280561   5.638   3.813  13.608  2.3016 -0.0226  1.0085
19716TIP3   OH280562   6.576   2.270   3.694  0.1316  0.1436 -0.5379
19716TIP3    H180563   6.575   2.291   3.787 -1.6913 -0.2044 -0.4582
19716TIP3    H280564   6.654   2.314   3.660  1.5565 -0.8479  1.3889
19717TIP3   OH280565   6.284   6.279  14.418  0.1600 -0.2475  0.2148
19717TIP3    H180566   6.231   6.310  14.492  1.0202 -1.7011  1.4667
19717TIP3    H280567   6.220   6.245  14.355 -0.6436  1.8076 -0.1282
19718TIP3   OH280568   4.111   2.962  14.670 -0.9370  0.2173  0.3725
19718TIP3    H180569   4.118   3.052  14.637  0.9946 -0.0891 -0.1041
19718TIP3    H280570   4.120   2.971  14.765  0.1836  0.4622  0.2547
19719TIP3   OH280571   4.988   0.151   4.592 -0.0273 -0.2699  0.2007
19719TIP3    H180572   5.018   0.133   4.503 -0.4057  2.3467 -0.5063
19719TIP3    H280573   5.052   0.108   4.649  1.7410  0.2720 -1.3375
19720TIP3   OH280574   1.141   1.098  12.554 -0.6980 -0.1563 -0.0105
19720TIP3    H180575   1.122   1.189  12.531 -0.4387  0.1232  0.8818
19720TIP3    H280576   1.075   1.075  12.619 -0.3022 -0.3682  0.3209
19721TIP3   OH280577   2.094   2.118   0.655 -0.4671 -0.6321 -0.0156
19721TIP3    H180578   2.027   2.160   0.602 -0.9885  0.1595  1.2261
19721TIP3    H280579   2.166   2.181   0.656 -0.9639 -0.0671  1.2524
19722TIP3   OH280580   3.423   0.397  14.148 -0.1068 -0.1279 -0.0814
19722TIP3    H180581   3.420   0.318  14.094 -0.2224  0.1569 -0.4915
19722TIP3    H280582   3.339   0.439  14.133  0.3565  0.6050 -0.6666
19723TIP3   OH280583   6.739   0.582   6.432  0.1185  0.3823 -0.6182
19723TIP3    H180584   6.711   0.545   6.515  0.9146  0.6078 -0.2465
19723TIP3    H280585   6.717   0.676   6.440  0.4399  0.4514 -0.5593
19724TIP3   OH280586   0.085   2.897  17.131  0.4184 -0.1940  0.5710
19724TIP3    H180587   0.055   2.806  17.133  1.2366 -0.5174 -0.9453
19724TIP3    H280588   0.005   2.949  17.133 -0.1246 -0.9859 -0.1120
19725TIP3   OH280589   4.759   1.947  14.674 -0.2555 -0.5888 -0.1089
19725TIP3    H180590   4.731   1.872  14.622 -2.7314 -0.0535  0.3771
19725TIP3    H280591   4.705   1.943  14.753 -0.1492  1.4350  0.1044
19726TIP3   OH280592   0.388   0.707  13.113 -0.1349 -0.3785 -0.0346
19726TIP3    H180593   0.319   0.665  13.164 -0.1664  0.1616  0.3792
19726TIP3    H280594   0.368   0.685  13.022 -1.1115  0.1428  0.0514
19727TIP3   OH280595   5.932   0.665   5.162  0.1791 -0.1435 -0.0471
19727TIP3    H180596   5.944   0.642   5.254 -1.1593  0.1089  0.2073
19727TIP3    H280597   5.852   0.620   5.137 -0.6868  1.5869 -0.4563
19728TIP3   OH280598   5.457   2.694   3.988 -0.1644 -0.1388  0.1152
19728TIP3    H180599   5.473   2.616   3.934  3.3594  1.9509 -2.0429
19728TIP3    H280600   5.390   2.742   3.939  0.5809  0.1096 -0.6821
19729TIP3   OH280601   2.665   5.046   6.106 -0.1497 -0.4212 -0.0875
19729TIP3    H180602   2.618   4.971   6.071 -1.6376  0.5911 -0.3028
19729TIP3    H280603   2.650   5.043   6.200 -0.9042  0.0622 -0.1869
19730TIP3   OH280604   2.914   0.235  12.601 -0.0421 -0.5981 -0.4238
19730TIP3    H180605   3.001   0.197  12.593 -0.0197 -0.7122  0.3398
19730TIP3    H280606   2.875   0.190  12.677 -0.1125  0.7244  0.3340
19731TIP3   OH280607   3.521   1.468  15.522  0.1850  0.1567  0.5739
19731TIP3    H180608   3.606   1.505  15.500  0.3727 -0.8741 -0.4874
19731TIP3    H280609   3.457   1.532  15.491  0.5365  0.1064 -0.2612
19732TIP3   OH280610   0.367   5.891  12.477  0.0297  0.0316  0.0944
19732TIP3    H180611   0.304   5.944  12.526 -0.7856 -0.6482 -0.2118
19732TIP3    H280612   0.343   5.904  12.385  0.0099 -0.6340  0.0048
19733TIP3   OH280613   6.419   6.194  11.876  0.1176  0.2874 -0.0631
19733TIP3    H180614   6.506   6.164  11.849  0.0457  0.3453 -0.3651
19733TIP3    H280615   6.377   6.117  11.915  1.3883  0.9811  2.8193
19734TIP3   OH280616   0.022   0.539   6.146 -0.0645 -0.6461  0.1487
19734TIP3    H180617  -0.061   0.492   6.139 -0.3233 -0.0148 -1.0959
19734TIP3    H280618   0.026   0.569   6.237  0.0573 -2.9747  0.9597
19735TIP3   OH280619   4.051   1.251   0.416 -0.4221  0.2697  0.0245
19735TIP3    H180620   4.032   1.305   0.493  0.1763 -0.0524  0.4009
19735TIP3    H280621   4.042   1.161   0.447  2.6100  0.0617  0.4832
19736TIP3   OH280622   5.345   0.391  14.363  0.2280 -0.8058 -0.6692
19736TIP3    H180623   5.277   0.356  14.306 -2.2080  1.2312  0.8361
19736TIP3    H280624   5.331   0.486  14.361  2.4072 -0.4185  0.4748
19737TIP3   OH280625   6.540   5.372  11.047  0.3573  0.0566 -0.1270
19737TIP3    H180626   6.580   5.459  11.040  0.6323  0.1002  1.7738
19737TIP3    H280627   6.453   5.388  11.082  0.0717 -0.3639 -0.6390
19738TIP3   OH280628   1.926   4.584  14.824  0.2746  0.1354  0.6243
19738TIP3    H180629   1.925   4.679  14.833  2.7507  0.1157  1.4787
19738TIP3    H280630   1.917   4.568  14.730 -0.3758  1.1924  0.5046
19739TIP3   OH280631   1.603   0.764  14.371  0.1117  0.5235  0.0676
19739TIP3    H180632   1.650   0.723  14.299 -1.0654 -0.0105 -0.4102
19739TIP3    H280633   1.584   0.692  14.431 -1.1497  0.5060 -0.3293
19740TIP3   OH280634   2.254   3.697  14.542 -0.3560  0.3892  0.0986
19740TIP3    H180635   2.214   3.669  14.624  1.3008  1.1219  1.1864
19740TIP3    H280636   2.346   3.671  14.550 -0.1820  0.3998 -1.5646
19741TIP3   OH280637   6.160   4.304   2.857 -0.4276  0.6968  0.1865
19741TIP3    H180638   6.080   4.334   2.814 -1.2348 -0.0030  1.1851
19741TIP3    H280639   6.170   4.214   2.826  0.6323  1.1635 -0.8634
19742TIP3   OH280640   1.363   4.001  16.096  0.5325 -0.1072  0.0700
19742TIP3    H180641   1.347   4.046  16.179 -0.3814  0.0171 -0.1650
19742TIP3    H280642   1.282   4.014  16.046  0.6031 -1.2250 -0.3589
19743TIP3   OH280643   6.727   5.455  15.909  0.3325  0.0937 -0.0129
19743TIP3    H180644   6.692   5.367  15.889 -0.2457  0.2646  0.2234
19743TIP3    H280645   6.801   5.439  15.968 -0.2653 -0.1929  0.6696
19744TIP3   OH280646   5.741   6.027   5.499  0.2435  0.4479  0.4802
19744TIP3    H180647   5.691   6.075   5.434  0.3190  1.3500  1.0719
19744TIP3    H280648   5.735   5.936   5.473 -0.9448  0.6529  0.0423
19745TIP3   OH280649   4.696   4.512   3.486  0.0630  0.1491 -0.0148
19745TIP3    H180650   4.769   4.564   3.520  1.2906  0.0430 -2.4271
19745TIP3    H280651   4.684   4.443   3.551  2.0878  0.1959  0.4443
19746TIP3   OH280652   3.344   4.793  16.357 -0.1719  0.1035 -0.1384
19746TIP3    H180653   3.333   4.790  16.452 -2.9173  0.6440 -0.4003
19746TIP3    H280654   3.337   4.886  16.335  2.3581  0.1859 -0.6874
19747TIP3   OH280655   3.289   0.478   6.495 -0.0019  0.4715 -0.5931
19747TIP3    H180656   3.384   0.466   6.498  0.1509  1.7799  0.7435
19747TIP3    H280657   3.269   0.489   6.402  1.3595  1.5786 -0.7816
19748TIP3   OH280658   4.292   3.502   5.605  0.3682 -0.0770  0.4941
19748TIP3    H180659   4.201   3.475   5.620 -0.3326  1.4799 -0.7754
19748TIP3    H280660   4.337   3.422   5.581 -1.3627 -0.3908 -1.9037
19749TIP3   OH280661   4.170   6.308  15.807  1.0969  0.1813  0.0288
19749TIP3    H180662   4.198   6.368  15.738  1.2579  0.6795  0.5188
19749TIP3    H280663   4.108   6.250  15.764 -0.4668  1.8435 -0.0409
19750TIP3   OH280664   0.070   4.467  11.131  0.3196  1.1042 -0.9159
19750TIP3    H180665   0.106   4.498  11.049  1.6368  3.3821  0.4645
19750TIP3    H280666   0.136   4.490  11.197 -0.8087 -0.4194  0.8295
19751TIP3   OH280667   0.064   6.500   0.776 -0.5295 -0.4192  0.4218
19751TIP3    H180668   0.056   6.591   0.747  0.4942 -0.5916 -0.4136
19751TIP3    H280669   0.004   6.494   0.850  1.4043  1.6794  2.2368
19752TIP3   OH280670   5.897   5.488  16.613 -0.4710  0.2823  0.5258
19752TIP3    H180671   5.976   5.465  16.565  0.2530  1.7436  0.9925
19752TIP3    H280672   5.918   5.471  16.705 -1.3342 -1.0772  0.4791
19753TIP3   OH280673   4.409   1.330   4.043 -0.1791 -0.2311 -0.2418
19753TIP3    H180674   4.482   1.347   3.984  1.4572  2.6332  2.4140
19753TIP3    H280675   4.331   1.339   3.989  1.3097  0.7456 -2.2831
19754TIP3   OH280676   5.161   2.760   1.057 -0.4012 -0.0425 -0.9409
19754TIP3    H180677   5.170   2.767   1.153 -1.7725  0.9075 -0.8650
19754TIP3    H280678   5.251   2.764   1.024 -0.0092  1.3115  0.2143
19755TIP3   OH280679   3.228   6.749  17.191  0.0328 -0.3277 -0.1380
19755TIP3    H180680   3.132   6.752  17.187  0.0904  1.0396 -0.5757
19755TIP3    H280681   3.256   6.784  17.106  0.9151 -1.3605 -0.2776
19756TIP3   OH280682   6.101   0.545  13.042  0.3413  0.1328  0.5230
19756TIP3    H180683   6.071   0.636  13.046  1.1670  0.3763  1.3463
19756TIP3    H280684   6.195   0.549  13.060  0.3206 -0.9153  0.9614
19757TIP3   OH280685   6.518   6.022   4.620  0.2247  0.1551 -0.5891
19757TIP3    H180686   6.594   6.012   4.563  0.6206 -1.5279  0.2080
19757TIP3    H280687   6.471   5.939   4.612 -0.8065  0.6750 -0.0432
19758TIP3   OH280688   1.309   6.285   2.386 -0.1972 -0.0724  0.3502
19758TIP3    H180689   1.288   6.196   2.413  1.1754 -0.6393 -0.4025
19758TIP3    H280690   1.376   6.315   2.447 -0.8561  0.5531  0.7758
19759TIP3   OH280691   4.852   3.165  17.078  0.8071  0.4999  0.3401
19759TIP3    H180692   4.902   3.198  17.153 -0.5347  0.8027  1.1085
19759TIP3    H280693   4.919   3.144  17.013  2.0645 -0.4446  1.8686
19760TIP3   OH280694   3.274   6.232   2.867  0.3266  0.3194 -0.3745
19760TIP3    H180695   3.195   6.271   2.905 -0.6538 -0.5971 -1.4444
19760TIP3    H280696   3.259   6.138   2.872  1.9533  0.0973  0.6426
19761TIP3   OH280697   2.424   5.167  16.394 -0.3241 -0.1746  0.4960
19761TIP3    H180698   2.424   5.249  16.344  0.8491 -0.4586  0.0217
19761TIP3    H280699   2.336   5.131  16.380 -0.1468 -0.0391 -1.0220
19762TIP3   OH280700   2.478   1.093   0.792 -0.1274  0.3725  0.4608
19762TIP3    H180701   2.570   1.068   0.786  0.1786  1.8049 -1.4670
19762TIP3    H280702   2.431   1.026   0.743 -0.2963 -1.1712  2.6909
19763TIP3   OH280703   4.241   5.158  16.608  0.6718 -0.2058 -0.4597
19763TIP3    H180704   4.317   5.102  16.624  1.0331  0.6579  0.8479
19763TIP3    H280705   4.224   5.201  16.691 -0.5521  0.4906 -1.0512
19764TIP3   OH280706   2.227   2.274   4.725  0.2874  0.8352 -0.4792
19764TIP3    H180707   2.245   2.340   4.658 -0.0597  1.1075 -0.3046
19764TIP3    H280708   2.279   2.302   4.800 -0.3887  1.2855 -0.1771
19765TIP3   OH280709   1.331   5.418   5.631 -0.2205  0.5460  0.4532
19765TIP3    H180710   1.357   5.509   5.618  1.8787 -0.1112 -0.0747
19765TIP3    H280711   1.332   5.406   5.726 -3.2225  1.7997  0.7228
19766TIP3   OH280712   6.059   5.966  11.386 -0.8647 -0.0302  0.0836
19766TIP3    H180713   6.105   5.920  11.316  0.0786 -0.7163  1.1178
19766TIP3    H280714   5.993   6.019  11.342  1.3821  1.5225 -1.5002
19767TIP3   OH280715   0.960   6.587   4.543  0.0269  0.1769  0.1501
19767TIP3    H180716   0.866   6.576   4.554 -0.3130  0.5044 -2.2065
19767TIP3    H280717   0.998   6.503   4.569 -0.8814  0.0761  1.1818
19768TIP3   OH280718   2.647   0.290   4.714 -0.2839 -0.1380  0.2746
19768TIP3    H180719   2.687   0.234   4.647 -1.2782  0.2432 -0.6669
19768TIP3    H280720   2.667   0.248   4.797  1.0023 -0.6124 -0.2682
19769TIP3   OH280721   1.094   4.573  10.754 -0.2763  0.6754  0.3589
19769TIP3    H180722   1.161   4.511  10.725 -0.2905 -0.4077  2.6174
19769TIP3    H280723   1.013   4.539  10.718  0.1709  1.2710 -1.2722
19770TIP3   OH280724   0.644   0.781   1.496 -0.3160 -0.1150  0.4321
19770TIP3    H180725   0.627   0.812   1.585  0.1215  0.7309  0.2179
19770TIP3    H280726   0.734   0.748   1.499 -0.2994 -0.0824  0.2974
19771TIP3   OH280727   3.822   0.127  17.136  0.3013  0.3319 -0.0704
19771TIP3    H180728   3.882   0.115  17.063  1.5278 -0.0590  0.9868
19771TIP3    H280729   3.857   0.072  17.205 -0.7755  0.7984  0.8645
19772TIP3   OH280730   1.555   2.404   0.604 -0.3511 -0.4988  0.6307
19772TIP3    H180731   1.508   2.384   0.685 -0.3193 -1.9368  0.3082
19772TIP3    H280732   1.615   2.331   0.592  1.1925  0.7799  0.4405
19773TIP3   OH280733   5.958   1.817  13.544 -0.2775  0.2056 -0.0501
19773TIP3    H180734   5.979   1.910  13.531  0.5354 -0.1010 -0.9502
19773TIP3    H280735   5.964   1.778  13.457  0.1434 -0.8505  0.4407
19774TIP3   OH280736   5.495   1.781  14.896 -0.2866  0.3245  0.1691
19774TIP3    H180737   5.435   1.733  14.839 -0.0834 -0.4185  0.5705
19774TIP3    H280738   5.439   1.825  14.959 -0.3754 -1.6704  1.5606
19775TIP3   OH280739   3.751   0.673   3.362 -0.2390  0.5767 -0.6672
19775TIP3    H180740   3.802   0.750   3.387 -0.3991  0.9480 -1.4566
19775TIP3    H280741   3.663   0.690   3.396 -0.1234  0.4536 -0.2995
19776TIP3   OH280742   4.883   3.294   1.654 -0.3866  0.1927  0.3862
19776TIP3    H180743   4.840   3.241   1.587  1.0406  0.5351 -0.8234
19776TIP3    H280744   4.924   3.231   1.713  0.0080 -0.0889 -0.1845
19777TIP3   OH280745   1.272   2.108   1.030  0.2929 -0.2361 -0.3116
19777TIP3    H180746   1.184   2.131   1.061  0.5344  0.6842 -0.3105
19777TIP3    H280747   1.262   2.019   0.995  0.0442 -1.3870  2.5345
19778TIP3   OH280748   2.484   4.560  15.714  0.4916 -0.3745 -1.1187
19778TIP3    H180749   2.511   4.618  15.785 -1.4715 -0.6510 -0.1211
19778TIP3    H280750   2.391   4.544  15.729  0.7117 -2.8500 -2.0360
19779TIP3   OH280751   6.318   5.920   3.119  0.0413  0.4283 -0.5142
19779TIP3    H180752   6.226   5.941   3.131  0.3637  0.4112  2.1361
19779TIP3    H280753   6.334   5.845   3.176  1.5804  0.0779 -1.3632
19780TIP3   OH280754   6.348   0.535   3.005  0.4062  0.2766 -0.1657
19780TIP3    H180755   6.258   0.544   3.036 -0.2811  0.0785 -2.0015
19780TIP3    H280756   6.403   0.556   3.081 -1.1882  1.0141  0.7985
19781TIP3   OH280757   5.875   1.831   4.314  0.1259 -0.3462  0.3261
19781TIP3    H180758   5.868   1.790   4.400  0.9133  0.4926  0.7979
19781TIP3    H280759   5.886   1.924   4.333 -0.5096 -0.0576 -0.7062
19782TIP3   OH280760   2.357   4.539   5.350 -0.0268  0.4277  0.0902
19782TIP3    H180761   2.451   4.555   5.338 -0.1784  0.8847 -0.5057
19782TIP3    H280762   2.334   4.477   5.281 -0.2469  0.6441 -0.0346
19783TIP3   OH280763   6.573   0.547   2.505 -0.4546 -0.0180  0.3115
19783TIP3    H180764   6.514   0.551   2.581 -0.6631 -2.1344  0.2890
19783TIP3    H280765   6.528   0.599   2.438 -0.6484  1.2105  1.3589
19784TIP3   OH280766   4.266   2.435   1.231  0.0700 -0.3299 -0.3885
19784TIP3    H180767   4.288   2.484   1.310  1.7107 -1.6383 -0.0092
19784TIP3    H280768   4.176   2.405   1.246 -0.4851  1.3906 -0.0566
19785TIP3   OH280769   4.064   0.086   3.600 -0.5015  0.0259  0.2916
19785TIP3    H180770   3.977   0.118   3.624 -1.6172 -1.9243 -1.0185
19785TIP3    H280771   4.090   0.030   3.674 -1.3532 -1.1953 -0.3196
19786TIP3   OH280772   3.100   0.522   1.917  0.4078 -0.0522  0.0792
19786TIP3    H180773   3.054   0.604   1.901  0.1900  0.2341  2.0844
19786TIP3    H280774   3.041   0.455   1.882  0.4304  0.6100 -1.2493
19787TIP3   OH280775   1.900   2.561   1.287  0.2184 -0.8543  0.1710
19787TIP3    H180776   1.902   2.465   1.294  1.1183 -0.8605 -0.0928
19787TIP3    H280777   1.933   2.579   1.199  0.5636 -0.2783  0.4153
19788TIP3   OH280778   3.927   1.878   3.137 -0.1785  0.7223 -0.6760
19788TIP3    H180779   3.931   1.956   3.192  0.7364 -0.1726  0.5762
19788TIP3    H280780   3.834   1.863   3.124 -0.4985  0.1078  1.9284
19789TIP3   OH280781   1.604   5.367  17.070  0.3789 -0.5154  0.4955
19789TIP3    H180782   1.534   5.365  17.004  0.1180 -2.5473  0.8158
19789TIP3    H280783   1.681   5.398  17.023  0.2324 -2.0965 -0.7999
19790TIP3   OH280784   5.277   5.256   5.634 -1.0038 -0.0548  0.4668
19790TIP3    H180785   5.367   5.286   5.647 -1.4512  1.1330  0.8373
19790TIP3    H280786   5.239   5.318   5.572 -2.1683  0.6250  1.8328
19791TIP3   OH280787   2.882   4.038  12.465 -0.0013 -0.6410 -0.4286
19791TIP3    H180788   2.864   4.062  12.555  0.5997  0.0726 -0.4935
19791TIP3    H280789   2.855   3.947  12.458 -2.6859  0.0852 -0.2748
19792TIP3   OH280790   0.424   4.774   5.658  0.1196  0.1438  0.9672
19792TIP3    H180791   0.397   4.863   5.638 -0.6268 -0.0776  0.9683
19792TIP3    H280792   0.489   4.784   5.728  1.9991  0.8416 -0.8344
19793TIP3   OH280793   0.086   3.230  17.234 -0.0327 -0.6065  0.0682
19793TIP3    H180794   0.034   3.161  17.193  1.0555 -1.9615  0.9018
19793TIP3    H280795   0.052   3.236  17.323  1.3220 -1.6502  0.6832
19794TIP3   OH280796   2.468   3.333  10.622  0.4182 -0.6403 -0.1553
19794TIP3    H180797   2.537   3.283  10.578 -0.3064 -1.5313 -0.2856
19794TIP3    H280798   2.413   3.266  10.663 -1.0039  0.0159 -0.9700
19795TIP3   OH280799   4.610   3.213   4.062  0.5621 -0.1880 -0.2587
19795TIP3    H180800   4.638   3.253   4.144  1.2593 -0.1841 -0.4904
19795TIP3    H280801   4.684   3.158   4.036  1.1270  1.3118 -1.8714
19796TIP3   OH280802   6.063   2.166   6.063 -0.0140 -0.4166  0.6584
19796TIP3    H180803   5.970   2.176   6.082  0.1251  0.0710  1.1168
19796TIP3    H280804   6.105   2.169   6.149  0.5047  0.3388  0.3866
19797TIP3   OH280805   4.258   3.407   6.034  0.2164  0.1518 -0.0767
19797TIP3    H180806   4.194   3.455   5.981 -1.1801 -0.9320  0.6035
19797TIP3    H280807   4.233   3.427   6.124  0.3043 -0.9601  0.2003
19798TIP3   OH280808   0.050   6.521  12.026  0.2877  0.0696 -0.5291
19798TIP3    H180809   0.026   6.451  11.965 -0.4710 -0.1806  0.0682
19798TIP3    H280810   0.099   6.583  11.972 -1.8393  0.6897 -1.7882
19799TIP3   OH280811   4.198   1.216   6.114 -0.0780  0.0800  0.0618
19799TIP3    H180812   4.158   1.199   6.200  0.6687  0.9929  0.6087
19799TIP3    H280813   4.220   1.309   6.116 -0.4749  0.2122 -1.3145
19800TIP3   OH280814   0.733   3.717   1.338 -0.1142 -0.2159 -0.5502
19800TIP3    H180815   0.646   3.743   1.307 -0.2616 -1.1947 -0.9723
19800TIP3    H280816   0.766   3.795   1.382 -1.1391  0.2226 -0.5267
19801TIP3   OH280817   2.076   4.755   5.571  0.3919  0.0670  0.1802
19801TIP3    H180818   2.121   4.739   5.653  3.0113 -1.2512 -1.4588
19801TIP3    H280819   1.992   4.710   5.581  0.6652 -0.0449  2.1237
19802TIP3   OH280820   2.616   6.770  14.768  0.0189  0.2220 -0.2991
19802TIP3    H180821   2.592   6.715  14.693 -2.3631 -1.2920  1.5086
19802TIP3    H280822   2.675   6.715  14.820  1.1235  1.0140 -0.7012
19803TIP3   OH280823   6.293   1.605  13.357  0.0160 -0.2935  0.3482
19803TIP3    H180824   6.290   1.598  13.262 -0.0477 -0.3172  0.3520
19803TIP3    H280825   6.330   1.691  13.375 -1.9240  0.5909  0.3002
19804TIP3   OH280826   2.537   5.264  14.941  0.2660  0.2785  0.4523
19804TIP3    H180827   2.562   5.183  14.986 -0.0787 -0.4075 -0.5933
19804TIP3    H280828   2.524   5.327  15.012 -1.2306 -1.0512  1.3763
19805TIP3   OH280829   3.869   0.898   5.384 -0.0182 -0.4514  0.3440
19805TIP3    H180830   3.816   0.922   5.308 -0.3970 -1.1747  0.3782
19805TIP3    H280831   3.835   0.951   5.456 -0.5241 -0.7267  0.3077
19806TIP3   OH280832   1.205   4.071   4.439  0.8673 -0.1648 -0.6026
19806TIP3    H180833   1.296   4.049   4.458  0.8311 -0.2992 -0.5846
19806TIP3    H280834   1.207   4.108   4.351  1.2035  1.4913  0.0833
19807TIP3   OH280835   1.543   5.268  11.937  0.1109  0.3065 -0.1796
19807TIP3    H180836   1.603   5.259  12.012 -1.9713  2.1193  1.7458
19807TIP3    H280837   1.528   5.178  11.909  1.3394 -0.3748  1.2336
19808TIP3   OH280838   2.579   0.136   4.038 -0.1330 -0.2515 -0.1461
19808TIP3    H180839   2.616   0.122   3.950 -1.0621  0.2447 -0.6275
19808TIP3    H280840   2.559   0.230   4.040  0.2635 -0.1862  0.7480
19809TIP3   OH280841   3.233   1.629   0.235 -0.0266 -0.2889  0.0576
19809TIP3    H180842   3.175   1.605   0.307  0.4945  0.2785  0.6810
19809TIP3    H280843   3.321   1.628   0.274  0.1138  1.6186 -0.1357
19810TIP3   OH280844   5.495   0.584  14.024  0.2236  0.6350 -0.0421
19810TIP3    H180845   5.510   0.597  14.117 -0.1532 -0.0448  0.1156
19810TIP3    H280846   5.547   0.506  14.002 -0.2334  0.3849 -0.2493
19811TIP3   OH280847   2.827   2.966   0.989 -0.3333  0.2246  0.5612
19811TIP3    H180848   2.799   2.968   0.897 -1.0756  0.0298  0.7800
19811TIP3    H280849   2.860   2.878   1.001 -0.9141  0.0166  0.6730
19812TIP3   OH280850   6.184   1.591  13.648 -0.0065  0.4704  0.2028
19812TIP3    H180851   6.127   1.662  13.620  0.6994  0.8518 -0.2814
19812TIP3    H280852   6.267   1.608  13.604  0.7346  0.3868  1.5567
19813TIP3   OH280853   4.816   5.371  13.739  0.0192 -0.2223  0.0845
19813TIP3    H180854   4.772   5.339  13.661 -0.5000  0.4398  0.1016
19813TIP3    H280855   4.767   5.333  13.812 -0.4749  0.4409  0.1024
19814TIP3   OH280856   0.606   2.094   3.196 -0.2201  0.1762  0.1495
19814TIP3    H180857   0.583   2.102   3.104 -1.1299 -0.1991  0.3400
19814TIP3    H280858   0.622   2.000   3.210 -2.7882 -0.1745  0.9854
19815TIP3   OH280859   6.159   3.509   1.265  0.6371 -0.4335  0.1671
19815TIP3    H180860   6.128   3.423   1.293  2.3276 -1.7237 -1.8119
19815TIP3    H280861   6.253   3.508   1.285  0.3632  1.6398  1.7364
19816TIP3   OH280862   6.013   3.870  17.143  0.3489 -0.0478  0.3582
19816TIP3    H180863   5.977   3.944  17.093  0.1466  0.7098  1.5999
19816TIP3    H280864   5.992   3.793  17.090 -0.0524  0.7175 -0.6159
19817TIP3   OH280865   5.829   3.645  10.716  0.8612 -0.2951  0.6812
19817TIP3    H180866   5.780   3.591  10.655  0.0171  1.0810  0.1144
19817TIP3    H280867   5.877   3.583  10.771 -1.1759 -1.6670  0.9667
19818TIP3   OH280868   0.103   4.623   2.626  0.8210  0.1057 -0.2068
19818TIP3    H180869   0.079   4.597   2.537 -1.4672  0.3955  0.2954
19818TIP3    H280870   0.067   4.553   2.682 -1.2186  1.8864  0.7687
19819TIP3   OH280871   1.770   5.847  14.913  0.1958  0.1056 -0.3421
19819TIP3    H180872   1.759   5.810  15.001  1.6621 -0.1791 -0.2619
19819TIP3    H280873   1.815   5.778  14.864 -1.1122  0.0366 -1.4915
19820TIP3   OH280874   6.648   5.786  16.026 -0.0323  0.5948 -0.0601
19820TIP3    H180875   6.699   5.747  16.096  0.0635 -0.3575 -0.6415
19820TIP3    H280876   6.649   5.880  16.043  1.1106  0.4858  0.4544
19821TIP3   OH280877   1.118   1.606   4.375 -0.1691 -0.2248 -0.2977
19821TIP3    H180878   1.091   1.675   4.434  2.1152  1.3882 -1.0424
19821TIP3    H280879   1.192   1.564   4.419 -0.7820 -1.4123 -0.3830
19822TIP3   OH280880   0.955   6.368  13.443 -0.4476 -0.2942  0.0899
19822TIP3    H180881   0.892   6.430  13.478 -0.0598  0.0578  0.1573
19822TIP3    H280882   0.901   6.303  13.397 -0.7582  0.8883 -1.2429
19823TIP3   OH280883   0.027   4.870   2.096  0.4689 -0.4261  0.1949
19823TIP3    H180884   0.105   4.829   2.058 -0.2356 -0.3379 -1.3558
19823TIP3    H280885   0.059   4.910   2.177  2.1783  0.1614 -0.7358
19824TIP3   OH280886   3.133   4.610  15.298  0.1379 -0.2362 -0.1275
19824TIP3    H180887   3.186   4.584  15.373  0.6207  0.2025 -0.3157
19824TIP3    H280888   3.055   4.555  15.304 -1.5902  2.3357  2.7944
19825TIP3   OH280889   0.826   1.068  11.536 -0.1388  0.1449 -0.2014
19825TIP3    H180890   0.733   1.082  11.516 -0.5947  0.3217  1.9474
19825TIP3    H280891   0.842   1.122  11.613  2.2271  1.5537 -1.6292
19826TIP3   OH280892   6.489   4.141  16.479  0.0991 -0.3034  0.1461
19826TIP3    H180893   6.504   4.129  16.572  1.0024 -0.2280  0.0111
19826TIP3    H280894   6.489   4.236  16.466 -0.6150 -0.2946  0.1583
19827TIP3   OH280895   1.276   1.212   1.437 -0.4843 -0.8082 -0.4933
19827TIP3    H180896   1.294   1.180   1.525 -0.5620  0.4310 -0.0281
19827TIP3    H280897   1.182   1.198   1.425 -0.3707 -1.5039 -0.5977
19828TIP3   OH280898   5.844   3.579  11.684  0.1357  0.3468  0.1784
19828TIP3    H180899   5.888   3.583  11.769  1.1874  2.3101 -0.4363
19828TIP3    H280900   5.872   3.659  11.639 -1.8991  0.2591 -1.2878
19829TIP3   OH280901   4.957   3.439   1.953  0.0383 -0.4516  0.1319
19829TIP3    H180902   4.941   3.383   2.029 -0.7383 -0.2193  0.1464
19829TIP3    H280903   4.894   3.511   1.963 -1.2322 -1.2950 -1.6186
19830TIP3   OH280904   6.183   4.142  13.801 -0.2956  0.2352  0.2275
19830TIP3    H180905   6.145   4.063  13.840 -0.0295 -0.6286 -1.2127
19830TIP3    H280906   6.273   4.143  13.833 -0.4164  0.1774  0.5736
19831TIP3   OH280907   6.738   0.981   6.122 -0.1493  0.9458  0.1126
19831TIP3    H180908   6.688   0.998   6.202 -0.2390 -0.3438  0.3422
19831TIP3    H280909   6.692   0.908   6.081 -0.3110  1.8254 -1.3085
19832TIP3   OH280910   3.278   0.933   1.508  0.1396 -0.0718  0.1889
19832TIP3    H180911   3.230   0.930   1.592  0.1542  0.3166  0.2113
19832TIP3    H280912   3.349   0.869   1.519  1.8654  2.0239  1.5352
19833TIP3   OH280913   3.455   2.582  13.509  0.3760  0.5180  0.5546
19833TIP3    H180914   3.413   2.668  13.520  1.0452  1.0201 -0.7398
19833TIP3    H280915   3.388   2.527  13.469  1.4104  1.7954 -3.1486
19834TIP3   OH280916   2.195   0.556  11.148 -0.1787  0.2996 -0.5633
19834TIP3    H180917   2.105   0.533  11.126 -0.4218 -0.2447  0.9192
19834TIP3    H280918   2.194   0.652  11.155 -0.3331  0.3936 -1.8368
19835TIP3   OH280919   6.046   1.476  10.913 -0.4083  0.2366 -0.3630
19835TIP3    H180920   6.004   1.488  10.828 -0.9658  1.2171  0.0450
19835TIP3    H280921   5.986   1.515  10.976  0.6191  0.7187  0.3427
19836TIP3   OH280922   4.362   2.791  16.122  0.1608 -0.9078 -0.2338
19836TIP3    H180923   4.342   2.715  16.178  0.6747 -0.2411  0.8597
19836TIP3    H280924   4.451   2.816  16.146 -0.2044  0.3794 -0.2204
19837TIP3   OH280925   3.400   1.346  12.829 -0.2632  0.1577 -0.2786
19837TIP3    H180926   3.483   1.371  12.868 -0.3573  0.0032  0.0216
19837TIP3    H280927   3.402   1.384  12.741 -0.3785  1.1729  0.1486
19838TIP3   OH280928   6.710   6.731  11.096  0.1891  0.2332  0.9069
19838TIP3    H180929   6.685   6.646  11.132 -0.9806  0.1730 -0.0136
19838TIP3    H280930   6.740   6.712  11.007 -1.6382  0.9741  0.1216
19839TIP3   OH280931   3.512   3.150  15.257 -0.1457  0.1700  0.0999
19839TIP3    H180932   3.479   3.063  15.282 -1.9593  0.4635 -1.1525
19839TIP3    H280933   3.603   3.135  15.233 -0.5308 -1.4749 -0.4380
19840TIP3   OH280934   1.663   4.342   3.105 -0.8833  0.0522  0.4401
19840TIP3    H180935   1.576   4.303   3.115  0.3918 -2.8719  0.6657
19840TIP3    H280936   1.683   4.331   3.012 -0.6195  0.3823  0.4612
19841TIP3   OH280937   5.953   1.395  10.650  0.0421  0.7337 -0.2919
19841TIP3    H180938   5.860   1.418  10.652 -0.2084 -0.1967 -0.9670
19841TIP3    H280939   5.996   1.471  10.611 -0.4478  1.0968 -0.1327
19842TIP3   OH280940   5.179   3.084  12.153  0.1876 -0.4582 -0.3835
19842TIP3    H180941   5.196   3.144  12.225 -0.7405 -0.4232 -0.1902
19842TIP3    H280942   5.192   2.997  12.190 -1.5185 -0.4911  0.1732
19843TIP3   OH280943   3.324   3.164  11.272  0.2366 -0.1179  0.1922
19843TIP3    H180944   3.252   3.102  11.262 -0.4514  0.7833 -0.5233
19843TIP3    H280945   3.316   3.223  11.197  0.7003  0.9952  0.9934
19844TIP3   OH280946   5.836   2.547   0.140 -0.2705  0.5847  0.4555
19844TIP3    H180947   5.743   2.554   0.120  0.1503 -0.1107 -1.9166
19844TIP3    H280948   5.840   2.490   0.218 -1.7989  0.3819  0.4006
19845TIP3   OH280949   4.091   0.250   4.261 -0.5519  0.4756 -0.5502
19845TIP3    H180950   4.013   0.262   4.315 -0.9587  3.5481 -1.7515
19845TIP3    H280951   4.059   0.248   4.171  0.6061  0.0957 -0.9772
19846TIP3   OH280952   5.455   4.849   0.977 -0.3346 -0.1646  0.0534
19846TIP3    H180953   5.515   4.816   1.044 -0.1300  1.8615  0.9019
19846TIP3    H280954   5.427   4.771   0.930 -0.2435 -1.5928  2.2983
19847TIP3   OH280955   5.813   6.032   1.921 -0.5511  0.1856  0.0713
19847TIP3    H180956   5.818   6.063   1.830 -0.0762  0.1222  0.0715
19847TIP3    H280957   5.721   6.007   1.933 -0.1647 -2.0043 -1.1287
19848TIP3   OH280958   6.525   4.363   5.034 -0.1186 -0.4282  0.4640
19848TIP3    H180959   6.517   4.281   5.083 -0.8643 -0.6010  0.0488
19848TIP3    H280960   6.583   4.342   4.961 -1.4160 -0.9441 -0.4242
19849TIP3   OH280961   2.820   2.839   3.652  0.3650  0.6197 -0.4470
19849TIP3    H180962   2.886   2.840   3.720  1.0802  0.1439 -1.1267
19849TIP3    H280963   2.825   2.926   3.612  2.4524 -0.2786 -2.2594
19850TIP3   OH280964   2.143   3.750  15.164 -0.5145  0.0910  0.1224
19850TIP3    H180965   2.050   3.747  15.142 -0.6185  0.7798  0.4759
19850TIP3    H280966   2.150   3.702  15.246 -0.6442  0.5297  0.3920
19851TIP3   OH280967   5.331   3.317  11.875  0.4764 -0.3564 -0.0252
19851TIP3    H180968   5.275   3.381  11.918  0.9162  0.3417 -0.4785
19851TIP3    H280969   5.406   3.368  11.843  0.6623 -1.0343 -0.6863
19852TIP3   OH280970   5.747   6.411   4.486 -0.3489 -0.2263  0.5852
19852TIP3    H180971   5.654   6.411   4.462 -0.3182  0.3226  0.4664
19852TIP3    H280972   5.769   6.318   4.497 -0.4083 -0.4779 -1.3256
19853TIP3   OH280973   3.466   0.407  11.833 -0.1419  0.7257  0.5308
19853TIP3    H180974   3.442   0.325  11.876 -0.5992 -0.8478 -2.5756
19853TIP3    H280975   3.507   0.379  11.751 -0.8968  3.6270 -0.8668
19854TIP3   OH280976   1.383   1.880   0.886 -0.0244 -0.1851 -0.2499
19854TIP3    H180977   1.459   1.830   0.857  0.8849  1.7378 -1.2811
19854TIP3    H280978   1.320   1.872   0.814 -0.0325 -0.1644 -0.2448
19855TIP3   OH280979   6.223   0.257   3.541  0.3821  0.0063  0.3841
19855TIP3    H180980   6.136   0.216   3.531 -0.2686  1.8521 -1.8891
19855TIP3    H280981   6.283   0.197   3.496 -0.2982  0.6226 -1.3751
19856TIP3   OH280982   2.714   2.565  15.357 -0.2686 -0.4144  0.1818
19856TIP3    H180983   2.637   2.517  15.387 -0.6282  0.8704  1.3904
19856TIP3    H280984   2.681   2.652  15.336  0.5665 -0.3548 -0.9144
19857TIP3   OH280985   0.411   3.006  12.291  0.2776 -0.0147  0.5227
19857TIP3    H180986   0.455   3.088  12.312 -0.5449  1.3654 -2.8655
19857TIP3    H280987   0.340   3.000  12.356  0.4591  1.8443  0.9260
19858TIP3   OH280988   3.219   3.926  14.737  0.2572 -0.4903  0.2252
19858TIP3    H180989   3.304   3.912  14.778  0.3193 -1.2398 -0.1476
19858TIP3    H280990   3.162   3.956  14.808  0.4599 -1.4045  0.7801
19859TIP3   OH280991   0.043   2.033   5.731  0.1869 -0.0646 -0.2534
19859TIP3    H180992   0.008   1.952   5.768  0.4920 -0.1079 -0.0633
19859TIP3    H280993   0.033   2.022   5.636  0.2142 -0.3163 -0.2263
19860TIP3   OH280994   4.809   2.426   4.759  0.1848  0.1318 -0.7186
19860TIP3    H180995   4.789   2.492   4.825  0.4513  0.2881 -0.7969
19860TIP3    H280996   4.727   2.415   4.711  0.7830  2.1307 -2.2519
19861TIP3   OH280997   3.559   0.082   0.036  0.8223  0.1635 -0.3106
19861TIP3    H180998   3.652   0.100   0.024  0.3958  1.2166 -2.3562
19861TIP3    H280999   3.518   0.116  -0.044 -1.6246  2.1888  1.7386
19862TIP3   OH281000   2.153   5.963  15.720  0.6281 -0.2249 -0.1919
19862TIP3    H181001   2.157   6.058  15.711 -0.1023 -0.0221  1.3903
19862TIP3    H281002   2.100   5.948  15.798  1.8754 -1.8990  0.3873
19863TIP3   OH281003   3.764   1.738  13.764  0.3148 -0.3039 -0.0028
19863TIP3    H181004   3.710   1.804  13.721  0.5199  0.1285  0.3958
19863TIP3    H281005   3.829   1.713  13.698 -1.0651 -1.6765 -0.8867
19864TIP3   OH281006   2.967   1.767   3.711  0.3914 -0.3913 -0.1946
19864TIP3    H181007   2.983   1.675   3.690 -0.5934 -0.9586  1.4133
19864TIP3    H281008   2.921   1.765   3.795  0.6086  1.5868  0.0087
19865TIP3   OH281009   3.213   2.022  13.183  0.6716  0.2590 -0.0519
19865TIP3    H181010   3.225   2.088  13.251  0.1509  0.6434 -0.3272
19865TIP3    H281011   3.185   2.072  13.106  0.9115 -0.2106 -0.4471
19866TIP3   OH281012   2.932   2.688   6.033 -0.0387 -0.3264 -0.1752
19866TIP3    H181013   2.839   2.710   6.039 -0.1073 -0.3920 -0.9397
19866TIP3    H281014   2.933   2.593   6.017  0.1324 -0.1683 -1.1090
19867TIP3   OH281015   4.193   6.348  15.459  0.8105  0.1010 -0.2590
19867TIP3    H181016   4.141   6.428  15.448  2.2771  1.6167  3.2821
19867TIP3    H281017   4.277   6.369  15.417  0.3247 -0.5214 -1.5573
19868TIP3   OH281018   5.894   5.341   3.816  0.0937 -0.2812 -0.3377
19868TIP3    H181019   5.839   5.262   3.820  0.1711 -0.4277 -1.7946
19868TIP3    H281020   5.932   5.339   3.728  1.5786  0.3965  0.2694
19869TIP3   OH281021   3.861   6.312   5.463  0.2965 -0.2229  0.3800
19869TIP3    H181022   3.898   6.226   5.442  0.3369 -0.4250  1.2526
19869TIP3    H281023   3.770   6.307   5.436  0.5161 -0.2397 -0.3781
19870TIP3   OH281024   6.702   2.434   5.842 -0.1903  0.5403  0.7539
19870TIP3    H181025   6.772   2.429   5.907 -0.0660  0.2743  0.6004
19870TIP3    H281026   6.705   2.525   5.811  1.0933  0.1292 -0.3610
19871TIP3   OH281027   6.507   0.599  14.403  0.1818  0.1608 -0.2372
19871TIP3    H181028   6.599   0.584  14.423 -0.1959  0.3104  1.6583
19871TIP3    H281029   6.508   0.658  14.328  1.6214  0.9104  0.3721
19872TIP3   OH281030   0.384   2.441   5.891 -0.6101 -0.1722 -0.2110
19872TIP3    H181031   0.311   2.479   5.939 -0.3505 -0.2017  0.2108
19872TIP3    H281032   0.344   2.374   5.836 -0.9820  0.2408 -0.4553
19873TIP3   OH281033   5.357   6.367   2.127  0.1983  0.1785 -0.4348
19873TIP3    H181034   5.392   6.301   2.067 -2.1900  0.2158 -1.9134
19873TIP3    H281035   5.374   6.450   2.084  2.3072  0.5078  0.9660
19874TIP3   OH281036   5.855   5.556  15.221 -0.1113 -1.0139  0.1557
19874TIP3    H181037   5.932   5.501  15.238  0.9894  0.0004 -1.3841
19874TIP3    H281038   5.877   5.641  15.259 -0.5845 -0.8027 -0.0361
19875TIP3   OH281039   6.103   5.266  11.330 -0.0466  0.1462  0.2696
19875TIP3    H181040   6.186   5.226  11.353  0.1183  0.3371  0.0058
19875TIP3    H281041   6.050   5.194  11.296  0.7609  0.4159 -1.5978
19876TIP3   OH281042   3.197   3.219   3.944  0.5990  0.0412  0.4665
19876TIP3    H181043   3.102   3.209   3.939  0.5173  1.5527 -1.3293
19876TIP3    H281044   3.213   3.257   4.030 -0.4312 -0.0043  0.6839
19877TIP3   OH281045   0.594   5.442   0.761 -0.4615  0.5300  0.1832
19877TIP3    H181046   0.565   5.478   0.677 -0.6403 -0.9605 -0.4150
19877TIP3    H281047   0.662   5.502   0.790  1.4386 -0.3072 -2.3028
19878TIP3   OH281048   2.872   2.258   4.524 -0.4093  0.3494 -0.4900
19878TIP3    H181049   2.831   2.344   4.516 -0.1157  0.5255 -0.1170
19878TIP3    H281050   2.926   2.250   4.445 -2.0082 -0.3489 -1.5276
19879TIP3   OH281051   1.132   0.708  11.245  0.0042  0.0643 -0.6194
19879TIP3    H181052   1.140   0.801  11.264  2.5162 -0.1785 -0.3642
19879TIP3    H281053   1.222   0.675  11.244 -0.8092 -2.2739 -1.1527
19880TIP3   OH281054   1.000   0.468   4.615 -0.2405  0.1938  0.2531
19880TIP3    H181055   0.972   0.412   4.687  0.1863 -0.6134 -0.2044
19880TIP3    H281056   1.026   0.550   4.657  0.5538 -0.4748  1.0841
19881TIP3   OH281057   0.320   5.850   4.133  0.2108  0.3905  0.3478
19881TIP3    H181058   0.242   5.879   4.180  0.1477  0.9635 -0.1094
19881TIP3    H281059   0.381   5.924   4.141  0.6991 -0.0416  0.6798
19882TIP3   OH281060   1.627   5.045  14.145 -0.0219  0.2987 -0.1589
19882TIP3    H181061   1.590   5.133  14.138  1.2894  0.8788  0.1427
19882TIP3    H281062   1.700   5.054  14.205 -0.3446 -1.1622  0.4744
19883TIP3   OH281063   0.359   5.941   5.698  0.6534  0.0366 -0.6898
19883TIP3    H181064   0.415   5.910   5.627 -1.1398 -2.1759 -1.1787
19883TIP3    H281065   0.272   5.947   5.659  0.2204  1.8654  0.4962
19884TIP3   OH281066   6.012   2.646   5.220  0.2249 -0.4339 -0.3384
19884TIP3    H181067   6.051   2.660   5.133  0.6525  1.5333  0.1533
19884TIP3    H281068   5.990   2.552   5.221  2.0047 -0.9114 -1.8384
19885TIP3   OH281069   4.155   4.167  16.626  0.2321  0.1240  0.2917
19885TIP3    H181070   4.086   4.103  16.643 -0.4701  1.0655  1.0846
19885TIP3    H281071   4.155   4.223  16.704  0.6758  1.2139 -0.4827
19886TIP3   OH281072   3.608   5.745   6.128  0.3833  0.0047 -0.5063
19886TIP3    H181073   3.524   5.706   6.105  0.7863 -0.8077 -0.5931
19886TIP3    H281074   3.627   5.711   6.215  0.2893  0.7391 -0.1963
19887TIP3   OH281075   2.329   0.107   1.052 -0.0451 -0.1702  0.6032
19887TIP3    H181076   2.375   0.088   1.134  0.0975  0.9142  0.7751
19887TIP3    H281077   2.394   0.087   0.984  0.1310 -0.2199  0.7842
19888TIP3   OH281078   5.490   0.072  12.258  0.2925  0.7362  0.0315
19888TIP3    H181079   5.429   0.059  12.331 -1.3346  0.3540 -1.3690
19888TIP3    H281080   5.466   0.157  12.221 -0.7069 -0.2740 -1.7226
19889TIP3   OH281081   4.608   2.820   5.133 -0.8959  0.4199 -0.4002
19889TIP3    H181082   4.559   2.890   5.176  0.6792  0.7086  0.9760
19889TIP3    H281083   4.661   2.864   5.066 -0.7933  0.3876 -0.3401
19890TIP3   OH281084   1.133   4.406  16.968  0.0417 -0.3679 -0.4624
19890TIP3    H181085   1.110   4.474  16.905 -1.6442 -0.4182  0.0611
19890TIP3    H281086   1.049   4.367  16.993  0.8391 -1.5581  0.4567
19891TIP3   OH281087   1.385   2.060  15.879  0.3784  0.0774  0.2532
19891TIP3    H181088   1.465   2.025  15.918  0.0544  1.2419  2.0140
19891TIP3    H281089   1.391   2.154  15.892 -0.7507  0.2766 -0.6095
19892TIP3   OH281090   5.328   3.246   5.324  0.1041 -0.1655  0.2512
19892TIP3    H181091   5.277   3.301   5.264 -0.0029  0.4931  0.9460
19892TIP3    H281092   5.412   3.291   5.331  0.6808 -1.0784 -0.6359
19893TIP3   OH281093   2.489   0.357  16.912  0.2273  0.3062 -0.0073
19893TIP3    H181094   2.513   0.387  16.824 -2.3950  0.2205 -0.8031
19893TIP3    H281095   2.515   0.428  16.970  0.0735  1.2683 -1.1035
19894TIP3   OH281096   0.444   2.063  16.322 -0.2323  0.1224 -0.4389
19894TIP3    H181097   0.539   2.075  16.321  0.1250 -2.2584  0.4337
19894TIP3    H281098   0.417   2.081  16.232  0.6838  3.2148 -0.1439
19895TIP3   OH281099   1.234   2.923  10.727 -0.1831 -0.0166  0.4721
19895TIP3    H181100   1.140   2.920  10.712 -0.2671 -0.6503  1.1266
19895TIP3    H281101   1.261   2.832  10.732 -0.0837  0.1513  3.7192
19896TIP3   OH281102   1.640   2.777  13.696 -0.0193 -0.5941  0.2493
19896TIP3    H181103   1.603   2.850  13.745  1.1671  0.3356 -0.2029
19896TIP3    H281104   1.728   2.766  13.733  0.9699  0.2478 -1.7849
19897TIP3   OH281105   4.973   6.117  16.598  0.3054 -0.3839  0.6789
19897TIP3    H181106   4.929   6.161  16.671 -2.7847  1.3551 -2.1002
19897TIP3    H281107   4.995   6.188  16.538  2.5249 -1.8328 -0.2916
19898TIP3   OH281108   1.719   1.556  14.981 -0.2420 -0.2200 -0.0495
19898TIP3    H181109   1.795   1.542  14.924 -0.2119 -0.6956  0.1113
19898TIP3    H281110   1.753   1.606  15.055 -0.5543  1.6286 -1.1173
19899TIP3   OH281111   4.274   2.984  15.512  0.0842 -0.4176  0.1219
19899TIP3    H181112   4.317   2.991  15.597  0.0217 -0.6377  0.1713
19899TIP3    H281113   4.201   3.046  15.517  1.6371  1.5340 -0.7421
19900TIP3   OH281114   3.615   6.110   4.453 -0.6836  0.3169  0.1587
19900TIP3    H181115   3.606   6.204   4.438  2.2013  0.3619 -1.6225
19900TIP3    H281116   3.604   6.071   4.367  0.4302 -0.7854  0.5157
19901TIP3   OH281117   1.861   2.865  13.832 -0.3183  0.2693 -0.0558
19901TIP3    H181118   1.868   2.882  13.926 -0.6649  0.2556 -0.0271
19901TIP3    H281119   1.882   2.949  13.791  0.6485  0.0630  0.0066
19902TIP3   OH281120   1.134   2.402  12.364 -0.3163 -0.3796  0.1921
19902TIP3    H181121   1.132   2.311  12.393  0.8550 -0.7972 -1.0330
19902TIP3    H281122   1.117   2.398  12.270  0.5477  0.6045 -0.0148
19903TIP3   OH281123   5.235   2.550  11.809  0.0118 -0.3046 -0.6047
19903TIP3    H181124   5.253   2.643  11.799  1.6161 -0.3844  1.1950
19903TIP3    H281125   5.165   2.546  11.873 -1.4531 -0.2843 -2.1707
19904TIP3   OH281126   5.888   1.506   5.368  0.2209 -0.3694 -0.3943
19904TIP3    H181127   5.930   1.515   5.283 -1.0598  2.1714 -0.8141
19904TIP3    H281128   5.948   1.452   5.419  2.6531  0.8902 -1.8233
19905TIP3   OH281129   1.738   6.536   0.459 -0.2585  0.1384 -0.1162
19905TIP3    H181130   1.810   6.511   0.518 -0.6395 -1.1890 -0.1908
19905TIP3    H281131   1.660   6.498   0.499 -0.7421  0.5076 -0.6941
19906TIP3   OH281132   0.086   6.724   2.951 -0.0581  0.0283 -0.2849
19906TIP3    H181133   0.101   6.725   2.857 -0.1880  1.2434 -0.3030
19906TIP3    H281134   0.170   6.748   2.990 -0.5453  1.7318 -0.1982
19907TIP3   OH281135   3.218   1.765  11.153  0.1630 -0.3147 -0.2996
19907TIP3    H181136   3.298   1.815  11.136 -1.2708  3.1969  2.6324
19907TIP3    H281137   3.153   1.803  11.095 -0.4422 -0.0972  0.5059
19908TIP3   OH281138   1.268   6.590   2.666  0.0047  0.0045  0.0992
19908TIP3    H181139   1.196   6.540   2.705  2.1694 -2.8546  0.5729
19908TIP3    H281140   1.325   6.612   2.739  0.6497  0.5163 -0.5433
19909TIP3   OH281141   1.291   0.008   4.573  0.0350 -0.0795  0.5064
19909TIP3    H181142   1.199   0.033   4.580  0.5132  2.4518 -1.4570
19909TIP3    H281143   1.292  -0.059   4.505 -0.3985 -0.3918  0.8043
19910TIP3   OH281144   5.167   5.492   5.560  0.0743 -0.4036 -0.3517
19910TIP3    H181145   5.073   5.498   5.575  0.1129  0.3527 -0.3623
19910TIP3    H281146   5.206   5.498   5.647  0.1520  0.4511 -0.4339
19911TIP3   OH281147   3.628   0.497  14.536 -0.1000  0.7650  0.5328
19911TIP3    H181148   3.591   0.432  14.476  0.4647  0.6858  0.2684
19911TIP3    H281149   3.607   0.581  14.496  1.1366  0.6932 -0.3006
19912TIP3   OH281150   4.156   4.324  13.163  0.3726  0.2484  0.2508
19912TIP3    H181151   4.089   4.276  13.212  0.5430  0.9247  1.1615
19912TIP3    H281152   4.187   4.390  13.224 -0.8155  2.4423 -1.4263
19913TIP3   OH281153   4.569   0.556  14.826 -0.4219  0.5007 -0.6218
19913TIP3    H181154   4.550   0.626  14.888 -0.2873 -2.2004  2.6079
19913TIP3    H281155   4.490   0.550  14.772 -1.7341  1.0434  1.1637
19914TIP3   OH281156   2.768   0.456   2.477  0.1949  0.3588 -0.2626
19914TIP3    H181157   2.788   0.513   2.552  0.8392 -1.7732  1.2409
19914TIP3    H281158   2.778   0.367   2.512 -4.4512 -0.7705 -1.5297
19915TIP3   OH281159   5.093   1.212  12.798 -0.5944  0.0096  0.2264
19915TIP3    H181160   5.182   1.210  12.763 -0.8472  0.7032 -0.4640
19915TIP3    H281161   5.048   1.280  12.747 -0.7149  1.6875  2.4747
19916TIP3   OH281162   3.517   3.700   2.502 -0.7714  0.0302 -0.1965
19916TIP3    H181163   3.573   3.744   2.565 -1.0245  0.3117 -0.1667
19916TIP3    H281164   3.467   3.637   2.555 -0.0040 -0.6884 -0.3259
19917TIP3   OH281165   1.494   3.558   4.384 -0.0955  0.7151  0.0879
19917TIP3    H181166   1.548   3.480   4.372  0.0510  0.7589  0.4605
19917TIP3    H281167   1.446   3.566   4.302 -0.3672  0.0389  0.1774
19918TIP3   OH281168   4.432   3.643   1.298  0.0075  0.0132 -0.3798
19918TIP3    H181169   4.399   3.622   1.385  1.1910  0.3333  0.1641
19918TIP3    H281170   4.484   3.568   1.273  0.8081  0.5063 -0.2140
19919TIP3   OH281171   5.312   5.126   1.728 -0.4734 -0.6444  0.6136
19919TIP3    H181172   5.225   5.163   1.712  0.3672  0.8872 -0.7299
19919TIP3    H281173   5.372   5.196   1.699  1.1815 -2.2495  0.0950
19920TIP3   OH281174   3.447   2.814   3.198  0.4553  0.0090 -0.3107
19920TIP3    H181175   3.542   2.799   3.205  0.5479  0.2383 -1.0093
19920TIP3    H281176   3.409   2.755   3.263  1.0594 -0.3028 -0.2304
19921TIP3   OH281177   2.754   5.643   3.087 -0.0593 -0.4774 -0.1660
19921TIP3    H181178   2.761   5.706   3.015 -1.2765 -1.2418 -0.9760
19921TIP3    H281179   2.768   5.694   3.166 -1.2434  0.8353 -0.7936
19922TIP3   OH281180   1.654   1.731   0.037 -0.4890 -0.3555 -0.6279
19922TIP3    H181181   1.590   1.697   0.099  0.4114 -2.3738 -0.7636
19922TIP3    H281182   1.660   1.665  -0.032 -0.6026  1.3031 -2.2797
19923TIP3   OH281183   3.624   2.377   0.001  0.1053 -0.7605  0.2273
19923TIP3    H181184   3.691   2.316   0.032  0.5643  0.0341  0.7985
19923TIP3    H281185   3.662   2.463   0.013 -0.4597 -0.3668 -0.7966
19924TIP3   OH281186   2.164   2.510  17.220  0.0696  0.8199 -0.3127
19924TIP3    H181187   2.120   2.504  17.135  0.7384 -0.2371 -0.6053
19924TIP3    H281188   2.110   2.569  17.272 -2.4098 -1.4486 -0.2381
19925TIP3   OH281189   0.062   4.437  11.684  1.0813  0.0867  0.3197
19925TIP3    H181190   0.026   4.373  11.623 -0.2231  1.8132 -0.7650
19925TIP3    H281191   0.135   4.391  11.726 -0.1014 -2.2477 -0.0856
19926TIP3   OH281192   1.567   4.456  14.201 -0.3751  1.1429  0.2918
19926TIP3    H181193   1.569   4.552  14.205 -0.4964  1.1197  1.0969
19926TIP3    H281194   1.474   4.434  14.208 -0.2753  0.9405  1.0375
19927TIP3   OH281195   5.548   5.970  16.844  0.1572 -0.5554 -0.2338
19927TIP3    H181196   5.487   5.986  16.772 -0.3673 -0.1124  0.3121
19927TIP3    H281197   5.515   6.023  16.916  0.5928 -1.1225  0.3885
19928TIP3   OH281198   5.997   1.565  11.490 -0.3816 -0.2567  0.0318
19928TIP3    H181199   6.088   1.568  11.519 -0.9139 -1.5610  1.9245
19928TIP3    H281200   5.997   1.505  11.415  0.3802  0.1092 -0.2617
19929TIP3   OH281201   2.898   4.037   5.882  0.3913  0.3195  0.5235
19929TIP3    H181202   2.936   4.114   5.925 -0.4581  0.9214  0.2198
19929TIP3    H281203   2.819   4.018   5.932  0.6211 -0.3948  0.6219
19930TIP3   OH281204   4.219   6.085  12.544  0.3369 -0.6204 -0.1011
19930TIP3    H181205   4.252   6.095  12.633  0.2834  0.0382 -0.1542
19930TIP3    H281206   4.237   6.169  12.501  0.2199 -0.8772 -0.6630
19931TIP3   OH281207   1.124   1.561   4.104  0.3006  0.4135  0.5657
19931TIP3    H181208   1.156   1.563   4.194 -0.3151  2.8019  0.7392
19931TIP3    H281209   1.037   1.600   4.108  0.2236  0.4369 -1.0536
19932TIP3   OH281210   3.425   6.290   3.498 -0.7601  0.2203 -0.4809
19932TIP3    H181211   3.429   6.243   3.415  1.3955 -0.7615  0.1485
19932TIP3    H281212   3.515   6.319   3.514 -0.6390 -1.6483  2.6368
19933TIP3   OH281213   4.608   2.950   3.216  0.1469  0.1327  0.6739
19933TIP3    H181214   4.632   3.031   3.261  1.2519 -0.6441  1.5239
19933TIP3    H281215   4.680   2.934   3.154 -0.7134  0.4927 -0.4278
19934TIP3   OH281216   4.237   4.572   2.609 -0.2797 -0.2405  1.3670
19934TIP3    H181217   4.195   4.518   2.675 -1.5651 -0.8629  0.0738
19934TIP3    H281218   4.169   4.632   2.579  0.0695 -0.4669  0.0756
19935TIP3   OH281219   2.169   0.177   3.066  0.1720 -0.9446 -0.2975
19935TIP3    H181220   2.181   0.191   2.972  0.0271  0.7016 -0.0746
19935TIP3    H281221   2.244   0.123   3.092  0.2157 -1.3987 -1.3532
19936TIP3   OH281222   4.624   3.950  11.819 -0.3349  0.0523  0.3798
19936TIP3    H181223   4.538   3.960  11.861 -0.4831 -2.3707  0.7486
19936TIP3    H281224   4.628   3.857  11.797  0.4112  0.9240 -3.5243
19937TIP3   OH281225   1.329   3.272   1.630 -0.0078 -0.3186  0.2659
19937TIP3    H181226   1.234   3.274   1.618  0.2879 -0.6547 -2.5763
19937TIP3    H281227   1.354   3.182   1.610  0.8421 -0.4205  1.7203
19938TIP3   OH281228   2.584   4.866   5.749 -0.2633  0.0008 -0.4024
19938TIP3    H181229   2.599   4.831   5.837 -0.5536  0.8345 -0.0199
19938TIP3    H281230   2.660   4.921   5.732 -0.1814 -0.2027 -0.6954
19939TIP3   OH281231   5.675   5.753   4.357 -0.0936  0.1601  0.0694
19939TIP3    H181232   5.602   5.792   4.310 -0.6546 -0.2485  0.5944
19939TIP3    H281233   5.730   5.827   4.383 -1.4684  0.6756  1.5955
19940TIP3   OH281234   2.697   0.994  12.256 -0.3078 -0.9644 -0.0590
19940TIP3    H181235   2.685   0.951  12.341 -0.8592  1.2197  1.0013
19940TIP3    H281236   2.608   1.006  12.223 -0.2168  0.1301  0.0692
19941TIP3   OH281237   4.593   4.377   5.067  0.1795  0.4463  0.0618
19941TIP3    H181238   4.585   4.283   5.053  1.6610  0.5709 -1.8508
19941TIP3    H281239   4.687   4.392   5.079 -0.0980  1.6031  0.9100
19942TIP3   OH281240   6.280   0.590  13.650  0.1521  0.0111 -0.2553
19942TIP3    H181241   6.360   0.541  13.663  1.3194  1.4157 -1.7920
19942TIP3    H281242   6.210   0.530  13.673  1.5942 -1.8155 -0.5493
19943TIP3   OH281243   0.613   5.707  15.965 -0.0216 -0.0047 -0.3807
19943TIP3    H181244   0.618   5.613  15.951  0.5963  0.2184 -1.7922
19943TIP3    H281245   0.618   5.744  15.877 -0.2256  1.3486  0.1687
19944TIP3   OH281246   3.647   3.839  15.083 -0.3209  0.1639  0.1141
19944TIP3    H181247   3.741   3.820  15.085 -0.4456 -0.5737 -0.7882
19944TIP3    H281248   3.610   3.785  15.152 -0.1719 -0.0527  0.0259
19945TIP3   OH281249   5.637   0.501  14.286  0.1358 -0.3035  0.4190
19945TIP3    H181250   5.567   0.443  14.316 -0.8630  0.9199  0.5412
19945TIP3    H281251   5.661   0.467  14.200 -2.5576  0.8512 -0.8786
19946TIP3   OH281252   0.262   5.152   1.000 -0.7330  0.0073 -0.3746
19946TIP3    H181253   0.318   5.226   0.979  0.3194 -0.8425 -0.6095
19946TIP3    H281254   0.282   5.131   1.091 -1.4043  0.3324 -0.1489
19947TIP3   OH281255   4.664   3.393  15.288  0.4986 -0.2032  0.7660
19947TIP3    H181256   4.671   3.423  15.379  0.3870  1.3017  0.2796
19947TIP3    H281257   4.616   3.310  15.295 -1.5617  1.0383  1.8872
19948TIP3   OH281258   0.425   4.564  16.886  0.3027 -0.3866 -0.2818
19948TIP3    H181259   0.459   4.547  16.798 -1.0632 -0.9458 -0.7110
19948TIP3    H281260   0.356   4.629  16.873 -1.0151 -1.6863  0.1694
19949TIP3   OH281261   3.941   6.042  15.987 -0.2289 -0.0438 -0.6785
19949TIP3    H181262   4.005   5.994  15.935  0.1615  2.2241 -2.3574
19949TIP3    H281263   3.954   6.134  15.962 -1.2418  0.9058  2.1181
19950TIP3   OH281264   5.715   1.269  16.115 -0.2012 -0.2476 -0.0248
19950TIP3    H181265   5.633   1.227  16.090 -0.6849  1.0503 -0.6589
19950TIP3    H281266   5.688   1.347  16.164  0.6559  0.0738 -0.0584
19951TIP3   OH281267   5.929   0.359   5.091 -0.0554  0.4528  0.0348
19951TIP3    H181268   5.872   0.436   5.082  0.7206  1.0950  0.5730
19951TIP3    H281269   5.989   0.366   5.017  1.7332  1.8413  1.5667
19952TIP3   OH281270   3.920   5.052   0.601 -0.0011 -0.1669 -0.3504
19952TIP3    H181271   4.000   5.103   0.609  0.0367 -0.2358 -0.2978
19952TIP3    H281272   3.942   4.981   0.541  0.6049 -1.4401  1.3428
19953TIP3   OH281273   0.832   4.697  16.802  0.4443 -0.2060  0.2427
19953TIP3    H181274   0.867   4.719  16.716 -0.3474 -1.4819 -0.4138
19953TIP3    H281275   0.891   4.741  16.863  0.8580  0.9298 -0.9444
19954TIP3   OH281276   5.470   3.815   1.722  0.1605  0.2007 -0.1824
19954TIP3    H181277   5.435   3.726   1.720  1.1542 -0.1876 -0.2664
19954TIP3    H281278   5.530   3.819   1.647  0.7529  0.6798  0.3198
19955TIP3   OH281279   2.991   5.253   6.501  0.5011 -0.0105  0.2749
19955TIP3    H181280   3.084   5.260   6.523  0.3284  1.2046  0.6142
19955TIP3    H281281   2.959   5.180   6.555  1.0857  0.0483  0.6978
19956TIP3   OH281282   5.272   6.631  14.028  0.1170  0.3291  0.2374
19956TIP3    H181283   5.220   6.701  14.067 -0.8163 -0.2741  0.0951
19956TIP3    H281284   5.249   6.553  14.080 -1.5710 -0.6105 -1.8463
19957TIP3   OH281285   0.700   6.326   5.187 -0.3450 -0.2364  0.2971
19957TIP3    H181286   0.690   6.346   5.280  0.4160 -1.4805  0.6522
19957TIP3    H281287   0.659   6.240   5.177 -2.0616  0.6883 -0.8823
19958TIP3   OH281288   3.384   1.996   0.653  0.0788  0.0280  0.2990
19958TIP3    H181289   3.396   2.027   0.563 -2.6295  0.8114  0.1466
19958TIP3    H281290   3.426   2.063   0.707  0.5119  0.2605 -0.3189
19959TIP3   OH281291   4.759   3.256  15.552  0.2562  0.3599  0.0375
19959TIP3    H181292   4.854   3.271  15.555 -0.0340  2.6019 -0.7829
19959TIP3    H281293   4.722   3.344  15.547 -1.6960 -0.5701 -3.6401
19960TIP3   OH281294   5.966   3.617  13.692  0.1927  0.0746  0.0231
19960TIP3    H181295   5.910   3.649  13.762 -1.0935 -0.0635 -0.9082
19960TIP3    H281296   5.995   3.530  13.721 -0.3182  0.0269  0.3903
19961TIP3   OH281297   0.601   1.020  11.367  0.2365  0.3579  0.5364
19961TIP3    H181298   0.556   1.029  11.283  0.5534 -0.6792  0.2539
19961TIP3    H281299   0.548   0.958  11.417 -1.1020  2.5264  1.9123
19962TIP3   OH281300   2.722   2.928  14.346  0.2907  0.3422  0.1613
19962TIP3    H181301   2.791   2.924  14.280  0.3788 -2.0824  0.3764
19962TIP3    H281302   2.767   2.907  14.428 -0.2477  1.1762  0.6838
19963TIP3   OH281303   4.413   1.247   5.367  0.0325 -0.1290  0.2751
19963TIP3    H181304   4.501   1.267   5.334 -0.2396 -0.7225 -0.8109
19963TIP3    H281305   4.355   1.307   5.322 -0.5673 -2.1475 -1.7203
19964TIP3   OH281306   6.633   1.009   3.676  0.1627  1.0814  0.5274
19964TIP3    H181307   6.694   1.015   3.603  1.3702  2.0687  1.5796
19964TIP3    H281308   6.605   1.100   3.691 -1.2907  0.6839  0.2868
19965TIP3   OH281309   1.861   0.128  15.757 -0.0281  0.2167  0.3342
19965TIP3    H181310   1.948   0.169  15.756  0.3992 -0.6187  1.3978
19965TIP3    H281311   1.851   0.099  15.848 -2.4032  2.3820  0.8073
19966TIP3   OH281312   2.254   0.138   4.099 -0.2112 -0.2825 -0.0733
19966TIP3    H181313   2.166   0.103   4.086 -0.1620 -0.7410  0.8024
19966TIP3    H281314   2.312   0.073   4.058 -0.1786 -0.7976  0.7773
19967TIP3   OH281315   3.065   5.592  10.724  0.3271  0.4034 -0.1238
19967TIP3    H181316   3.053   5.518  10.783  1.4948  0.0992 -0.2404
19967TIP3    H281317   2.989   5.648  10.739 -0.3021 -0.5642  0.3427
19968TIP3   OH281318   4.685   4.495  15.229 -0.1435 -0.2636 -0.3082
19968TIP3    H181319   4.590   4.504  15.229 -0.0025  1.4287 -0.4930
19968TIP3    H281320   4.710   4.515  15.138  0.4010 -0.5282 -0.2178
19969TIP3   OH281321   4.439   2.866   3.004  0.6584  0.5077  0.5581
19969TIP3    H181322   4.472   2.856   3.093 -0.3610 -0.0524  0.8750
19969TIP3    H281323   4.372   2.798   2.995  2.1004 -0.7026 -1.2852
19970TIP3   OH281324   5.620   5.512  10.256 -0.2495 -0.0446  0.2976
19970TIP3    H181325   5.651   5.554  10.336  1.2212 -1.1964  0.3515
19970TIP3    H281326   5.677   5.547  10.187 -0.8778  0.2014 -0.1059
19971TIP3   OH281327   1.958   2.127  16.301  0.3767 -0.1613 -0.3546
19971TIP3    H181328   1.920   2.114  16.214  1.1066  0.7167 -0.8013
19971TIP3    H281329   2.044   2.084  16.297  0.5534  0.1675 -0.1761
19972TIP3   OH281330   1.970   0.257   3.250  0.3847 -0.2261  0.1369
19972TIP3    H181331   1.987   0.227   3.339 -0.8586  0.8767  0.7500
19972TIP3    H281332   2.048   0.230   3.200  0.8269 -1.3522  1.4195
19973LIG     O181333   4.767   1.929  16.858 -0.1665  0.8901  0.1983
19973LIG     O281334   4.623   1.564  16.592  0.2614 -0.0214  0.1074
19973LIG     N181335   4.846   1.616  16.592 -0.3523 -0.2489 -0.1483
19973LIG     N281336   5.035   1.844  16.783  0.2441 -0.1199  0.1816
19973LIG     N381337   4.689   1.746  16.734 -0.1673  0.3261  0.2714
19973LIG     N481338   5.082   1.685  16.631 -0.2774  1.0831  0.4039
19973LIG     C181339   4.914   1.798  16.744 -0.1130  0.3977  0.3260
19973LIG     C281340   4.945   1.693  16.655 -0.6755  0.2298  0.7192
19973LIG     C381341   4.787   1.833  16.778 -0.9141 -0.1270 -0.8529
19973LIG     C481342   4.713   1.634  16.640 -0.0526  0.3441  0.1025
19973LIG     C581343   5.135   1.771  16.711  0.1979  0.1509 -0.3644
19973LIG     C681344   4.874   1.506  16.491  0.0604 -0.0698 -0.3303
19973LIG     C781345   5.052   1.949  16.882 -0.0272  0.0216 -0.6610
19973LIG     C881346   4.545   1.761  16.787  0.7435 -0.4279  0.6536
19973LIG     H181347   5.243   1.780  16.723  0.2339 -0.8080  0.0646
19973LIG     H281348   4.970   1.534  16.441 -0.9057  1.0821 -1.5722
19973LIG     H381349   4.796   1.512  16.412  2.3859  0.0286 -2.6906
19973LIG     H481350   4.871   1.406  16.539 -1.3341  0.5239  0.8304
19973LIG     H581351   5.014   2.036  16.825 -0.5204 -1.3356 -2.4790
19973LIG     H681352   5.152   1.978  16.921 -0.1586  0.4627 -0.6637
19973LIG     H781353   4.984   1.936  16.969 -1.0320  0.1023 -1.4253
19973LIG     H881354   4.542   1.719  16.890  1.9189  0.4344  1.0468
19973LIG     H981355   4.469   1.706  16.728 -0.8647 -1.2632  3.4138
19973LIG    H1081356   4.525   1.870  16.795  1.1966 -0.3365  0.5894
   6.78697   6.78697  17.23950
